INSANE! Membrane UpperLeaflet>loPI:POPI:DPPI:PYPI:ERGO=180.0:5.0:3.0:2.0:10.0 LowerLeaflet>loPI:POPI:DPPI:PYPI:ERGO=180.0:5.0:3.0:2.0:10.0
49303
    1loPI    C1    1   5.008  10.436  10.601  0.0436  0.2159 -0.1009
    1loPI    C2    2   4.823  10.756  10.752 -0.2648  0.0328 -0.0811
    1loPI    C3    3   4.751  10.393  10.904  0.0444 -0.0544 -0.1354
    1loPI   PO4    4   4.967  10.472  10.339 -0.1576 -0.4067  0.2155
    1loPI   GL1    5   4.948  10.566   9.867 -0.2424  0.0133  0.0322
    1loPI   GL2    6   5.180  10.351   9.754  0.1020 -0.0585  0.0258
    1loPI   C1A    7   4.814  10.720   9.480  0.0575  0.1421 -0.0111
    1loPI   C2A    8   4.875  10.839   9.097  0.0216 -0.2837  0.1040
    1loPI   C3A    9   4.826  10.665   8.765  0.2365  0.0880  0.0283
    1loPI   C4A   10   4.858  11.020   8.454 -0.1789  0.0008 -0.1780
    1loPI   C5A   11   4.948  11.374   8.303 -0.2064  0.2027  0.2320
    1loPI   C6A   12   4.766  11.612   7.876  0.0289 -0.2058  0.0467
    1loPI   C1B   13   5.260  10.569   9.368 -0.2201  0.0444  0.0205
    1loPI   C2B   14   5.302  10.622   8.913  0.6197  0.0605 -0.3255
    1loPI   C3B   15   5.373  10.990   8.563  0.3608  0.0151 -0.0279
    1loPI   C4B   16   5.470  11.171   8.184  0.2657 -0.0281 -0.1352
    2loPI    C1   17  10.074   9.181   9.981 -0.1005  0.0286  0.1178
    2loPI    C2   18  10.303   8.865   9.894  0.0129  0.1574 -0.0587
    2loPI    C3   19  10.429   9.137  10.160 -0.1241  0.0105  0.1602
    2loPI   PO4   20  10.053   9.341   9.720  0.1833 -0.1810  0.1802
    2loPI   GL1   21   9.572   9.632   9.460 -0.1293  0.0322  0.1193
    2loPI   GL2   22   9.715   9.258   9.317  0.3967 -0.1339 -0.0798
    2loPI   C1A   23   9.327   9.766   9.127 -0.0313 -0.1288  0.0179
    2loPI   C2A   24   9.062  10.159   8.985  0.0624 -0.2665  0.2755
    2loPI   C3A   25   8.961  10.356   8.555  0.0186  0.2094 -0.1648
    2loPI   C4A   26   8.868  10.302   8.096  0.0125 -0.2548  0.0669
    2loPI   C5A   27   8.983  10.222   7.701  0.1197 -0.0569  0.2595
    2loPI   C6A   28   8.886   9.856   7.423  0.1666 -0.2158 -0.0488
    2loPI   C1B   29   9.648   9.464   8.916  0.0021  0.0091 -0.4986
    2loPI   C2B   30   9.909   9.544   8.496  0.2110 -0.1441  0.1846
    2loPI   C3B   31   9.814   9.799   8.116 -0.3098  0.1290 -0.0901
    2loPI   C4B   32   9.603   9.720   7.708  0.0441  0.0885 -0.1374
    3loPI    C1   33   0.496   4.388   9.831  0.0796  0.0266 -0.1276
    3loPI    C2   34   0.240   4.327  10.133  0.0954 -0.0762 -0.1348
    3loPI    C3   35   0.634   4.289  10.193  0.1103  0.0922 -0.1212
    3loPI   PO4   36   0.433   4.207   9.642 -0.2153 -0.1114 -0.2039
    3loPI   GL1   37   0.552   4.137   9.242  0.0095  0.0805  0.0014
    3loPI   GL2   38   0.727   4.423   9.139 -0.1677 -0.4500  0.1934
    3loPI   C1A   39   0.573   4.088   8.816  0.1959  0.1181 -0.1811
    3loPI   C2A   40   0.329   3.844   8.520 -0.0617 -0.1112  0.0854
    3loPI   C3A   41   0.328   3.866   8.073 -0.1940  0.1851  0.3734
    3loPI   C4A   42   0.236   3.557   7.763 -0.0704 -0.0534  0.2498
    3loPI   C5A   43  -0.137   3.600   7.485 -0.0321  0.0101 -0.0737
    3loPI   C6A   44  -0.236   3.984   7.247 -0.2803 -0.2517  0.0664
    3loPI   C1B   45   0.935   4.476   8.622  0.0981 -0.5032 -0.1965
    3loPI   C2B   46   0.901   4.628   8.172  0.0148 -0.4192  0.1193
    3loPI   C3B   47   0.686   4.805   7.938  0.1663  0.1676 -0.0535
    3loPI   C4B   48   0.346   4.720   7.721  0.0865 -0.0247 -0.0558
    4loPI    C1   49  12.773   5.348   9.724 -0.2825  0.2613 -0.0302
    4loPI    C2   50  12.593   5.016   9.594 -0.3643  0.2865  0.0180
    4loPI    C3   51  12.933   4.990   9.803 -0.1423  0.2531 -0.3392
    4loPI   PO4   52  12.570   5.544   9.603  0.1674  0.2307 -0.0521
    4loPI   GL1   53  12.285   5.612   9.299  0.1453  0.3709  0.3278
    4loPI   GL2   54  12.259   5.240   9.246 -0.0744  0.0707 -0.1832
    4loPI   C1A   55  12.343   5.874   8.865 -0.1260  0.0740  0.0184
    4loPI   C2A   56  12.360   6.030   8.439  0.1949 -0.1945  0.3132
    4loPI   C3A   57  12.356   6.048   8.003  0.3518 -0.1227 -0.0547
    4loPI   C4A   58  12.683   6.232   7.606  0.4210 -0.0557  0.2437
    4loPI   C5A   59  12.849   6.329   7.178  0.1857 -0.0768  0.1933
    4loPI   C6A   60  13.114   6.568   6.940  0.1732 -0.0732  0.1310
    4loPI   C1B   61  12.469   5.212   8.782 -0.1197  0.1469 -0.1174
    4loPI   C2B   62  12.811   5.290   8.566  0.0136 -0.0179 -0.1966
    4loPI   C3B   63  13.086   5.593   8.265  0.1869 -0.1295 -0.1575
    4loPI   C4B   64  13.284   5.955   8.119 -0.0428 -0.2850  0.0557
    5loPI    C1   65  18.171  16.764   9.484  0.0525 -0.1409 -0.1345
    5loPI    C2   66  18.459  16.976   9.306 -0.0658  0.1286 -0.0110
    5loPI    C3   67  18.428  16.977   9.704 -0.2031  0.0553 -0.0211
    5loPI   PO4   68  17.984  16.751   9.265  0.0342  0.1025 -0.5154
    5loPI   GL1   69  18.039  16.829   8.860  0.0538  0.2539 -0.2116
    5loPI   GL2   70  18.074  17.168   8.905  0.0446 -0.2083  0.2240
    5loPI   C1A   71  17.965  16.935   8.497  0.3132  0.0256 -0.1132
    5loPI   C2A   72  17.604  17.100   8.170  0.1404 -0.3478 -0.1186
    5loPI   C3A   73  17.728  17.130   7.673 -0.0710 -0.0924  0.0367
    5loPI   C4A   74  17.754  17.045   7.263 -0.4250  0.0631 -0.0892
    5loPI   C5A   75  18.231  17.122   7.140 -0.0868  0.0025 -0.3060
    5loPI   C6A   76  18.443  17.299   6.839 -0.4702  0.0312  0.2473
    5loPI   C1B   77  18.398  17.089   8.548 -0.2679  0.2351  0.2595
    5loPI   C2B   78  18.249  17.071   8.111  0.1758  0.1448 -0.1716
    5loPI   C3B   79  18.243  17.081   7.632  0.5052  0.3399 -0.2253
    5loPI   C4B   80  18.176  16.754   7.479 -0.0977  0.1170 -0.0748
    6loPI    C1   81   4.194  12.857  10.232 -0.0166  0.0830 -0.1060
    6loPI    C2   82   4.063  12.869  10.610  0.0312 -0.2883 -0.0743
    6loPI    C3   83   4.453  12.910  10.532  0.0554 -0.4777 -0.0585
    6loPI   PO4   84   3.966  12.714  10.073  0.0418  0.1465  0.2284
    6loPI   GL1   85   3.686  12.676   9.746  0.2587  0.2117 -0.2073
    6loPI   GL2   86   3.759  12.418   9.743 -0.0980  0.0218  0.4034
    6loPI   C1A   87   3.389  12.831   9.603  0.2056 -0.0471  0.0290
    6loPI   C2A   88   3.162  12.832   9.222  0.0666 -0.0580  0.1399
    6loPI   C3A   89   3.237  12.914   8.745 -0.2531 -0.2932  0.2295
    6loPI   C4A   90   3.437  12.977   8.269 -0.1016 -0.1145  0.0597
    6loPI   C5A   91   3.606  12.860   7.847 -0.0673  0.1562  0.3380
    6loPI   C6A   92   3.377  12.409   7.626  0.0162 -0.6002  0.1983
    6loPI   C1B   93   3.829  12.399   9.235 -0.1096  0.2611  0.0007
    6loPI   C2B   94   3.856  12.417   8.764 -0.1158  0.1054 -0.0263
    6loPI   C3B   95   3.877  12.310   8.275 -0.0250  0.2315 -0.0732
    6loPI   C4B   96   3.813  12.439   7.849  0.0143  0.4464 -0.1031
    7loPI    C1   97  17.454  13.504   9.971 -0.1489  0.1857  0.1014
    7loPI    C2   98  17.119  13.285   9.976  0.0570 -0.1374  0.0309
    7loPI    C3   99  17.315  13.359  10.317 -0.0284 -0.0376  0.0584
    7loPI   PO4  100  17.461  13.560   9.637  0.0860 -0.4050 -0.3756
    7loPI   GL1  101  17.450  13.341   9.307 -0.2117  0.2398  0.2509
    7loPI   GL2  102  17.589  13.545   9.079 -0.2664 -0.0695 -0.0733
    7loPI   C1A  103  17.365  13.178   9.043 -0.4541  0.1742 -0.1249
    7loPI   C2A  104  17.355  13.140   8.674 -0.0798 -0.0128  0.1393
    7loPI   C3A  105  17.329  13.359   8.337 -0.1029  0.3096 -0.2127
    7loPI   C4A  106  17.389  13.063   8.101 -0.2914  0.2562  0.1392
    7loPI   C5A  107  17.348  12.990   7.651  0.1618  0.2588 -0.0972
    7loPI   C6A  108  17.329  12.854   7.284 -0.0749 -0.1355 -0.1864
    7loPI   C1B  109  17.638  13.660   8.569 -0.2075  0.1490 -0.2864
    7loPI   C2B  110  17.667  13.633   8.118  0.1273  0.0654 -0.0992
    7loPI   C3B  111  17.345  13.506   7.794 -0.1234 -0.0374  0.1165
    7loPI   C4B  112  17.260  13.539   7.371 -0.0130 -0.2069  0.0709
    8loPI    C1  113   9.512   0.716   9.781 -0.0056 -0.1971 -0.0178
    8loPI    C2  114   9.213   0.702  10.046 -0.0207  0.1330 -0.0138
    8loPI    C3  115   9.586   0.775  10.170  0.0213 -0.0181 -0.0495
    8loPI   PO4  116   9.502   0.836   9.541  0.2848  0.2826 -0.1627
    8loPI   GL1  117   9.561   0.813   9.184 -0.0259 -0.0527  0.0611
    8loPI   GL2  118   9.575   1.167   9.051 -0.1030 -0.0513 -0.1660
    8loPI   C1A  119   9.472   0.791   8.712 -0.0794  0.1273 -0.0772
    8loPI   C2A  120   9.492   0.905   8.381  0.2268 -0.4128 -0.1026
    8loPI   C3A  121   9.495   1.065   7.896  0.0613 -0.2176 -0.0266
    8loPI   C4A  122   9.448   0.756   7.663 -0.0846  0.0634 -0.0259
    8loPI   C5A  123   9.388   0.448   7.354  0.0664  0.1555 -0.1819
    8loPI   C6A  124   9.411   0.036   7.083  0.2131 -0.0573 -0.3651
    8loPI   C1B  125   9.724   1.252   8.604  0.1947 -0.2320  0.1030
    8loPI   C2B  126   9.748   1.312   8.201 -0.3066  0.1200 -0.1071
    8loPI   C3B  127   9.597   1.532   7.813  0.0497 -0.0619  0.2209
    8loPI   C4B  128   9.679   1.341   7.406  0.2577  0.0286  0.0552
    9loPI    C1  129  18.888  17.701   9.909 -0.1586  0.0510 -0.3073
    9loPI    C2  130  19.024  17.325   9.926 -0.0542  0.0890 -0.2930
    9loPI    C3  131  18.639  17.403  10.004 -0.0519 -0.0015 -0.1890
    9loPI   PO4  132  18.944  17.793   9.630 -0.2542  0.1778  0.2566
    9loPI   GL1  133  19.066  17.826   9.238 -0.2210 -0.1980 -0.0555
    9loPI   GL2  134  19.334  18.085   9.237  0.1735  0.2354  0.0554
    9loPI   C1A  135  19.007  17.565   8.924 -0.2799 -0.3918 -0.0181
    9loPI   C2A  136  19.029  17.535   8.494  0.3585  0.0067  0.1147
    9loPI   C3A  137  19.158  17.457   8.044 -0.2335  0.1188 -0.0066
    9loPI   C4A  138  19.104  16.966   7.804  0.1437 -0.0717 -0.0900
    9loPI   C5A  139  19.301  16.833   7.365  0.1634 -0.0270  0.0128
    9loPI   C6A  140  19.446  16.516   7.015  0.0411  0.1044 -0.3480
    9loPI   C1B  141  19.681  18.092   8.939  0.3276  0.1741  0.0255
    9loPI   C2B  142  19.782  18.138   8.530  0.0250  0.0042 -0.3510
    9loPI   C3B  143  19.929  18.135   8.053 -0.2337 -0.0542 -0.1741
    9loPI   C4B  144  20.067  17.805   7.750 -0.1107 -0.0365  0.1221
   10loPI    C1  145  11.111   1.995   9.942 -0.0157  0.1853  0.3528
   10loPI    C2  146  11.337   1.755  10.168  0.0699  0.0171  0.0930
   10loPI    C3  147  10.956   1.660  10.094  0.1584 -0.1442 -0.1697
   10loPI   PO4  148  11.334   2.027   9.706 -0.3803  0.3369  0.3544
   10loPI   GL1  149  11.355   1.989   9.219 -0.4749 -0.1097 -0.0276
   10loPI   GL2  150  11.627   1.744   9.268 -0.1621 -0.1571 -0.0089
   10loPI   C1A  151  11.579   2.284   9.072 -0.1206  0.0275  0.1664
   10loPI   C2A  152  11.616   2.662   8.939  0.0412  0.2216 -0.0948
   10loPI   C3A  153  11.719   2.703   8.475 -0.1799  0.2617 -0.0529
   10loPI   C4A  154  11.578   2.731   7.999 -0.2245 -0.1696 -0.3571
   10loPI   C5A  155  11.713   2.832   7.473 -0.2566  0.0644 -0.3085
   10loPI   C6A  156  11.904   3.024   7.054  0.1156 -0.0789 -0.3640
   10loPI   C1B  157  11.680   1.811   8.853  0.3169  0.1993 -0.2215
   10loPI   C2B  158  11.445   2.174   8.598  0.1262 -0.3709 -0.3674
   10loPI   C3B  159  11.217   2.460   8.368 -0.0395  0.2836  0.0084
   10loPI   C4B  160  11.091   2.796   8.180 -0.2816  0.1690  0.2626
   11loPI    C1  161  16.921  14.377   9.818 -0.0368  0.0996 -0.0876
   11loPI    C2  162  17.061  14.262  10.175 -0.1622  0.0219 -0.0628
   11loPI    C3  163  16.998  14.650  10.100  0.0722  0.0583 -0.0772
   11loPI   PO4  164  17.140  14.358   9.623  0.1459  0.0152  0.1105
   11loPI   GL1  165  17.160  14.080   9.370 -0.0388 -0.1220  0.0039
   11loPI   GL2  166  17.223  13.819   9.298 -0.0618 -0.1332  0.0578
   11loPI   C1A  167  17.228  14.113   8.842  0.0290 -0.3129 -0.4227
   11loPI   C2A  168  17.088  13.976   8.502  0.2611 -0.0573 -0.0178
   11loPI   C3A  169  17.026  13.689   8.077  0.1054 -0.0470 -0.1405
   11loPI   C4A  170  16.878  13.540   7.715 -0.3102 -0.3947  0.0103
   11loPI   C5A  171  16.772  13.612   7.247 -0.2273  0.0784 -0.0072
   11loPI   C6A  172  17.073  13.797   6.988  0.0320 -0.1137  0.0872
   11loPI   C1B  173  17.134  13.588   9.001 -0.0030 -0.3950  0.3328
   11loPI   C2B  174  16.991  13.468   8.650  0.3601  0.1605  0.0647
   11loPI   C3B  175  16.604  13.293   8.463  0.0087  0.2942  0.1107
   11loPI   C4B  176  16.483  13.339   7.935  0.0332  0.0979  0.2611
   12loPI    C1  177  12.290  15.480   9.830 -0.1261  0.1984 -0.1283
   12loPI    C2  178  12.211  15.818   9.631 -0.1317  0.1456 -0.2165
   12loPI    C3  179  12.235  15.822  10.031 -0.1104  0.2543 -0.2185
   12loPI   PO4  180  12.191  15.279   9.667  0.1938 -0.1522  0.0984
   12loPI   GL1  181  11.894  15.242   9.387 -0.0747 -0.0741  0.1088
   12loPI   GL2  182  11.638  15.146   9.576 -0.1046  0.3424 -0.0873
   12loPI   C1A  183  11.958  15.258   8.957 -0.1083  0.1711 -0.0745
   12loPI   C2A  184  11.776  15.437   8.631  0.0550 -0.2164 -0.1455
   12loPI   C3A  185  11.692  15.703   8.226  0.1189 -0.0091  0.2488
   12loPI   C4A  186  11.782  15.995   7.918 -0.0744 -0.1533  0.0885
   12loPI   C5A  187  11.724  15.944   7.460 -0.1138  0.1929 -0.0662
   12loPI   C6A  188  11.959  16.060   7.148  0.0514 -0.0545 -0.1093
   12loPI   C1B  189  11.371  15.087   9.270 -0.1171  0.3774  0.0348
   12loPI   C2B  190  11.234  14.972   8.831  0.2188 -0.2505 -0.2393
   12loPI   C3B  191  11.520  15.070   8.497 -0.1131  0.1251 -0.0750
   12loPI   C4B  192  11.717  15.211   8.201 -0.4774  0.3348 -0.3996
   13loPI    C1  193  12.605  12.721   9.525 -0.3720 -0.1995 -0.1720
   13loPI    C2  194  12.332  12.719   9.817 -0.1727  0.1150  0.0231
   13loPI    C3  195  12.455  13.066   9.662  0.3290 -0.0008  0.1434
   13loPI   PO4  196  12.521  12.684   9.352 -0.3026  0.4689 -0.0089
   13loPI   GL1  197  12.567  12.561   8.844 -0.3169 -0.0789 -0.0332
   13loPI   GL2  198  12.383  12.762   8.837 -0.1576 -0.0677  0.1243
   13loPI   C1A  199  12.813  12.593   8.418  0.0105  0.1551 -0.2794
   13loPI   C2A  200  12.944  12.880   8.097 -0.1702  0.1773 -0.3911
   13loPI   C3A  201  12.985  13.135   7.878  0.1258 -0.3041 -0.0269
   13loPI   C4A  202  13.321  13.260   7.722 -0.1965  0.1810 -0.2338
   13loPI   C5A  203  13.760  13.193   7.733 -0.1651 -0.0029  0.1755
   13loPI   C6A  204  13.929  12.848   7.854  0.0771 -0.0970  0.0794
   13loPI   C1B  205  12.689  13.041   8.658 -0.1681 -0.3297  0.0139
   13loPI   C2B  206  13.045  13.127   8.593 -0.1319  0.2723 -0.0809
   13loPI   C3B  207  13.508  13.031   8.661 -0.1409 -0.1298 -0.0563
   13loPI   C4B  208  13.741  13.098   8.253 -0.0399  0.1186 -0.1540
   14loPI    C1  209  10.326   7.815   9.913 -0.0036 -0.1395 -0.0110
   14loPI    C2  210  10.342   7.416   9.947 -0.0144 -0.1137  0.3343
   14loPI    C3  211  10.147   7.632  10.221 -0.2428  0.1107  0.0018
   14loPI   PO4  212  10.520   7.889   9.807 -0.1717 -0.1714  0.0521
   14loPI   GL1  213  10.696   7.802   9.425  0.1275 -0.2336 -0.2099
   14loPI   GL2  214  10.630   7.524   9.395 -0.0835  0.1908  0.0425
   14loPI   C1A  215  10.813   8.075   8.999 -0.2072  0.3437  0.2350
   14loPI   C2A  216  10.968   8.294   8.514  0.0791  0.0160 -0.3257
   14loPI   C3A  217  10.809   8.178   8.035 -0.0930 -0.1863 -0.1466
   14loPI   C4A  218  10.931   8.172   7.650  0.0224  0.1282  0.0526
   14loPI   C5A  219  11.356   8.099   7.539 -0.0555  0.3917 -0.0551
   14loPI   C6A  220  11.758   8.146   7.745 -0.3318  0.1190 -0.1401
   14loPI   C1B  221  10.764   7.556   8.938  0.0258 -0.1037  0.2296
   14loPI   C2B  222  10.777   7.727   8.445  0.3199  0.1978 -0.1996
   14loPI   C3B  223  10.571   7.605   8.125 -0.0825 -0.0926 -0.1400
   14loPI   C4B  224  10.706   7.589   7.670  0.3965 -0.0010  0.0581
   15loPI    C1  225   0.586   7.685   9.730 -0.2108  0.0695 -0.0376
   15loPI    C2  226   0.803   7.356   9.798 -0.0889  0.1381 -0.0904
   15loPI    C3  227   0.982   7.691   9.672 -0.1907  0.2696  0.1101
   15loPI   PO4  228   0.407   7.583   9.557 -0.0935 -0.2535  0.2338
   15loPI   GL1  229   0.418   7.397   9.203 -0.1659 -0.2131  0.1093
   15loPI   GL2  230   0.791   7.457   9.113 -0.1056  0.2449 -0.1540
   15loPI   C1A  231   0.409   7.357   8.834  0.0217  0.3183 -0.1371
   15loPI   C2A  232   0.152   7.116   8.407  0.1567  0.2483 -0.5949
   15loPI   C3A  233   0.099   6.855   8.079  0.1099  0.0937 -0.1961
   15loPI   C4A  234  -0.019   6.544   7.775  0.0354 -0.1345 -0.1199
   15loPI   C5A  235  -0.275   6.272   7.488  0.2239  0.1220 -0.3091
   15loPI   C6A  236  -0.429   6.075   7.126  0.0094  0.2791  0.2353
   15loPI   C1B  237   0.982   7.631   8.716  0.1525  0.1772  0.2010
   15loPI   C2B  238   1.035   7.963   8.440  0.0189 -0.2016 -0.1119
   15loPI   C3B  239   1.159   8.057   8.054  0.0891  0.0878 -0.0447
   15loPI   C4B  240   1.461   8.004   7.824 -0.1471  0.1702  0.0292
   16loPI    C1  241  10.412   2.704  10.053  0.1177 -0.0004 -0.0637
   16loPI    C2  242  10.270   2.332  10.012  0.1954 -0.0126 -0.2302
   16loPI    C3  243  10.343   2.479  10.376 -0.4277  0.0637 -0.1254
   16loPI   PO4  244  10.390   2.713   9.683 -0.4014  0.1767 -0.1212
   16loPI   GL1  245  10.166   2.984   9.486 -0.2162  0.1193 -0.0317
   16loPI   GL2  246  10.207   2.646   9.231  0.0119 -0.2983 -0.0306
   16loPI   C1A  247   9.922   2.975   9.107 -0.0312 -0.0064 -0.0615
   16loPI   C2A  248   9.848   2.927   8.681  0.2004 -0.0857  0.2137
   16loPI   C3A  249   9.723   2.820   8.248 -0.2114  0.0926 -0.0207
   16loPI   C4A  250   9.600   2.756   7.818 -0.0414  0.1445  0.0022
   16loPI   C5A  251   9.206   2.886   7.627  0.2195 -0.1208 -0.3284
   16loPI   C6A  252   9.163   3.225   7.335  0.1686  0.0524  0.1995
   16loPI   C1B  253  10.348   2.775   8.850  0.1309 -0.3845  0.2483
   16loPI   C2B  254  10.414   2.869   8.475 -0.0477  0.0365 -0.2238
   16loPI   C3B  255  10.471   2.914   7.966 -0.0997  0.1131  0.0134
   16loPI   C4B  256  10.700   2.789   7.670 -0.1076 -0.1882  0.0232
   17loPI    C1  257  15.569  16.543   9.168  0.3062 -0.1148  0.1502
   17loPI    C2  258  15.584  16.508   9.566  0.1362 -0.0902  0.1595
   17loPI    C3  259  15.886  16.373   9.342  0.2840 -0.0020  0.3035
   17loPI   PO4  260  15.249  16.527   9.132 -0.0224  0.0648 -0.0820
   17loPI   GL1  261  15.037  16.426   8.795  0.1053 -0.0100 -0.3771
   17loPI   GL2  262  14.949  16.681   8.614 -0.2607 -0.0039 -0.0602
   17loPI   C1A  263  14.870  16.202   8.435  0.2449 -0.2387 -0.0374
   17loPI   C2A  264  14.754  16.262   8.027 -0.1842 -0.1732 -0.2443
   17loPI   C3A  265  14.773  16.124   7.666  0.0878  0.0487  0.0332
   17loPI   C4A  266  14.754  15.875   7.371  0.3034  0.0196  0.0890
   17loPI   C5A  267  14.775  15.840   6.912  0.0641 -0.1376 -0.0943
   17loPI   C6A  268  14.527  15.645   6.749  0.4336 -0.0926  0.1881
   17loPI   C1B  269  15.056  16.661   8.186 -0.1437  0.0018 -0.2808
   17loPI   C2B  270  15.504  16.786   7.966 -0.1497 -0.0445  0.1183
   17loPI   C3B  271  15.656  17.056   7.678  0.3111 -0.1992  0.1933
   17loPI   C4B  272  15.649  17.050   7.227  0.0081  0.0070 -0.2392
   18loPI    C1  273  14.437   3.618   9.709  0.0278 -0.0465  0.1965
   18loPI    C2  274  14.207   3.874   9.912 -0.0972  0.0911 -0.1123
   18loPI    C3  275  14.044   3.549   9.746 -0.0061  0.0088 -0.0411
   18loPI   PO4  276  14.487   3.867   9.471 -0.0007  0.5959 -0.2287
   18loPI   GL1  277  14.509   4.192   9.161  0.1454  0.3832  0.2779
   18loPI   GL2  278  14.686   4.414   9.368 -0.0726 -0.0884  0.1703
   18loPI   C1A  279  14.730   4.347   8.694  0.2100 -0.0898 -0.0337
   18loPI   C2A  280  14.799   4.385   8.330  0.0165 -0.5092 -0.0454
   18loPI   C3A  281  14.795   4.456   7.893  0.1685 -0.0095  0.0222
   18loPI   C4A  282  14.909   4.774   7.505  0.0045  0.0943  0.0901
   18loPI   C5A  283  15.016   5.150   7.322  0.3774 -0.0551  0.1255
   18loPI   C6A  284  15.109   5.561   7.205  0.0765 -0.1434 -0.0774
   18loPI   C1B  285  14.667   4.702   9.032 -0.3400 -0.1510  0.0832
   18loPI   C2B  286  14.824   4.903   8.670  0.2564  0.3455  0.1983
   18loPI   C3B  287  14.899   5.196   8.310 -0.4194  0.2024 -0.2382
   18loPI   C4B  288  15.062   5.502   8.183 -0.0728  0.1354 -0.2762
   19loPI    C1  289   1.721  14.162   9.768  0.1195 -0.2099 -0.0358
   19loPI    C2  290   1.659  14.520   9.935  0.1244 -0.2519  0.0567
   19loPI    C3  291   1.777  14.212  10.161 -0.1657 -0.3862  0.0301
   19loPI   PO4  292   1.877  14.084   9.551  0.1260 -0.0186 -0.1701
   19loPI   GL1  293   2.307  14.186   9.314  0.1984  0.0285 -0.0426
   19loPI   GL2  294   2.049  14.260   9.101 -0.0272 -0.0571 -0.1396
   19loPI   C1A  295   2.516  14.384   8.904 -0.1883  0.1085  0.1975
   19loPI   C2A  296   2.573  14.450   8.400 -0.0440 -0.3123 -0.3328
   19loPI   C3A  297   2.678  14.431   8.036 -0.3931 -0.0887 -0.2538
   19loPI   C4A  298   2.649  14.415   7.466  0.0311  0.3454 -0.5205
   19loPI   C5A  299   2.562  14.155   7.106  0.4336 -0.2808  0.2779
   19loPI   C6A  300   2.467  13.885   6.697  0.2161 -0.0073 -0.0477
   19loPI   C1B  301   2.173  14.168   8.642  0.1082 -0.2534  0.0929
   19loPI   C2B  302   2.578  13.926   8.487 -0.0929  0.0611  0.0604
   19loPI   C3B  303   2.880  13.682   8.238 -0.0627 -0.0019  0.3110
   19loPI   C4B  304   3.073  13.808   7.811  0.0949 -0.1704  0.0237
   20loPI    C1  305   9.923  17.664   9.681 -0.1875  0.0399  0.1414
   20loPI    C2  306   9.866  17.518  10.049  0.1307  0.2565  0.2809
   20loPI    C3  307   9.790  17.903   9.972 -0.1762  0.1542  0.0534
   20loPI   PO4  308   9.785  17.600   9.506  0.2483  0.0711  0.3213
   20loPI   GL1  309   9.886  17.530   9.125  0.0051 -0.2438 -0.2449
   20loPI   GL2  310   9.739  17.949   9.184 -0.1568 -0.2019  0.2380
   20loPI   C1A  311   9.818  17.509   8.771  0.0114 -0.2075  0.3118
   20loPI   C2A  312   9.844  17.592   8.324 -0.0194  0.2225  0.1495
   20loPI   C3A  313   9.849  17.603   7.909  0.3586 -0.2723 -0.0894
   20loPI   C4A  314   9.713  17.887   7.645  0.0991  0.0935 -0.2088
   20loPI   C5A  315   9.409  17.969   7.398 -0.1595 -0.1776  0.0561
   20loPI   C6A  316   9.484  18.256   7.019  0.3267  0.0200  0.0134
   20loPI   C1B  317   9.942  18.048   8.752 -0.1773  0.2398 -0.1151
   20loPI   C2B  318   9.705  18.140   8.369 -0.2231 -0.2069 -0.2098
   20loPI   C3B  319   9.528  17.923   8.134  0.1510  0.0989 -0.2087
   20loPI   C4B  320   9.335  17.604   7.988 -0.1213 -0.2166 -0.0557
   21loPI    C1  321   3.171  18.634   9.357 -0.1477  0.1584  0.0971
   21loPI    C2  322   3.196  18.567   9.750 -0.1166 -0.0599  0.0591
   21loPI    C3  323   3.326  18.291   9.491 -0.1609  0.0717 -0.1051
   21loPI   PO4  324   2.907  18.722   9.250 -0.2479  0.1674  0.1700
   21loPI   GL1  325   2.670  18.591   8.872  0.2365 -0.0292 -0.1289
   21loPI   GL2  326   2.907  18.400   8.676 -0.2434 -0.1121 -0.4278
   21loPI   C1A  327   2.379  18.483   8.533 -0.1613  0.0233 -0.2939
   21loPI   C2A  328   2.183  18.567   8.120  0.0509 -0.2845  0.2514
   21loPI   C3A  329   1.939  18.428   7.729 -0.0443 -0.0039 -0.1336
   21loPI   C4A  330   1.789  18.459   7.285 -0.0003 -0.0578 -0.0534
   21loPI   C5A  331   1.957  18.355   6.944 -0.2103 -0.0964 -0.2485
   21loPI   C6A  332   2.147  18.070   6.780  0.0340 -0.2596 -0.1396
   21loPI   C1B  333   2.886  18.701   8.390  0.0980  0.1108  0.0417
   21loPI   C2B  334   2.939  18.816   7.864 -0.0125  0.1891  0.0157
   21loPI   C3B  335   3.069  18.511   7.555  0.2565  0.3244  0.0438
   21loPI   C4B  336   3.324  18.311   7.312  0.2060  0.3059  0.3514
   22loPI    C1  337   7.731  13.440  10.017  0.0874  0.0133 -0.0073
   22loPI    C2  338   7.674  13.339  10.400 -0.1022  0.0518 -0.0244
   22loPI    C3  339   7.519  13.679  10.258  0.0194  0.0677 -0.1206
   22loPI   PO4  340   7.790  13.195   9.927  0.0845  0.2816 -0.0419
   22loPI   GL1  341   7.765  12.896   9.486 -0.2259  0.1346 -0.2115
   22loPI   GL2  342   8.059  12.806   9.331  0.0075 -0.0203 -0.0610
   22loPI   C1A  343   7.591  12.959   9.180 -0.0540  0.0614 -0.2899
   22loPI   C2A  344   7.558  13.109   8.728  0.0101  0.2213  0.1431
   22loPI   C3A  345   7.515  13.206   8.262 -0.2599  0.2299  0.0961
   22loPI   C4A  346   7.623  13.303   7.890  0.0111  0.0343  0.0946
   22loPI   C5A  347   7.395  13.197   7.457  0.1872 -0.1493 -0.2499
   22loPI   C6A  348   7.721  13.072   7.083 -0.0142  0.0507  0.1758
   22loPI   C1B  349   8.035  13.076   8.965  0.1282  0.0362  0.0059
   22loPI   C2B  350   7.970  13.132   8.482  0.0000  0.0412  0.0881
   22loPI   C3B  351   7.895  12.926   8.030 -0.0004  0.0055  0.0619
   22loPI   C4B  352   8.209  12.873   7.643 -0.2955 -0.0366 -0.2750
   23loPI    C1  353   3.183   6.485  10.083  0.0678 -0.0333  0.0051
   23loPI    C2  354   3.491   6.254  10.191  0.0988 -0.0662 -0.1516
   23loPI    C3  355   3.154   6.253  10.407  0.3048  0.1770  0.1811
   23loPI   PO4  356   3.372   6.663   9.877  0.0733  0.0168 -0.1781
   23loPI   GL1  357   3.514   6.683   9.387  0.2059  0.1332  0.0892
   23loPI   GL2  358   3.800   6.780   9.651 -0.1030  0.1589  0.2047
   23loPI   C1A  359   3.310   6.728   8.924 -0.1306 -0.0119 -0.1597
   23loPI   C2A  360   3.055   6.793   8.487  0.2071  0.2183 -0.2206
   23loPI   C3A  361   3.044   6.756   8.130  0.1229  0.0571 -0.1736
   23loPI   C4A  362   3.075   6.753   7.666  0.1680 -0.0860 -0.0091
   23loPI   C5A  363   3.039   6.808   7.251  0.0523  0.0246  0.1049
   23loPI   C6A  364   2.787   6.554   6.988 -0.1504  0.2256 -0.0532
   23loPI   C1B  365   4.016   6.857   9.301 -0.3009 -0.0380 -0.0069
   23loPI   C2B  366   4.361   6.841   8.921  0.0580  0.0350 -0.1773
   23loPI   C3B  367   4.391   6.751   8.461 -0.0643 -0.0533  0.1751
   23loPI   C4B  368   4.368   6.965   8.156  0.0532 -0.4019 -0.0589
   24loPI    C1  369   6.597   6.373   9.883 -0.0961  0.0711 -0.2207
   24loPI    C2  370   6.341   6.335   9.578 -0.0719 -0.0333 -0.2285
   24loPI    C3  371   6.669   6.107   9.592  0.1772  0.3081 -0.3745
   24loPI   PO4  372   6.612   6.670   9.985 -0.1565 -0.4228  0.1912
   24loPI   GL1  373   6.708   6.934   9.571 -0.2014 -0.1957 -0.0694
   24loPI   GL2  374   6.700   6.630   9.426 -0.3160 -0.1400  0.0137
   24loPI   C1A  375   6.986   7.260   9.394  0.2114  0.1404 -0.2924
   24loPI   C2A  376   6.999   7.597   9.076 -0.0118 -0.0960  0.1286
   24loPI   C3A  377   6.720   7.787   8.800 -0.0422  0.1208  0.1275
   24loPI   C4A  378   6.518   7.828   8.280 -0.0266 -0.1432 -0.0325
   24loPI   C5A  379   6.733   7.647   7.886  0.2036 -0.2555  0.3486
   24loPI   C6A  380   7.047   7.465   7.669  0.0551  0.1847  0.2524
   24loPI   C1B  381   6.628   6.911   9.077  0.0858  0.1068  0.0107
   24loPI   C2B  382   6.821   7.179   8.890 -0.3753 -0.2406  0.3070
   24loPI   C3B  383   6.680   7.375   8.509  0.0986 -0.0535  0.0162
   24loPI   C4B  384   6.287   7.361   8.256  0.1652 -0.1377  0.3891
   25loPI    C1  385  14.372  19.143   9.441  0.0918 -0.0245 -0.0337
   25loPI    C2  386  14.496  18.778   9.547 -0.2521 -0.1026  0.1143
   25loPI    C3  387  14.719  19.098   9.635  0.1485 -0.2882 -0.1919
   25loPI   PO4  388  14.361  19.141   9.131  0.4557 -0.3001 -0.0828
   25loPI   GL1  389  14.209  18.892   8.760 -0.1910 -0.0569  0.1875
   25loPI   GL2  390  14.575  18.727   8.726  0.0908  0.2335 -0.1481
   25loPI   C1A  391  14.488  19.092   8.440  0.1654  0.0826 -0.0388
   25loPI   C2A  392  14.448  19.305   7.987 -0.0949  0.1367  0.0675
   25loPI   C3A  393  14.037  19.543   7.875 -0.2037 -0.0028 -0.4225
   25loPI   C4A  394  13.555  19.444   7.916  0.1046  0.3817 -0.0882
   25loPI   C5A  395  13.171  19.449   7.644  0.1579  0.1133 -0.0324
   25loPI   C6A  396  13.023  19.538   7.310  0.0754  0.2278  0.5564
   25loPI   C1B  397  14.665  18.495   8.409 -0.0534 -0.0317 -0.1154
   25loPI   C2B  398  14.586  18.370   8.077  0.0926  0.0889  0.0577
   25loPI   C3B  399  14.599  18.367   7.615  0.1192  0.0907  0.1226
   25loPI   C4B  400  14.379  18.593   7.378  0.1975  0.4939 -0.2042
   26loPI    C1  401  15.725   6.068  10.463 -0.0858 -0.1635 -0.0912
   26loPI    C2  402  16.081   5.894  10.514  0.0429  0.1298  0.0365
   26loPI    C3  403  15.756   5.739  10.688  0.1650  0.0535  0.1997
   26loPI   PO4  404  15.696   6.151  10.186  0.0709 -0.1627 -0.2605
   26loPI   GL1  405  15.847   6.307   9.808  0.0447 -0.1559 -0.0622
   26loPI   GL2  406  15.621   6.276   9.543  0.2998  0.2805 -0.2123
   26loPI   C1A  407  16.014   6.030   9.442  0.3503  0.1582  0.1338
   26loPI   C2A  408  16.284   6.101   8.982 -0.2673 -0.2510 -0.4516
   26loPI   C3A  409  16.467   5.866   8.595  0.0181  0.0656  0.2066
   26loPI   C4A  410  16.850   6.001   8.429  0.0778  0.0082 -0.0569
   26loPI   C5A  411  16.908   6.158   8.041  0.0372  0.0041  0.0850
   26loPI   C6A  412  16.875   6.242   7.607 -0.2185  0.0383  0.0017
   26loPI   C1B  413  15.784   6.448   9.167  0.0561 -0.3145 -0.0483
   26loPI   C2B  414  16.097   6.517   8.973 -0.0385  0.3624 -0.0922
   26loPI   C3B  415  16.292   6.812   8.851  0.0175  0.0090 -0.0008
   26loPI   C4B  416  16.595   6.840   8.539 -0.0795  0.0364  0.1671
   27loPI    C1  417  15.611  17.940   9.216  0.2021  0.1304  0.0987
   27loPI    C2  418  15.341  17.801   9.476  0.0159  0.0437 -0.1372
   27loPI    C3  419  15.491  18.169   9.521 -0.1437  0.0939 -0.0055
   27loPI   PO4  420  15.804  17.824   9.112  0.2423 -0.1974  0.0324
   27loPI   GL1  421  15.998  17.834   8.704 -0.0623 -0.2415 -0.1738
   27loPI   GL2  422  15.986  18.081   8.614 -0.2638  0.0886 -0.0648
   27loPI   C1A  423  15.788  17.705   8.288  0.2120 -0.1234 -0.0880
   27loPI   C2A  424  15.994  17.891   7.960  0.0999  0.2458 -0.1299
   27loPI   C3A  425  16.199  17.963   7.517  0.2330 -0.0124  0.3283
   27loPI   C4A  426  16.278  18.018   7.136 -0.0113 -0.2756  0.1265
   27loPI   C5A  427  16.574  18.006   6.924  0.1637 -0.0886  0.0843
   27loPI   C6A  428  16.844  18.205   6.629 -0.3855 -0.3077  0.0333
   27loPI   C1B  429  16.329  17.812   8.296 -0.1049 -0.0211  0.0441
   27loPI   C2B  430  16.406  17.605   7.890 -0.2315  0.0046  0.0932
   27loPI   C3B  431  16.603  17.656   7.353 -0.2157  0.0320 -0.3279
   27loPI   C4B  432  16.393  17.443   6.998 -0.0184  0.0689  0.0506
   28loPI    C1  433   9.313  10.949  10.304  0.0431 -0.1263  0.0928
   28loPI    C2  434   9.456  10.789  10.642  0.0035 -0.1139  0.1155
   28loPI    C3  435   9.100  10.971  10.642  0.0809  0.0391  0.1066
   28loPI   PO4  436   9.459  11.099  10.206  0.0289 -0.4520  0.1485
   28loPI   GL1  437   9.674  11.107   9.839  0.0525 -0.0079 -0.0596
   28loPI   GL2  438   9.430  11.339   9.684 -0.1967  0.1573  0.4098
   28loPI   C1A  439   9.694  10.904   9.429  0.3111 -0.1933  0.0453
   28loPI   C2A  440   9.596  10.825   9.036  0.0771 -0.0824  0.0405
   28loPI   C3A  441   9.676  10.828   8.530  0.1851 -0.0600  0.0709
   28loPI   C4A  442   9.547  10.855   8.123 -0.1067  0.2136  0.3781
   28loPI   C5A  443   9.365  11.005   7.679  0.2772 -0.1256  0.0956
   28loPI   C6A  444   9.317  11.306   7.385 -0.1961 -0.2702 -0.1183
   28loPI   C1B  445   9.307  11.245   9.246 -0.0456  0.2776  0.0236
   28loPI   C2B  446   9.242  11.158   8.894  0.0886  0.0929  0.4059
   28loPI   C3B  447   9.185  11.270   8.372  0.1020  0.1342  0.1737
   28loPI   C4B  448   8.983  11.213   7.924 -0.1785  0.0396 -0.0203
   29loPI    C1  449   2.088  16.079   9.857  0.2574 -0.2370  0.1751
   29loPI    C2  450   1.933  15.721   9.948 -0.0834 -0.1245  0.0545
   29loPI    C3  451   2.103  15.944  10.233 -0.0932 -0.2747  0.1792
   29loPI   PO4  452   2.308  15.956   9.636  0.1179  0.1225 -0.0364
   29loPI   GL1  453   2.577  15.779   9.310  0.1141  0.1731 -0.0019
   29loPI   GL2  454   2.357  15.555   9.166  0.1015 -0.0677 -0.5800
   29loPI   C1A  455   2.529  15.949   8.834  0.1784 -0.3298 -0.0518
   29loPI   C2A  456   2.379  15.883   8.442 -0.0696  0.1316  0.1541
   29loPI   C3A  457   2.505  15.650   8.164 -0.1790  0.1049 -0.1777
   29loPI   C4A  458   2.468  15.323   7.952  0.1980 -0.1435 -0.0022
   29loPI   C5A  459   2.493  15.361   7.579 -0.0718  0.3136  0.1424
   29loPI   C6A  460   2.281  15.525   7.277  0.4024 -0.1677  0.0352
   29loPI   C1B  461   2.403  15.462   8.758 -0.7248 -0.1791 -0.1787
   29loPI   C2B  462   2.447  15.238   8.428 -0.1994  0.1580  0.0328
   29loPI   C3B  463   2.597  14.890   8.145  0.0065  0.1496  0.5956
   29loPI   C4B  464   2.864  14.824   7.693  0.2851  0.2449 -0.2801
   30loPI    C1  465  12.413   2.487   9.446 -0.0065 -0.1380  0.0650
   30loPI    C2  466  12.397   2.088   9.430  0.4235 -0.1567  0.0021
   30loPI    C3  467  12.577   2.269   9.738  0.1636 -0.0074  0.0685
   30loPI   PO4  468  12.611   2.567   9.265 -0.2693 -0.0608  0.0186
   30loPI   GL1  469  12.700   2.592   8.873 -0.3403  0.0434  0.3472
   30loPI   GL2  470  12.607   3.059   8.956  0.2311  0.3297  0.1510
   30loPI   C1A  471  12.443   2.367   8.615 -0.2791  0.1099  0.1787
   30loPI   C2A  472  12.267   2.107   8.311  0.3193 -0.3138 -0.2786
   30loPI   C3A  473  12.266   1.975   7.984  0.0824  0.0419  0.1075
   30loPI   C4A  474  12.238   1.908   7.551  0.1042  0.1269 -0.1608
   30loPI   C5A  475  11.861   1.954   7.224 -0.0112 -0.0811  0.1079
   30loPI   C6A  476  11.492   1.937   7.061 -0.0381 -0.2540  0.0907
   30loPI   C1B  477  12.856   3.094   8.554 -0.0034  0.0128  0.0415
   30loPI   C2B  478  12.895   3.065   8.069 -0.3627  0.0071 -0.1025
   30loPI   C3B  479  13.076   3.129   7.694 -0.0923  0.1355  0.1180
   30loPI   C4B  480  13.138   3.194   7.262 -0.3242 -0.2097 -0.0974
   31loPI    C1  481   7.770  18.218   9.638  0.1963  0.0836 -0.2887
   31loPI    C2  482   7.721  18.569   9.825  0.1226 -0.0796  0.0049
   31loPI    C3  483   7.436  18.430   9.582  0.1263  0.0355 -0.0657
   31loPI   PO4  484   8.018  18.231   9.467 -0.1470  0.3065 -0.0771
   31loPI   GL1  485   8.201  18.193   9.046  0.3775  0.0412  0.1593
   31loPI   GL2  486   8.042  17.873   9.082  0.3645  0.0345  0.1392
   31loPI   C1A  487   8.273  18.342   8.612  0.1303  0.3350 -0.3481
   31loPI   C2A  488   8.392  18.263   8.181 -0.0026  0.1342  0.0207
   31loPI   C3A  489   8.608  18.134   7.778  0.3356 -0.0990  0.0798
   31loPI   C4A  490   8.626  17.873   7.374 -0.0590 -0.1485  0.2343
   31loPI   C5A  491   8.822  17.666   7.116  0.0186  0.1242 -0.2179
   31loPI   C6A  492   8.781  17.605   6.718 -0.2356 -0.0307  0.0102
   31loPI   C1B  493   8.153  17.847   8.603  0.0802  0.2810  0.4241
   31loPI   C2B  494   8.053  17.856   8.143  0.1352  0.1091  0.0114
   31loPI   C3B  495   8.130  17.866   7.730 -0.1823 -0.1983 -0.1322
   31loPI   C4B  496   8.116  18.016   7.322 -0.1557  0.0231  0.1549
   32loPI    C1  497  13.192   7.276   9.807 -0.2685 -0.0085 -0.4695
   32loPI    C2  498  13.197   6.964  10.057  0.2235  0.2325 -0.1641
   32loPI    C3  499  12.878   7.206  10.046  0.2213  0.2598  0.2895
   32loPI   PO4  500  13.302   7.199   9.544  0.1155  0.0594  0.0571
   32loPI   GL1  501  13.345   7.015   9.206  0.1123  0.0718 -0.2825
   32loPI   GL2  502  12.966   7.187   9.128  0.2038  0.2193  0.2562
   32loPI   C1A  503  13.334   7.174   8.757 -0.0346  0.4256  0.0518
   32loPI   C2A  504  13.464   7.021   8.296 -0.0248 -0.0481  0.0092
   32loPI   C3A  505  13.488   7.296   7.872 -0.1068  0.0165  0.1666
   32loPI   C4A  506  13.471   7.596   7.544  0.1341  0.2627 -0.0830
   32loPI   C5A  507  13.852   7.632   7.253 -0.0107 -0.2934  0.2188
   32loPI   C6A  508  13.983   7.219   7.122  0.2634 -0.1733 -0.1012
   32loPI   C1B  509  12.768   7.230   8.669  0.1228  0.0528  0.3472
   32loPI   C2B  510  12.742   7.125   8.164  0.4062 -0.0103  0.3179
   32loPI   C3B  511  12.872   7.194   7.727 -0.0386 -0.1508 -0.1099
   32loPI   C4B  512  13.032   7.454   7.346  0.3963 -0.1043  0.1428
   33loPI    C1  513   6.855   3.238  10.282 -0.1997 -0.2733 -0.1045
   33loPI    C2  514   6.667   3.574  10.390  0.2440 -0.0215 -0.0902
   33loPI    C3  515   6.609   3.237  10.597 -0.1386  0.0633 -0.0514
   33loPI   PO4  516   6.836   3.304   9.937  0.0490  0.1338 -0.1271
   33loPI   GL1  517   6.998   3.300   9.498 -0.0792 -0.0806  0.1663
   33loPI   GL2  518   6.606   3.387   9.464  0.0675 -0.2120 -0.0108
   33loPI   C1A  519   7.218   3.103   9.098 -0.0884 -0.0413  0.0495
   33loPI   C2A  520   7.160   2.966   8.682 -0.2579  0.0352 -0.2202
   33loPI   C3A  521   6.943   2.994   8.244  0.0844  0.1379  0.2278
   33loPI   C4A  522   6.683   3.050   7.810  0.2159  0.0495 -0.2662
   33loPI   C5A  523   6.572   3.468   7.664  0.0400 -0.1271 -0.3051
   33loPI   C6A  524   6.480   3.831   7.361  0.2888 -0.0683 -0.4315
   33loPI   C1B  525   6.717   3.009   9.089 -0.1383  0.1546 -0.6676
   33loPI   C2B  526   6.501   3.002   8.718  0.1247  0.1349 -0.1843
   33loPI   C3B  527   6.398   2.974   8.339 -0.1134  0.4571  0.1730
   33loPI   C4B  528   6.253   3.255   8.060  0.2476 -0.2406  0.1124
   34loPI    C1  529  16.922   5.980  10.384  0.0572  0.0959  0.1178
   34loPI    C2  530  16.610   5.730  10.368  0.0349  0.1059  0.3536
   34loPI    C3  531  16.552   6.125  10.343  0.0701  0.0915 -0.0189
   34loPI   PO4  532  17.099   5.951  10.174  0.2392  0.0453 -0.1112
   34loPI   GL1  533  17.105   6.150   9.742  0.1130  0.0086  0.0962
   34loPI   GL2  534  16.760   6.041   9.821  0.0500 -0.0238  0.1478
   34loPI   C1A  535  17.136   6.026   9.332  0.1502  0.2975 -0.0707
   34loPI   C2A  536  17.224   5.685   9.011 -0.1387 -0.1170 -0.1553
   34loPI   C3A  537  17.341   5.561   8.554  0.1505  0.2089 -0.1045
   34loPI   C4A  538  17.334   5.502   8.154 -0.0903 -0.1839  0.1056
   34loPI   C5A  539  17.368   5.758   7.788  0.3706 -0.0663  0.0623
   34loPI   C6A  540  17.416   6.207   7.811 -0.0632 -0.1699  0.3550
   34loPI   C1B  541  16.685   6.059   9.427 -0.3945 -0.1775 -0.0991
   34loPI   C2B  542  16.841   6.018   8.947 -0.0954  0.2082  0.0259
   34loPI   C3B  543  17.275   6.118   8.753 -0.1035  0.1573 -0.0404
   34loPI   C4B  544  17.497   6.027   8.358 -0.1859 -0.0949 -0.0903
   35loPI    C1  545   5.171  17.847  10.226 -0.1935 -0.2768  0.0541
   35loPI    C2  546   4.775  17.896  10.255 -0.1790 -0.1716  0.0786
   35loPI    C3  547   4.999  17.872  10.586 -0.1551 -0.1485  0.0641
   35loPI   PO4  548   5.315  17.964   9.953 -0.0926  0.4099 -0.1637
   35loPI   GL1  549   5.338  17.738   9.568 -0.0801  0.0979 -0.2427
   35loPI   GL2  550   5.290  17.466   9.422  0.0757 -0.0752  0.0013
   35loPI   C1A  551   5.449  18.009   9.221 -0.2468 -0.4841  0.1949
   35loPI   C2A  552   5.400  18.097   8.799  0.1855  0.0160 -0.2843
   35loPI   C3A  553   5.448  18.018   8.316  0.1883 -0.0103 -0.2040
   35loPI   C4A  554   5.549  18.045   7.849  0.0068 -0.2527 -0.1233
   35loPI   C5A  555   5.699  18.293   7.473  0.1755  0.1287 -0.0928
   35loPI   C6A  556   6.110  18.517   7.467  0.0241  0.1350 -0.1683
   35loPI   C1B  557   5.438  17.271   9.085  0.2465  0.0239 -0.0473
   35loPI   C2B  558   5.348  17.237   8.778 -0.1817 -0.0228  0.4377
   35loPI   C3B  559   5.448  17.299   8.385 -0.0745  0.2024 -0.1718
   35loPI   C4B  560   5.375  17.259   7.944 -0.5070  0.0141  0.1254
   36loPI    C1  561  15.827   0.978   9.465  0.1771 -0.0095 -0.1858
   36loPI    C2  562  16.175   0.850   9.617 -0.0479 -0.3626  0.0463
   36loPI    C3  563  15.970   1.140   9.802  0.1483 -0.1102 -0.1248
   36loPI   PO4  564  15.847   0.983   9.245  0.0594 -0.1321  0.0011
   36loPI   GL1  565  15.901   0.699   8.920  0.2384  0.0594 -0.1122
   36loPI   GL2  566  15.666   0.464   8.759 -0.0938  0.0698  0.3237
   36loPI   C1A  567  16.084   0.794   8.500 -0.0059 -0.3702 -0.1113
   36loPI   C2A  568  16.007   0.825   8.098 -0.0921  0.2289  0.0723
   36loPI   C3A  569  16.146   0.822   7.627  0.0300  0.1098  0.2161
   36loPI   C4A  570  16.054   0.811   7.297  0.1333 -0.5069  0.3108
   36loPI   C5A  571  15.780   0.821   7.071 -0.3226  0.1146 -0.0915
   36loPI   C6A  572  15.447   0.863   6.785 -0.2191 -0.2155  0.1176
   36loPI   C1B  573  15.598   0.535   8.279 -0.0561 -0.0436  0.3168
   36loPI   C2B  574  15.525   0.965   8.145 -0.1781 -0.0196  0.1170
   36loPI   C3B  575  15.391   1.136   7.726  0.2612 -0.1319 -0.0202
   36loPI   C4B  576  15.436   1.263   7.215  0.0954  0.0565 -0.0179
   37loPI    C1  577  12.505  10.382   9.885  0.2855  0.0291  0.0858
   37loPI    C2  578  12.455  10.063  10.121  0.1375  0.0260  0.0514
   37loPI    C3  579  12.209  10.377  10.154  0.2038  0.0841 -0.0021
   37loPI   PO4  580  12.531  10.365   9.721 -0.0914 -0.0603 -0.0041
   37loPI   GL1  581  12.653  10.310   9.277 -0.2236 -0.0335 -0.2233
   37loPI   GL2  582  12.966  10.367   9.260  0.2829  0.3225 -0.0644
   37loPI   C1A  583  12.284  10.389   8.940  0.0553 -0.0123 -0.2289
   37loPI   C2A  584  12.299  10.443   8.471 -0.0088  0.0915 -0.1187
   37loPI   C3A  585  12.437  10.611   8.035 -0.0468  0.1605  0.0437
   37loPI   C4A  586  12.477  10.615   7.639  0.2799  0.2624 -0.1444
   37loPI   C5A  587  12.662  10.425   7.212 -0.2755 -0.1839 -0.0801
   37loPI   C6A  588  12.826  10.521   6.863 -0.0991 -0.2599 -0.1518
   37loPI   C1B  589  12.902  10.219   8.835  0.2462 -0.2677  0.1853
   37loPI   C2B  590  12.902  10.096   8.432  0.1592  0.1251 -0.0503
   37loPI   C3B  591  12.750  10.181   8.045  0.2726  0.0123 -0.1526
   37loPI   C4B  592  12.907  10.398   7.696 -0.1664  0.1132 -0.0713
   38loPI    C1  593   7.941   8.109  10.065 -0.1002 -0.3882 -0.1446
   38loPI    C2  594   7.649   8.378  10.018  0.1553 -0.0606  0.0963
   38loPI    C3  595   7.621   8.101  10.305  0.0733 -0.0416  0.1069
   38loPI   PO4  596   7.957   7.912   9.819  0.2385  0.3223  0.2535
   38loPI   GL1  597   7.986   8.058   9.460 -0.1207  0.2217 -0.0274
   38loPI   GL2  598   7.712   8.249   9.530 -0.1534 -0.3142 -0.1185
   38loPI   C1A  599   7.987   7.952   9.056  0.1180 -0.2834  0.4223
   38loPI   C2A  600   8.120   8.077   8.669 -0.0496  0.0717 -0.2164
   38loPI   C3A  601   8.443   7.941   8.410 -0.4087  0.0342  0.0259
   38loPI   C4A  602   8.416   7.984   7.954  0.0978  0.1264 -0.0197
   38loPI   C5A  603   8.481   8.082   7.409  0.1633  0.0488 -0.0154
   38loPI   C6A  604   8.433   8.395   7.100  0.0263  0.3359 -0.1316
   38loPI   C1B  605   7.653   8.288   9.097 -0.3736 -0.1981 -0.0024
   38loPI   C2B  606   7.586   8.207   8.663 -0.1499 -0.2038 -0.1045
   38loPI   C3B  607   7.465   8.083   8.286  0.0392  0.3367 -0.0461
   38loPI   C4B  608   7.513   7.738   7.985 -0.1531  0.0581  0.1680
   39loPI    C1  609  15.678  15.679   9.560 -0.0837  0.0516 -0.2645
   39loPI    C2  610  16.001  15.694   9.796 -0.2415  0.3122 -0.0594
   39loPI    C3  611  15.650  15.573   9.944 -0.1833 -0.2515 -0.3524
   39loPI   PO4  612  15.896  15.819   9.367 -0.0357  0.0544 -0.0699
   39loPI   GL1  613  15.849  16.096   8.943 -0.0222  0.0135 -0.1633
   39loPI   GL2  614  15.858  16.383   8.729  0.0077 -0.2020  0.4375
   39loPI   C1A  615  15.731  15.877   8.586  0.1913 -0.0358  0.0468
   39loPI   C2A  616  15.721  15.999   8.141 -0.0429  0.0027  0.1162
   39loPI   C3A  617  15.697  16.134   7.860 -0.0147  0.2386  0.0384
   39loPI   C4A  618  15.693  16.376   7.574  0.0068  0.0838  0.0447
   39loPI   C5A  619  15.408  16.581   7.336  0.1504 -0.1809  0.0936
   39loPI   C6A  620  15.256  16.559   6.927 -0.0252 -0.0104 -0.0734
   39loPI   C1B  621  15.847  16.472   8.271  0.0065  0.1505 -0.2735
   39loPI   C2B  622  16.098  16.404   7.871  0.1758  0.0058 -0.0927
   39loPI   C3B  623  16.282  16.408   7.425  0.0754  0.1943  0.1782
   39loPI   C4B  624  16.251  16.047   7.064  0.0102  0.0246 -0.2975
   40loPI    C1  625   7.167   8.123  10.054 -0.0036  0.0951  0.0407
   40loPI    C2  626   6.986   7.769  10.018 -0.0120  0.1009  0.0259
   40loPI    C3  627   6.921   7.995  10.342  0.0488  0.0573  0.0688
   40loPI   PO4  628   7.223   8.247   9.813 -0.3391 -0.3874 -0.0964
   40loPI   GL1  629   7.166   8.463   9.427  0.0753  0.1030 -0.1018
   40loPI   GL2  630   7.087   8.748   9.629 -0.2107 -0.0885  0.2849
   40loPI   C1A  631   7.202   8.301   9.029 -0.0416 -0.2387 -0.1036
   40loPI   C2A  632   7.182   7.908   8.736  0.2618  0.0151 -0.2690
   40loPI   C3A  633   7.025   7.817   8.380  0.1396  0.1100  0.1196
   40loPI   C4A  634   7.046   8.024   8.011  0.0510  0.1713  0.2750
   40loPI   C5A  635   6.990   8.168   7.568 -0.3897  0.1828  0.2199
   40loPI   C6A  636   6.779   8.317   7.192 -0.0813 -0.1281 -0.3919
   40loPI   C1B  637   7.208   8.909   9.186 -0.2484  0.2149 -0.0028
   40loPI   C2B  638   7.304   9.096   8.711  0.1163 -0.1525 -0.1579
   40loPI   C3B  639   7.250   9.053   8.275  0.1106  0.0396 -0.3575
   40loPI   C4B  640   7.587   8.994   7.923  0.2111  0.0026 -0.1613
   41loPI    C1  641   7.714   4.992   9.845  0.1025  0.0439  0.1890
   41loPI    C2  642   8.076   4.872   9.965  0.0394 -0.4169 -0.0592
   41loPI    C3  643   7.762   4.838  10.211  0.1275 -0.1943  0.0872
   41loPI   PO4  644   7.767   5.228   9.740  0.0104  0.1230  0.0635
   41loPI   GL1  645   7.694   5.487   9.442 -0.1633  0.1041  0.2200
   41loPI   GL2  646   8.027   5.460   9.430  0.5484 -0.3930  0.0888
   41loPI   C1A  647   7.705   5.510   9.064 -0.0283  0.4301  0.0191
   41loPI   C2A  648   7.688   5.605   8.706 -0.0226  0.0290 -0.0653
   41loPI   C3A  649   7.567   6.023   8.308 -0.0969  0.0631 -0.0800
   41loPI   C4A  650   7.714   6.018   7.921  0.1851  0.0324  0.2325
   41loPI   C5A  651   7.634   5.735   7.585  0.3467  0.3782  0.2065
   41loPI   C6A  652   7.383   5.573   7.355  0.1396 -0.0646  0.0860
   41loPI   C1B  653   8.241   5.782   9.215 -0.1195 -0.1339  0.2536
   41loPI   C2B  654   8.168   5.855   8.720  0.0062 -0.0464 -0.2442
   41loPI   C3B  655   8.048   5.955   8.234  0.1341 -0.0390  0.1947
   41loPI   C4B  656   8.261   6.071   7.919 -0.3284 -0.1943  0.3305
   42loPI    C1  657   8.126  16.005   9.666 -0.0895  0.0989 -0.1925
   42loPI    C2  658   8.317  15.890   9.333  0.1100 -0.0340 -0.0344
   42loPI    C3  659   8.308  15.649   9.652 -0.0505  0.1070  0.0695
   42loPI   PO4  660   8.179  16.213   9.679 -0.1382 -0.1194  0.0798
   42loPI   GL1  661   8.144  16.537   9.319 -0.0566 -0.1089  0.0678
   42loPI   GL2  662   8.199  16.826   9.107 -0.1219 -0.1390 -0.0342
   42loPI   C1A  663   8.219  16.352   8.924 -0.0215 -0.1069  0.3427
   42loPI   C2A  664   8.292  16.423   8.521 -0.1496  0.1277 -0.0682
   42loPI   C3A  665   8.149  16.065   8.232 -0.2361  0.2729  0.0907
   42loPI   C4A  666   8.280  16.025   7.860  0.2650 -0.0465  0.0903
   42loPI   C5A  667   8.313  16.007   7.384 -0.3836 -0.2497  0.1310
   42loPI   C6A  668   8.186  15.767   6.996  0.2695  0.1918  0.1324
   42loPI   C1B  669   7.953  16.910   8.860 -0.1215  0.0534  0.1541
   42loPI   C2B  670   7.698  16.734   8.529  0.0205 -0.1462 -0.0416
   42loPI   C3B  671   7.474  16.682   8.150 -0.2279  0.2652  0.2523
   42loPI   C4B  672   7.510  16.522   7.869 -0.2099 -0.0379 -0.1550
   43loPI    C1  673  11.129   0.249   9.499 -0.2714  0.1677 -0.1932
   43loPI    C2  674  10.850   0.147   9.767  0.0863 -0.1479  0.0709
   43loPI    C3  675  11.156   0.381   9.875  0.2324 -0.2754 -0.0606
   43loPI   PO4  676  11.041   0.323   9.294  0.1469 -0.1045 -0.0254
   43loPI   GL1  677  10.728   0.346   8.921 -0.1234 -0.3463  0.1040
   43loPI   GL2  678  11.064   0.462   8.736 -0.1436 -0.0850  0.1234
   43loPI   C1A  679  10.737   0.231   8.497 -0.1188  0.0477 -0.1100
   43loPI   C2A  680  10.637   0.080   8.162  0.1830 -0.2825 -0.0537
   43loPI   C3A  681  10.416   0.024   7.835  0.0947 -0.0726 -0.1257
   43loPI   C4A  682  10.453   0.093   7.431 -0.1806  0.1189  0.2050
   43loPI   C5A  683  10.714  -0.139   7.176 -0.2141  0.1752  0.0577
   43loPI   C6A  684  10.788  -0.531   7.029 -0.2857 -0.1463  0.2660
   43loPI   C1B  685  11.299   0.153   8.547  0.0554 -0.1515  0.2203
   43loPI   C2B  686  11.275   0.259   8.119 -0.0525 -0.0700  0.2353
   43loPI   C3B  687  11.510   0.449   7.696 -0.0792 -0.0704 -0.1997
   43loPI   C4B  688  11.903   0.582   7.570  0.2722  0.3392  0.0612
   44loPI    C1  689  11.489   6.646   9.802 -0.0637 -0.0134  0.0979
   44loPI    C2  690  11.272   6.749  10.122 -0.1403 -0.3007  0.1409
   44loPI    C3  691  11.389   6.369  10.073  0.2084 -0.1829  0.0294
   44loPI   PO4  692  11.507   6.800   9.671 -0.1045  0.0580  0.3751
   44loPI   GL1  693  11.312   7.056   9.363 -0.0054  0.1113 -0.0400
   44loPI   GL2  694  10.944   7.039   9.368  0.2084 -0.0995 -0.0829
   44loPI   C1A  695  11.308   6.990   8.956  0.1985  0.2635 -0.1876
   44loPI   C2A  696  11.148   6.964   8.584  0.3093 -0.1315 -0.1053
   44loPI   C3A  697  10.920   6.834   8.221  0.2616  0.0287  0.0566
   44loPI   C4A  698  10.763   7.073   7.868  0.0602 -0.2399  0.1576
   44loPI   C5A  699  10.394   7.184   7.637 -0.0830  0.2624 -0.0011
   44loPI   C6A  700  10.093   6.943   7.377 -0.0906  0.2649  0.2410
   44loPI   C1B  701  10.802   7.020   8.961 -0.0309  0.0051 -0.1641
   44loPI   C2B  702  10.616   7.201   8.554 -0.0787  0.0422 -0.0502
   44loPI   C3B  703  10.412   6.911   8.200 -0.1619 -0.1658 -0.1034
   44loPI   C4B  704  10.039   7.023   7.944 -0.1533  0.0385 -0.0735
   45loPI    C1  705  14.782   9.064   9.663 -0.1738 -0.1192  0.0803
   45loPI    C2  706  15.012   9.005   9.985 -0.2768 -0.1526  0.1481
   45loPI    C3  707  14.619   8.937  10.005 -0.3173  0.0528  0.0771
   45loPI   PO4  708  14.882   9.000   9.442 -0.1028 -0.0876  0.0846
   45loPI   GL1  709  14.687   9.067   9.030  0.0278  0.1437 -0.0452
   45loPI   GL2  710  14.671   8.778   9.069  0.2157 -0.2421 -0.1303
   45loPI   C1A  711  14.303   9.188   8.790 -0.1056  0.0528 -0.0582
   45loPI   C2A  712  14.243   9.303   8.413  0.1099 -0.1012 -0.2972
   45loPI   C3A  713  14.298   9.133   8.033  0.0558 -0.4055 -0.3897
   45loPI   C4A  714  14.074   8.716   7.884  0.1803 -0.0268  0.0499
   45loPI   C5A  715  14.090   8.482   7.476  0.2509 -0.0932  0.2022
   45loPI   C6A  716  14.187   8.276   7.048 -0.2151 -0.0508 -0.0057
   45loPI   C1B  717  14.595   8.703   8.645  0.2028  0.1186 -0.0160
   45loPI   C2B  718  14.565   8.746   8.324 -0.1900  0.1529 -0.3407
   45loPI   C3B  719  14.680   8.713   7.819  0.1659  0.1121  0.0621
   45loPI   C4B  720  14.938   8.833   7.433  0.2168  0.2406 -0.1502
   46loPI    C1  721  13.344  12.879   9.529  0.1923 -0.3470 -0.1248
   46loPI    C2  722  13.570  13.043   9.815 -0.0560  0.2044 -0.2326
   46loPI    C3  723  13.268  12.800   9.914  0.1039  0.0769 -0.0503
   46loPI   PO4  724  13.556  12.803   9.311 -0.1463 -0.0971 -0.2356
   46loPI   GL1  725  13.574  12.649   8.950  0.1584 -0.1834  0.0156
   46loPI   GL2  726  13.466  12.316   9.006  0.2486 -0.0493 -0.0525
   46loPI   C1A  727  13.875  12.453   8.595 -0.0308  0.1193  0.1994
   46loPI   C2A  728  13.840  12.378   8.158 -0.0553  0.1476  0.2234
   46loPI   C3A  729  13.739  12.403   7.734  0.0430  0.1747  0.1854
   46loPI   C4A  730  13.605  12.164   7.365 -0.3401 -0.1048 -0.1157
   46loPI   C5A  731  13.176  11.977   7.246  0.1242 -0.0838 -0.0246
   46loPI   C6A  732  12.758  11.953   7.014 -0.1091 -0.2142  0.0306
   46loPI   C1B  733  13.346  12.195   8.556  0.2117  0.4017 -0.0281
   46loPI   C2B  734  13.365  12.167   8.077  0.0179  0.0391 -0.0820
   46loPI   C3B  735  13.145  12.320   7.716 -0.6934 -0.1298 -0.1010
   46loPI   C4B  736  12.972  12.738   7.554  0.1936  0.0923  0.2185
   47loPI    C1  737   2.611   9.024   9.970  0.0740  0.0113 -0.0435
   47loPI    C2  738   2.687   9.068  10.360 -0.0484  0.0103 -0.0192
   47loPI    C3  739   2.317   8.979  10.237 -0.0248  0.0770 -0.1403
   47loPI   PO4  740   2.721   9.220   9.896  0.2985 -0.0863  0.1927
   47loPI   GL1  741   3.057   9.283   9.696  0.0339 -0.1246 -0.1230
   47loPI   GL2  742   2.919   9.166   9.397 -0.0076  0.1565 -0.4372
   47loPI   C1A  743   3.070   9.706   9.340 -0.3536 -0.1495 -0.1966
   47loPI   C2A  744   2.989  10.079   9.211  0.1200  0.1256 -0.0954
   47loPI   C3A  745   3.111  10.410   9.049 -0.1916 -0.0311  0.3367
   47loPI   C4A  746   3.278  10.485   8.695  0.1546 -0.0962  0.3733
   47loPI   C5A  747   3.494  10.177   8.400  0.0111 -0.0186 -0.2374
   47loPI   C6A  748   3.344   9.932   8.031  0.1096  0.2725 -0.3731
   47loPI   C1B  749   2.718   8.867   9.108  0.3060 -0.5105  0.1692
   47loPI   C2B  750   2.446   8.711   8.687 -0.1736 -0.1870 -0.2300
   47loPI   C3B  751   2.358   8.965   8.286 -0.1410 -0.0221 -0.1306
   47loPI   C4B  752   2.198   9.017   7.826  0.1193 -0.4400  0.5430
   48loPI    C1  753   8.851   7.656  10.191  0.1895  0.1307  0.0241
   48loPI    C2  754   8.650   7.975  10.327  0.1089  0.0926 -0.0053
   48loPI    C3  755   8.965   7.835  10.530  0.1277  0.1743  0.0219
   48loPI   PO4  756   8.852   7.753   9.835 -0.2390 -0.1004 -0.0729
   48loPI   GL1  757   8.816   7.817   9.435 -0.1257  0.0365  0.0413
   48loPI   GL2  758   8.483   7.876   9.408  0.0094  0.0344 -0.0966
   48loPI   C1A  759   8.718   7.489   9.147 -0.4262 -0.1408 -0.1058
   48loPI   C2A  760   8.571   7.250   8.744  0.2408  0.0390 -0.1435
   48loPI   C3A  761   8.626   7.002   8.388  0.3278  0.2443  0.2904
   48loPI   C4A  762   8.846   6.940   7.977  0.2850 -0.0014 -0.4433
   48loPI   C5A  763   8.889   7.219   7.582  0.0828 -0.3725 -0.0546
   48loPI   C6A  764   9.121   7.150   7.182  0.0309 -0.1512 -0.0020
   48loPI   C1B  765   8.488   7.841   8.923  0.0287 -0.0237 -0.0219
   48loPI   C2B  766   8.802   7.666   8.643  0.1046 -0.0368 -0.0394
   48loPI   C3B  767   8.615   7.494   8.249 -0.0514 -0.2269  0.2277
   48loPI   C4B  768   8.532   7.295   7.895  0.3612 -0.2750  0.1108
   49loPI    C1  769  13.785   6.001   9.828  0.0413 -0.0085  0.1776
   49loPI    C2  770  13.484   5.848   9.614  0.0896  0.0376  0.0760
   49loPI    C3  771  13.416   5.990   9.981 -0.0020 -0.0027  0.0748
   49loPI   PO4  772  14.007   5.789   9.732 -0.0781  0.2588 -0.2564
   49loPI   GL1  773  13.847   5.611   9.370 -0.1001  0.2826 -0.1594
   49loPI   GL2  774  14.027   5.416   9.310  0.1319 -0.0174  0.2485
   49loPI   C1A  775  13.650   5.794   8.991 -0.0780 -0.4876  0.2519
   49loPI   C2A  776  13.538   5.766   8.532 -0.0601 -0.1291 -0.0997
   49loPI   C3A  777  13.926   5.757   8.217  0.1284  0.1524  0.1617
   49loPI   C4A  778  14.360   5.951   8.293  0.1204  0.2976  0.0463
   49loPI   C5A  779  14.663   5.840   8.506  0.1622  0.1584 -0.0679
   49loPI   C6A  780  14.727   5.437   8.686  0.0991 -0.1412 -0.2593
   49loPI   C1B  781  13.861   5.361   8.841  0.0955  0.2574 -0.2645
   49loPI   C2B  782  13.795   5.324   8.401  0.1065  0.1357 -0.0887
   49loPI   C3B  783  13.545   5.500   8.060  0.2944 -0.1227  0.1584
   49loPI   C4B  784  13.213   5.540   7.719 -0.3240 -0.2232  0.2103
   50loPI    C1  785   6.252  17.418   9.826  0.0009  0.1984 -0.0478
   50loPI    C2  786   6.098  17.573  10.160 -0.2384  0.0376 -0.0811
   50loPI    C3  787   6.409  17.323  10.181 -0.2951 -0.0247  0.0275
   50loPI   PO4  788   6.244  17.654   9.673  0.0553 -0.0914 -0.1743
   50loPI   GL1  789   6.309  17.637   9.283 -0.0563  0.3430 -0.2191
   50loPI   GL2  790   6.675  17.600   9.390  0.3484  0.2117 -0.1076
   50loPI   C1A  791   6.218  17.588   8.793 -0.3550 -0.1630 -0.0846
   50loPI   C2A  792   6.246  17.692   8.402 -0.0552  0.0216 -0.0348
   50loPI   C3A  793   6.133  17.656   7.976  0.1364 -0.1046 -0.2015
   50loPI   C4A  794   6.273  17.641   7.515  0.0954 -0.2756  0.0449
   50loPI   C5A  795   6.377  17.361   7.164  0.2948  0.0337 -0.4695
   50loPI   C6A  796   6.246  17.090   6.829 -0.0707 -0.0382 -0.1667
   50loPI   C1B  797   6.772  17.626   9.017  0.0646 -0.0109  0.3646
   50loPI   C2B  798   6.710  17.647   8.521  0.3165 -0.0870  0.3200
   50loPI   C3B  799   6.604  17.913   8.181 -0.3855 -0.0891 -0.2616
   50loPI   C4B  800   6.766  17.839   7.753 -0.1226  0.2189 -0.2834
   51loPI    C1  801  16.589   0.448   9.628 -0.1960  0.1067  0.0971
   51loPI    C2  802  16.266   0.417   9.861 -0.1613  0.4152  0.1902
   51loPI    C3  803  16.626   0.318  10.004 -0.2013  0.1459  0.1111
   51loPI   PO4  804  16.509   0.400   9.411 -0.0548  0.2405 -0.3060
   51loPI   GL1  805  16.332   0.329   9.018 -0.1139  0.2241 -0.1701
   51loPI   GL2  806  16.064   0.184   8.935  0.1771 -0.0841 -0.0737
   51loPI   C1A  807  16.540   0.708   8.662  0.2705  0.1463  0.0084
   51loPI   C2A  808  16.497   1.014   8.284  0.2279 -0.1977  0.0551
   51loPI   C3A  809  16.794   1.209   7.971  0.0585 -0.2436  0.1585
   51loPI   C4A  810  17.071   0.996   7.651  0.0583  0.1745 -0.0245
   51loPI   C5A  811  17.169   0.857   7.203  0.0286  0.1344  0.1786
   51loPI   C6A  812  17.408   1.063   6.899  0.2995 -0.2154 -0.2953
   51loPI   C1B  813  16.042   0.170   8.514 -0.1091 -0.0775 -0.2140
   51loPI   C2B  814  16.123   0.267   8.074  0.3873  0.0569 -0.1331
   51loPI   C3B  815  15.823   0.344   7.875  0.3140 -0.3680 -0.1830
   51loPI   C4B  816  15.644   0.711   7.660 -0.1785 -0.1290  0.3431
   52loPI    C1  817  15.239  14.788  10.031  0.1827  0.3334  0.0690
   52loPI    C2  818  14.849  14.879  10.045  0.1836  0.3471  0.0082
   52loPI    C3  819  15.042  14.772  10.379  0.0485  0.0086 -0.0179
   52loPI   PO4  820  15.245  14.796   9.766  0.2873  0.2584  0.2058
   52loPI   GL1  821  15.150  14.576   9.386 -0.1088  0.1080  0.2137
   52loPI   GL2  822  15.301  14.851   9.231  0.2156 -0.0911 -0.1725
   52loPI   C1A  823  15.206  14.406   8.939  0.1376 -0.0497  0.2567
   52loPI   C2A  824  15.341  14.558   8.488 -0.2792 -0.0679 -0.1566
   52loPI   C3A  825  15.448  14.681   7.993 -0.1486  0.0359 -0.1967
   52loPI   C4A  826  15.338  14.772   7.629  0.2777 -0.0717 -0.0021
   52loPI   C5A  827  14.890  14.742   7.596  0.1787 -0.0201 -0.1098
   52loPI   C6A  828  14.436  14.665   7.578 -0.1804  0.1140  0.2809
   52loPI   C1B  829  15.277  14.978   8.798 -0.1954  0.1575  0.1258
   52loPI   C2B  830  15.208  15.017   8.314  0.1914 -0.0074 -0.0498
   52loPI   C3B  831  15.331  15.148   7.918 -0.0363  0.0830  0.0821
   52loPI   C4B  832  15.582  15.288   7.622  0.2572  0.2303  0.1988
   53loPI    C1  833  15.019   4.623   9.902  0.1920 -0.0509 -0.2439
   53loPI    C2  834  14.658   4.711   9.753  0.1256  0.2259  0.0689
   53loPI    C3  835  14.701   4.640  10.145  0.3558 -0.1467 -0.0191
   53loPI   PO4  836  15.152   4.562   9.616  0.2830  0.2489 -0.1777
   53loPI   GL1  837  15.156   4.751   9.282  0.0475  0.1574  0.2000
   53loPI   GL2  838  14.992   4.995   9.391 -0.1621  0.2779 -0.0283
   53loPI   C1A  839  15.189   4.542   8.934  0.0494 -0.2605  0.0348
   53loPI   C2A  840  15.392   4.679   8.462 -0.0756 -0.0733 -0.2351
   53loPI   C3A  841  15.114   4.804   8.050  0.2956 -0.0400 -0.0766
   53loPI   C4A  842  15.071   5.182   7.824 -0.0080 -0.0780 -0.0558
   53loPI   C5A  843  15.099   5.609   7.685  0.2806  0.2371 -0.2382
   53loPI   C6A  844  14.869   5.924   7.405 -0.1563  0.1161 -0.0286
   53loPI   C1B  845  15.054   5.175   9.046 -0.0009 -0.0007  0.0771
   53loPI   C2B  846  15.290   5.127   8.681 -0.0844  0.0205  0.1585
   53loPI   C3B  847  15.407   5.182   8.343  0.0985 -0.1560  0.1253
   53loPI   C4B  848  15.495   5.409   8.019  0.2182 -0.0662  0.0942
   54loPI    C1  849   0.300   1.759   9.414 -0.0557 -0.0148 -0.1044
   54loPI    C2  850   0.281   1.572   9.767  0.1702  0.1194 -0.0190
   54loPI    C3  851   0.367   1.365   9.436 -0.2276 -0.0405 -0.0272
   54loPI   PO4  852   0.185   2.004   9.403 -0.2539 -0.1247  0.0851
   54loPI   GL1  853   0.009   1.947   9.020 -0.0122  0.2600 -0.2371
   54loPI   GL2  854   0.174   1.566   8.962  0.0823  0.4548 -0.0736
   54loPI   C1A  855  -0.026   1.774   8.580  0.0304 -0.2336  0.3790
   54loPI   C2A  856  -0.224   2.122   8.399  0.0590 -0.1183  0.2345
   54loPI   C3A  857  -0.532   2.199   8.148 -0.2940  0.2703 -0.0611
   54loPI   C4A  858  -0.687   2.254   7.777 -0.0282  0.1842 -0.0722
   54loPI   C5A  859  -0.920   2.364   7.291  0.1310  0.0277 -0.0495
   54loPI   C6A  860  -0.853   2.065   6.896  0.0486 -0.2817 -0.1443
   54loPI   C1B  861   0.459   1.409   8.577 -0.1223 -0.0244  0.0248
   54loPI   C2B  862   0.847   1.656   8.502 -0.1050 -0.0717  0.0221
   54loPI   C3B  863   1.234   1.721   8.222  0.4903  0.1139 -0.0621
   54loPI   C4B  864   1.386   1.728   7.809 -0.0715 -0.1051  0.1687
   55loPI    C1  865  16.484   8.264  10.428  0.2089 -0.1512 -0.0032
   55loPI    C2  866  16.605   8.025  10.725 -0.0159 -0.1117  0.1233
   55loPI    C3  867  16.269   8.238  10.764  0.0309  0.0076 -0.1024
   55loPI   PO4  868  16.465   8.118  10.161 -0.2592  0.1054  0.1060
   55loPI   GL1  869  16.539   8.123   9.769  0.1245  0.0518 -0.0685
   55loPI   GL2  870  16.814   8.180   9.635 -0.5649 -0.1445  0.0394
   55loPI   C1A  871  16.526   8.061   9.302  0.2688  0.2764 -0.0069
   55loPI   C2A  872  16.587   7.990   8.908 -0.3651 -0.0844 -0.2221
   55loPI   C3A  873  16.366   7.995   8.556 -0.0900 -0.1218  0.3389
   55loPI   C4A  874  16.426   8.134   8.172 -0.3264  0.0160 -0.2978
   55loPI   C5A  875  16.680   8.211   7.849  0.0606  0.3969  0.0388
   55loPI   C6A  876  16.615   8.296   7.439  0.3679 -0.2204 -0.0893
   55loPI   C1B  877  16.976   8.289   9.249  0.2703 -0.0623  0.0029
   55loPI   C2B  878  17.270   8.609   9.187 -0.0739  0.0664 -0.1613
   55loPI   C3B  879  17.409   8.805   8.830  0.0697  0.2618  0.2222
   55loPI   C4B  880  17.572   8.931   8.380  0.5713 -0.4123 -0.2463
   56loPI    C1  881  18.726   9.843  10.198 -0.1660 -0.2226 -0.0817
   56loPI    C2  882  18.663   9.574  10.487 -0.2010  0.0993  0.2161
   56loPI    C3  883  18.802   9.938  10.579 -0.2529  0.2205 -0.1692
   56loPI   PO4  884  18.823   9.668   9.935  0.0474  0.2421  0.0706
   56loPI   GL1  885  18.914   9.490   9.605 -0.0982 -0.2791 -0.0703
   56loPI   GL2  886  18.929   9.322   9.425  0.0102 -0.2283  0.0364
   56loPI   C1A  887  19.077   9.644   9.098  0.2649  0.2226  0.6294
   56loPI   C2A  888  19.156   9.643   8.622 -0.1076  0.0090 -0.0699
   56loPI   C3A  889  18.925   9.861   8.236 -0.1562  0.2205  0.1298
   56loPI   C4A  890  18.699  10.115   7.985 -0.0167 -0.2121 -0.0921
   56loPI   C5A  891  18.794   9.977   7.510 -0.4690  0.0711  0.1010
   56loPI   C6A  892  18.874  10.234   7.112 -0.3455  0.2568 -0.1028
   56loPI   C1B  893  19.233   9.177   9.136  0.0751  0.2033  0.2574
   56loPI   C2B  894  19.364   9.104   8.724 -0.4431 -0.3314  0.3905
   56loPI   C3B  895  19.469   9.092   8.231  0.3031 -0.0630  0.1094
   56loPI   C4B  896  19.473   9.443   7.931  0.2732  0.0731  0.2127
   57loPI    C1  897  18.466  15.847   9.273  0.1593  0.0227  0.1059
   57loPI    C2  898  18.169  16.047   9.451  0.2945  0.2474  0.0832
   57loPI    C3  899  18.212  15.655   9.514 -0.1201  0.1735 -0.0623
   57loPI   PO4  900  18.474  15.969   9.028  0.1106  0.1928 -0.2232
   57loPI   GL1  901  18.595  15.774   8.644 -0.4342  0.1382  0.2365
   57loPI   GL2  902  18.587  15.562   8.748 -0.2519  0.0210 -0.1104
   57loPI   C1A  903  18.550  15.688   8.209  0.0954 -0.0088 -0.2852
   57loPI   C2A  904  18.617  15.303   7.940  0.0283  0.0530  0.1735
   57loPI   C3A  905  18.774  15.079   7.564  0.1111 -0.0093  0.0507
   57loPI   C4A  906  18.904  15.122   7.199 -0.0759  0.1902 -0.3927
   57loPI   C5A  907  18.944  15.034   6.740 -0.1024 -0.2106  0.2887
   57loPI   C6A  908  18.774  14.904   6.467 -0.0853  0.0368  0.0213
   57loPI   C1B  909  18.545  15.150   8.447 -0.0104 -0.0178 -0.0225
   57loPI   C2B  910  18.298  14.958   8.137 -0.1857 -0.0912 -0.0876
   57loPI   C3B  911  18.358  14.656   7.738 -0.4026 -0.0429  0.3287
   57loPI   C4B  912  18.564  14.684   7.304 -0.0956 -0.1585 -0.3573
   58loPI    C1  913  14.405   9.788   9.893  0.2992  0.1335  0.0826
   58loPI    C2  914  14.689   9.507   9.873 -0.1640 -0.3317 -0.1855
   58loPI    C3  915  14.500   9.577  10.219  0.0566 -0.2404 -0.0820
   58loPI   PO4  916  14.438   9.864   9.615  0.2006  0.1275 -0.0993
   58loPI   GL1  917  14.327   9.847   9.219 -0.1387 -0.0777 -0.0589
   58loPI   GL2  918  14.480   9.976   8.993  0.0273 -0.2607  0.4144
   58loPI   C1A  919  13.959  10.026   8.996  0.0714 -0.0818 -0.2163
   58loPI   C2A  920  13.680   9.865   8.703 -0.1912 -0.1688  0.1697
   58loPI   C3A  921  13.333   9.860   8.472  0.1255 -0.2710  0.2947
   58loPI   C4A  922  13.247   9.780   8.048 -0.2327  0.3040  0.1437
   58loPI   C5A  923  13.578   9.741   7.708  0.3274 -0.0144  0.3395
   58loPI   C6A  924  13.977   9.918   7.502  0.1777 -0.1936  0.3065
   58loPI   C1B  925  14.278   9.663   8.741 -0.4106  0.0149  0.0174
   58loPI   C2B  926  13.972   9.697   8.345 -0.0286 -0.0341  0.1144
   58loPI   C3B  927  13.733   9.905   8.181  0.2053  0.2798 -0.3910
   58loPI   C4B  928  13.687  10.280   8.335 -0.0604 -0.0847 -0.1458
   59loPI    C1  929   4.942   8.022  10.101  0.0850 -0.2419 -0.1890
   59loPI    C2  930   4.663   7.785  10.263  0.1188 -0.1672 -0.0194
   59loPI    C3  931   5.045   7.668  10.256  0.1219 -0.1573 -0.0171
   59loPI   PO4  932   4.678   8.216  10.013  0.0479 -0.1644 -0.0647
   59loPI   GL1  933   4.378   8.082   9.604  0.4168 -0.2316  0.2015
   59loPI   GL2  934   4.390   7.795   9.395 -0.1804 -0.1555 -0.0724
   59loPI   C1A  935   4.461   8.357   9.216  0.1238 -0.1426  0.1077
   59loPI   C2A  936   4.378   8.351   8.753  0.0787  0.1924 -0.0136
   59loPI   C3A  937   4.653   8.442   8.401  0.2179  0.1183 -0.1687
   59loPI   C4A  938   4.906   8.474   8.057  0.1082  0.1288 -0.2203
   59loPI   C5A  939   5.057   8.535   7.743  0.1091 -0.2018 -0.2309
   59loPI   C6A  940   5.468   8.623   7.539 -0.0407 -0.0532 -0.0445
   59loPI   C1B  941   4.666   7.913   8.977  0.1556  0.1165 -0.2329
   59loPI   C2B  942   4.632   7.787   8.489  0.1219 -0.2418  0.2125
   59loPI   C3B  943   4.636   7.930   8.026  0.2937 -0.1019 -0.2154
   59loPI   C4B  944   4.996   7.979   7.720 -0.2247 -0.1412  0.1015
   60loPI    C1  945   0.742   1.778   9.838 -0.3528 -0.0314  0.1442
   60loPI    C2  946   0.897   1.513  10.094  0.0536 -0.0563 -0.1182
   60loPI    C3  947   0.875   1.899  10.195 -0.0968 -0.1152  0.0798
   60loPI   PO4  948   0.782   1.614   9.568 -0.2470  0.2209 -0.3016
   60loPI   GL1  949   0.882   1.367   9.207 -0.1348  0.3108 -0.2347
   60loPI   GL2  950   0.642   1.544   9.058  0.1988 -0.4080 -0.2224
   60loPI   C1A  951   0.691   1.008   8.896  0.1473 -0.1375 -0.0295
   60loPI   C2A  952   0.546   0.925   8.498  0.5277 -0.0673  0.0327
   60loPI   C3A  953   0.500   0.984   8.080 -0.1709 -0.1989  0.2071
   60loPI   C4A  954   0.612   1.011   7.735  0.3277  0.0153 -0.2137
   60loPI   C5A  955   0.333   1.063   7.367  0.3187 -0.4430 -0.1589
   60loPI   C6A  956   0.023   0.809   7.137 -0.3345  0.0897  0.0855
   60loPI   C1B  957   0.507   1.908   8.772 -0.1970  0.0591  0.1628
   60loPI   C2B  958   0.277   2.276   8.572 -0.1841  0.2088  0.2710
   60loPI   C3B  959   0.285   2.361   8.125 -0.1690  0.1844 -0.0853
   60loPI   C4B  960   0.389   2.527   7.639  0.0917  0.1607  0.0959
   61loPI    C1  961   7.209  14.376  10.105 -0.1649 -0.0498 -0.0948
   61loPI    C2  962   7.006  14.687  10.253 -0.0459 -0.0615  0.0954
   61loPI    C3  963   6.879  14.315  10.322 -0.1588 -0.0578 -0.0878
   61loPI   PO4  964   7.332  14.489   9.833  0.2474 -0.1106  0.0168
   61loPI   GL1  965   7.208  14.636   9.389  0.0493 -0.2384 -0.1080
   61loPI   GL2  966   6.959  14.504   9.524 -0.0310 -0.1478  0.1739
   61loPI   C1A  967   7.222  14.734   8.956  0.2007 -0.2162 -0.2521
   61loPI   C2A  968   7.186  14.811   8.584 -0.3814 -0.1151  0.0993
   61loPI   C3A  969   7.141  15.047   8.241  0.0133  0.2117  0.0919
   61loPI   C4A  970   7.031  15.210   7.777 -0.0637 -0.0457  0.0782
   61loPI   C5A  971   6.644  15.382   7.563 -0.0106 -0.2454 -0.1328
   61loPI   C6A  972   6.367  15.311   7.175 -0.1040  0.2793  0.0114
   61loPI   C1B  973   6.996  14.316   9.093 -0.0496 -0.1351 -0.1869
   61loPI   C2B  974   6.836  14.453   8.667 -0.2006 -0.0344  0.1354
   61loPI   C3B  975   6.785  14.707   8.244  0.1319 -0.5554  0.1144
   61loPI   C4B  976   6.997  14.687   7.819  0.0326 -0.1561 -0.4197
   62loPI    C1  977   0.668   5.358  10.142 -0.0156 -0.1070  0.0703
   62loPI    C2  978   1.028   5.513  10.061 -0.0441 -0.1857 -0.2194
   62loPI    C3  979   0.860   5.573  10.419  0.2723 -0.1799 -0.0680
   62loPI   PO4  980   0.540   5.396   9.978 -0.1205  0.1566 -0.0694
   62loPI   GL1  981   0.424   5.274   9.537 -0.0062 -0.0868  0.0092
   62loPI   GL2  982   0.151   5.085   9.554 -0.2807  0.1514  0.1295
   62loPI   C1A  983   0.546   5.517   9.202 -0.0522 -0.1093  0.1472
   62loPI   C2A  984   0.772   5.476   8.815 -0.0887 -0.0890  0.0421
   62loPI   C3A  985   0.850   5.590   8.416  0.0032 -0.4022  0.1105
   62loPI   C4A  986   1.130   5.634   8.006 -0.0109  0.2131  0.0025
   62loPI   C5A  987   1.363   5.814   7.591  0.4200 -0.1612  0.0001
   62loPI   C6A  988   1.304   5.953   7.156 -0.0482 -0.0502  0.1138
   62loPI   C1B  989   0.234   5.064   9.132  0.1003  0.0563 -0.1032
   62loPI   C2B  990   0.204   4.950   8.794 -0.1404 -0.1631 -0.0892
   62loPI   C3B  991   0.458   4.651   8.562  0.3278 -0.1522  0.2736
   62loPI   C4B  992   0.635   4.203   8.289  0.1663 -0.0515  0.0231
   63loPI    C1  993  16.669  18.674   9.515 -0.1622 -0.0522 -0.1094
   63loPI    C2  994  16.289  18.550   9.496 -0.1960  0.0397 -0.0385
   63loPI    C3  995  16.479  18.561   9.848 -0.0384 -0.2701 -0.1103
   63loPI   PO4  996  16.770  18.645   9.244  0.0594 -0.3517  0.1779
   63loPI   GL1  997  16.854  18.496   8.849  0.0239 -0.0346  0.0241
   63loPI   GL2  998  16.804  18.245   8.726 -0.0819 -0.1774  0.0661
   63loPI   C1A  999  16.974  18.605   8.415  0.4660 -0.0025 -0.0164
   63loPI   C2A 1000  17.373  18.626   8.246 -0.2056  0.0707  0.0742
   63loPI   C3A 1001  17.503  18.851   7.866  0.0005 -0.3019 -0.0424
   63loPI   C4A 1002  17.540  19.159   7.573 -0.0973  0.2403  0.1137
   63loPI   C5A 1003  17.666  19.258   7.071  0.1706 -0.2860 -0.3355
   63loPI   C6A 1004  17.886  19.182   6.787 -0.3807 -0.0731 -0.0808
   63loPI   C1B 1005  16.713  18.188   8.271 -0.2504  0.0160  0.0915
   63loPI   C2B 1006  16.638  18.069   7.886 -0.2464 -0.0035 -0.3052
   63loPI   C3B 1007  16.751  18.146   7.428  0.2070  0.0053 -0.2072
   63loPI   C4B 1008  16.975  18.332   7.121  0.0565  0.3888 -0.1942
   64loPI    C1 1009  10.291  13.549  10.374 -0.0156 -0.1902 -0.2868
   64loPI    C2 1010  10.497  13.264  10.563 -0.0320 -0.1005 -0.1326
   64loPI    C3 1011  10.109  13.317  10.643  0.0418  0.1639  0.0666
   64loPI   PO4 1012  10.333  13.496  10.075  0.1605 -0.1776  0.1215
   64loPI   GL1 1013  10.437  13.649   9.752  0.3526 -0.1571  0.0515
   64loPI   GL2 1014  10.254  13.754   9.657 -0.0224  0.2069  0.1941
   64loPI   C1A 1015  10.726  13.644   9.426 -0.0286 -0.3676  0.0647
   64loPI   C2A 1016  10.497  13.583   9.045  0.3081 -0.0506  0.0283
   64loPI   C3A 1017  10.485  13.631   8.704 -0.1225  0.2914  0.0702
   64loPI   C4A 1018  10.353  13.670   8.396 -0.0944 -0.1527 -0.0417
   64loPI   C5A 1019   9.963  13.884   8.106 -0.0500  0.4099  0.4436
   64loPI   C6A 1020   9.624  14.009   7.828  0.1433 -0.1237  0.0375
   64loPI   C1B 1021  10.098  13.836   9.209 -0.2758 -0.0226 -0.4155
   64loPI   C2B 1022  10.026  13.939   8.782 -0.2701 -0.0136  0.2100
   64loPI   C3B 1023   9.834  14.258   8.548 -0.0538  0.2710  0.1682
   64loPI   C4B 1024   9.748  14.381   8.216 -0.2033  0.2657  0.0631
   65loPI    C1 1025   0.667  19.360   9.704  0.0338 -0.2095  0.2226
   65loPI    C2 1026   0.813  19.375   9.332 -0.0220 -0.1474  0.2028
   65loPI    C3 1027   1.011  19.551   9.632 -0.1050  0.0208  0.1599
   65loPI   PO4 1028   0.378  19.400   9.530  0.1641  0.2122  0.0523
   65loPI   GL1 1029   0.262  19.590   9.203 -0.1315  0.1026  0.3490
   65loPI   GL2 1030  -0.034  19.668   9.004  0.0064  0.0109 -0.2419
   65loPI   C1A 1031   0.299  19.494   8.656 -0.0090  0.3064  0.0683
   65loPI   C2A 1032   0.171  19.790   8.271 -0.1275 -0.0133 -0.1603
   65loPI   C3A 1033   0.347  19.986   7.905 -0.0312  0.1236  0.0417
   65loPI   C4A 1034   0.488  20.079   7.488 -0.3470  0.1159  0.0524
   65loPI   C5A 1035   0.625  20.244   7.108  0.1705 -0.1085  0.1415
   65loPI   C6A 1036   0.448  20.557   6.860 -0.0742 -0.1215  0.3515
   65loPI   C1B 1037  -0.006  20.072   8.761  0.0488 -0.0841  0.0571
   65loPI   C2B 1038   0.057  20.232   8.360 -0.0283 -0.1183 -0.2039
   65loPI   C3B 1039   0.073  20.426   7.865 -0.0539  0.0099  0.1184
   65loPI   C4B 1040  -0.133  20.689   7.576 -0.0456 -0.2856  0.0437
   66loPI    C1 1041  18.414   0.388   9.491 -0.1007 -0.0151  0.0532
   66loPI    C2 1042  18.774   0.222   9.547 -0.1069  0.0023  0.1455
   66loPI    C3 1043  18.586   0.401   9.852 -0.1063  0.1679  0.0501
   66loPI   PO4 1044  18.318   0.152   9.224  0.0407  0.0446  0.4348
   66loPI   GL1 1045  18.170  -0.056   8.819  0.0727  0.0830 -0.0140
   66loPI   GL2 1046  18.154   0.258   8.617  0.0014  0.0169  0.1633
   66loPI   C1A 1047  18.244  -0.201   8.419  0.1222  0.2796  0.1520
   66loPI   C2A 1048  18.392  -0.113   7.904  0.0562 -0.0259 -0.0759
   66loPI   C3A 1049  18.412   0.035   7.528 -0.3297  0.0632 -0.0145
   66loPI   C4A 1050  18.571   0.121   7.044  0.1070  0.1643 -0.6281
   66loPI   C5A 1051  18.773   0.040   6.676  0.1257 -0.3502  0.0708
   66loPI   C6A 1052  18.955   0.346   6.388 -0.0847 -0.1352  0.0749
   66loPI   C1B 1053  18.275   0.344   8.244 -0.3331 -0.3376  0.0041
   66loPI   C2B 1054  18.341   0.441   7.844 -0.2299 -0.2099 -0.0131
   66loPI   C3B 1055  18.558   0.561   7.476 -0.0433  0.0115  0.1601
   66loPI   C4B 1056  18.847   0.610   7.131  0.1149 -0.3930  0.4182
   67loPI    C1 1057  12.262  17.894   9.690  0.1903 -0.0952 -0.2396
   67loPI    C2 1058  12.251  17.553   9.900 -0.0851 -0.2109 -0.4364
   67loPI    C3 1059  12.172  17.902  10.080 -0.2625 -0.3024 -0.3336
   67loPI   PO4 1060  12.230  17.826   9.394 -0.0287  0.0667 -0.1112
   67loPI   GL1 1061  11.995  17.702   9.072  0.0213 -0.2920  0.2116
   67loPI   GL2 1062  11.779  17.881   8.932 -0.0955  0.1331 -0.0141
   67loPI   C1A 1063  12.096  17.688   8.591  0.0127 -0.0469 -0.0053
   67loPI   C2A 1064  12.021  17.738   8.186  0.1073 -0.1668 -0.0186
   67loPI   C3A 1065  11.969  17.707   7.773  0.1856  0.0997 -0.2094
   67loPI   C4A 1066  11.657  17.801   7.451 -0.1691 -0.0436 -0.4710
   67loPI   C5A 1067  11.486  17.774   7.056  0.1182  0.1278 -0.5108
   67loPI   C6A 1068  11.558  17.954   6.620  0.2451 -0.0017 -0.0759
   67loPI   C1B 1069  11.784  18.079   8.633 -0.1841  0.1571  0.1337
   67loPI   C2B 1070  11.828  18.337   8.337  0.2245  0.2131 -0.1763
   67loPI   C3B 1071  11.736  18.755   8.178 -0.1424 -0.3193 -0.2957
   67loPI   C4B 1072  11.522  18.801   7.809  0.0115  0.0987  0.0557
   68loPI    C1 1073   8.299  19.483   9.473  0.1801 -0.2014  0.1309
   68loPI    C2 1074   8.219  19.370   9.848  0.1151  0.0873  0.2057
   68loPI    C3 1075   8.494  19.652   9.778  0.1869 -0.0250  0.0298
   68loPI   PO4 1076   8.300  19.227   9.351 -0.0087 -0.1852 -0.2401
   68loPI   GL1 1077   8.299  19.064   8.953 -0.1955 -0.1785  0.4858
   68loPI   GL2 1078   8.498  19.256   8.867 -0.1357  0.4478 -0.0714
   68loPI   C1A 1079   8.270  18.844   8.592  0.1649 -0.1740 -0.1614
   68loPI   C2A 1080   8.223  18.725   8.172 -0.1175 -0.3990 -0.0829
   68loPI   C3A 1081   8.466  18.637   7.841 -0.2127 -0.3096 -0.0854
   68loPI   C4A 1082   8.486  18.781   7.546  0.1064 -0.1074 -0.0472
   68loPI   C5A 1083   8.653  18.823   7.224  0.0976 -0.0989  0.0373
   68loPI   C6A 1084   8.740  18.508   6.827 -0.2034 -0.4979 -0.2512
   68loPI   C1B 1085   8.746  19.055   8.562 -0.1039  0.0206  0.0827
   68loPI   C2B 1086   8.839  18.846   8.135 -0.0126 -0.1571  0.1016
   68loPI   C3B 1087   8.948  18.750   7.715 -0.0591  0.0597 -0.1583
   68loPI   C4B 1088   9.285  18.461   7.563 -0.1736  0.2709  0.0991
   69loPI    C1 1089   5.714  11.442  10.150  0.0225  0.2163  0.1604
   69loPI    C2 1090   5.454  11.150  10.236  0.0851  0.0524 -0.1881
   69loPI    C3 1091   5.564  11.410  10.520 -0.2519 -0.0380  0.0318
   69loPI   PO4 1092   5.730  11.637   9.967  0.0417 -0.1628  0.0255
   69loPI   GL1 1093   5.529  11.767   9.632 -0.2262  0.0615  0.1116
   69loPI   GL2 1094   5.368  12.066   9.852  0.0562 -0.0947  0.1517
   69loPI   C1A 1095   5.425  11.719   9.166 -0.2627  0.1227  0.2930
   69loPI   C2A 1096   5.475  12.037   8.825  0.2467  0.4512 -0.0357
   69loPI   C3A 1097   5.163  12.355   8.618 -0.2266 -0.0915 -0.0137
   69loPI   C4A 1098   5.232  12.784   8.454  0.1616  0.0223  0.2737
   69loPI   C5A 1099   5.424  13.135   8.296 -0.2475 -0.0873  0.0605
   69loPI   C6A 1100   5.622  13.457   7.960 -0.3283 -0.0234 -0.0141
   69loPI   C1B 1101   5.153  12.086   9.505 -0.2595 -0.1928  0.0737
   69loPI   C2B 1102   5.103  12.327   9.154 -0.0727  0.1616  0.3519
   69loPI   C3B 1103   5.169  12.752   9.019 -0.1387  0.0383  0.0886
   69loPI   C4B 1104   5.418  13.137   9.068  0.3404 -0.0158  0.2177
   70loPI    C1 1105   9.848   0.233   9.533 -0.0712 -0.2063 -0.0360
   70loPI    C2 1106  10.107   0.076   9.272 -0.0736  0.1081 -0.2319
   70loPI    C3 1107   9.719  -0.021   9.252 -0.0040 -0.2218 -0.0529
   70loPI   PO4 1108   9.919   0.494   9.513 -0.0980 -0.0268  0.0773
   70loPI   GL1 1109  10.106   0.560   9.164 -0.1320  0.0846 -0.2579
   70loPI   GL2 1110   9.804   0.420   8.989  0.1153  0.0117 -0.2005
   70loPI   C1A 1111  10.224   0.357   8.771  0.1605  0.1958 -0.1905
   70loPI   C2A 1112  10.294   0.489   8.327 -0.2936 -0.1564  0.0132
   70loPI   C3A 1113  10.367   0.507   7.905  0.0230 -0.0167  0.3943
   70loPI   C4A 1114  10.441   0.572   7.412  0.0879 -0.0641 -0.0640
   70loPI   C5A 1115  10.538   0.398   7.004 -0.2040 -0.0140 -0.0636
   70loPI   C6A 1116  10.872   0.349   6.791  0.1557  0.0030 -0.2825
   70loPI   C1B 1117   9.684   0.102   8.728  0.0437 -0.0819  0.0852
   70loPI   C2B 1118   9.545  -0.122   8.353  0.1386 -0.0143  0.0488
   70loPI   C3B 1119   9.643  -0.075   7.960 -0.1882  0.0199  0.2460
   70loPI   C4B 1120   9.624   0.029   7.538 -0.0619  0.2359  0.0137
   71loPI    C1 1121   4.779   3.161   9.488 -0.0636 -0.1862 -0.0426
   71loPI    C2 1122   4.865   2.836   9.705 -0.1856  0.0556  0.3791
   71loPI    C3 1123   4.907   3.201   9.865 -0.1231  0.2488 -0.0630
   71loPI   PO4 1124   4.472   3.079   9.427  0.0799 -0.1038  0.0963
   71loPI   GL1 1125   4.423   2.904   9.059 -0.1362  0.1543  0.2121
   71loPI   GL2 1126   4.189   3.098   8.895  0.3198  0.0434  0.3327
   71loPI   C1A 1127   4.716   2.815   8.713  0.2340  0.0708 -0.1974
   71loPI   C2A 1128   4.779   2.685   8.190 -0.1347 -0.0876  0.0531
   71loPI   C3A 1129   4.962   2.767   7.867  0.0587  0.1523  0.2026
   71loPI   C4A 1130   4.921   2.649   7.395 -0.1904 -0.1579  0.0367
   71loPI   C5A 1131   4.910   2.237   7.133 -0.0836 -0.1426  0.0299
   71loPI   C6A 1132   5.041   1.926   6.839 -0.1481  0.1138  0.1048
   71loPI   C1B 1133   4.360   3.057   8.479  0.0218 -0.2602  0.2874
   71loPI   C2B 1134   4.452   2.993   8.044  0.0304 -0.0275 -0.3571
   71loPI   C3B 1135   4.446   2.814   7.607 -0.0593  0.0772  0.0859
   71loPI   C4B 1136   4.434   2.704   7.217  0.1309 -0.0641  0.1942
   72loPI    C1 1137   5.831  19.475   9.992  0.0256 -0.0082  0.0535
   72loPI    C2 1138   5.535  19.448  10.261 -0.0581  0.1323 -0.0232
   72loPI    C3 1139   5.914  19.491  10.383 -0.0838  0.0837  0.0736
   72loPI   PO4 1140   5.783  19.304   9.857  0.0845  0.1839  0.2002
   72loPI   GL1 1141   5.425  19.164   9.585 -0.0025 -0.2340 -0.0090
   72loPI   GL2 1142   5.454  18.847   9.538  0.0785  0.2428 -0.2238
   72loPI   C1A 1143   5.557  19.025   9.125 -0.1919 -0.2181  0.1594
   72loPI   C2A 1144   5.492  19.154   8.754 -0.2769  0.0528 -0.1003
   72loPI   C3A 1145   5.444  18.981   8.327 -0.2064 -0.0895  0.1229
   72loPI   C4A 1146   5.509  18.996   7.816  0.1982 -0.0386 -0.1045
   72loPI   C5A 1147   5.584  18.829   7.341 -0.0011  0.3063  0.3355
   72loPI   C6A 1148   5.835  18.611   6.976 -0.1474  0.1186 -0.1000
   72loPI   C1B 1149   5.183  18.720   9.140 -0.2132 -0.0287  0.0901
   72loPI   C2B 1150   5.028  18.860   8.754  0.0699 -0.4711 -0.0233
   72loPI   C3B 1151   4.928  18.813   8.338 -0.0550  0.4051  0.1014
   72loPI   C4B 1152   5.040  18.782   7.929  0.0361 -0.0019 -0.2106
   73loPI    C1 1153   8.573  13.794  10.145  0.0852 -0.2713 -0.1360
   73loPI    C2 1154   8.502  13.538  10.444  0.0620  0.0191  0.1124
   73loPI    C3 1155   8.446  13.930  10.499  0.1774  0.0884 -0.2370
   73loPI   PO4 1156   8.851  13.776   9.995  0.0788 -0.3866  0.0458
   73loPI   GL1 1157   8.874  13.770   9.558 -0.0929 -0.1382 -0.0894
   73loPI   GL2 1158   9.182  13.558   9.590 -0.2206 -0.0618  0.3076
   73loPI   C1A 1159   8.547  13.859   9.249  0.0363  0.0817 -0.0331
   73loPI   C2A 1160   8.387  13.669   8.875  0.1805  0.0410  0.0692
   73loPI   C3A 1161   8.262  13.626   8.458  0.0724  0.1100 -0.2226
   73loPI   C4A 1162   8.100  13.705   8.033  0.3380 -0.4161 -0.4274
   73loPI   C5A 1163   7.964  13.930   7.633 -0.1602  0.1153  0.0558
   73loPI   C6A 1164   8.112  14.342   7.445  0.1943  0.1712 -0.0842
   73loPI   C1B 1165   8.946  13.559   9.157 -0.1930  0.5026  0.0561
   73loPI   C2B 1166   9.046  13.566   8.788 -0.1267  0.1148  0.0168
   73loPI   C3B 1167   9.107  13.607   8.329 -0.0756  0.3886 -0.1633
   73loPI   C4B 1168   9.154  13.828   7.949  0.2231  0.0596  0.2877
   74loPI    C1 1169  13.398   3.043   9.493 -0.0123  0.0607  0.0521
   74loPI    C2 1170  13.115   3.022   9.776  0.2325 -0.2256  0.2834
   74loPI    C3 1171  13.467   3.194   9.857  0.0890  0.2425 -0.0413
   74loPI   PO4 1172  13.300   3.172   9.310  0.2760 -0.1357  0.1776
   74loPI   GL1 1173  13.152   3.265   8.910  0.1261 -0.1036 -0.2559
   74loPI   GL2 1174  13.428   3.612   8.931 -0.0877 -0.3043 -0.4960
   74loPI   C1A 1175  13.424   3.229   8.536 -0.1420 -0.1021 -0.0738
   74loPI   C2A 1176  13.432   3.283   8.079 -0.1029  0.0623 -0.0635
   74loPI   C3A 1177  13.625   3.166   7.660  0.2393 -0.2705 -0.3969
   74loPI   C4A 1178  13.868   2.968   7.317  0.1447 -0.2284 -0.1506
   74loPI   C5A 1179  13.983   3.016   6.910 -0.3022 -0.0198 -0.2907
   74loPI   C6A 1180  14.006   3.349   6.751 -0.0745  0.2146  0.2326
   74loPI   C1B 1181  13.233   3.831   8.633 -0.1899 -0.0782  0.2790
   74loPI   C2B 1182  12.958   3.775   8.309 -0.0624  0.1379  0.1286
   74loPI   C3B 1183  12.963   3.547   7.919  0.0661  0.1047 -0.1056
   74loPI   C4B 1184  13.108   3.608   7.545  0.0322 -0.2268 -0.2163
   75loPI    C1 1185   1.861   9.683  10.159  0.1327 -0.1039  0.1312
   75loPI    C2 1186   1.630  10.007  10.196  0.2133 -0.0207 -0.0793
   75loPI    C3 1187   1.512   9.703   9.965  0.1111 -0.1680  0.1630
   75loPI   PO4 1188   2.095   9.796  10.064  0.0209  0.1402  0.0843
   75loPI   GL1 1189   2.369   9.758   9.713 -0.1679  0.1787 -0.3203
   75loPI   GL2 1190   2.620   9.572   9.613  0.0840  0.0115  0.0535
   75loPI   C1A 1191   2.451   9.895   9.277 -0.3097  0.1396  0.1481
   75loPI   C2A 1192   2.715   9.785   8.867  0.1070  0.3072  0.1657
   75loPI   C3A 1193   2.668   9.744   8.513 -0.1843 -0.3273 -0.1184
   75loPI   C4A 1194   2.617   9.403   8.180  0.3718 -0.3369  0.0915
   75loPI   C5A 1195   2.471   9.435   7.728  0.0811  0.1353 -0.2543
   75loPI   C6A 1196   2.445   9.164   7.296  0.0298 -0.0013  0.2549
   75loPI   C1B 1197   2.538   9.330   9.161  0.0353 -0.0540  0.1649
   75loPI   C2B 1198   2.578   9.286   8.690  0.0456 -0.1400  0.0642
   75loPI   C3B 1199   2.837   8.927   8.434 -0.2779 -0.0205 -0.1338
   75loPI   C4B 1200   2.687   8.562   8.220 -0.0637 -0.0732  0.0611
   76loPI    C1 1201  16.324   5.327  10.197 -0.0258  0.3927  0.0224
   76loPI    C2 1202  16.038   5.237  10.462 -0.1052  0.4419 -0.0459
   76loPI    C3 1203  16.284   4.952  10.328 -0.1932  0.3769 -0.0703
   76loPI   PO4 1204  16.201   5.442   9.955 -0.1462 -0.0951 -0.0897
   76loPI   GL1 1205  16.230   5.582   9.607  0.1658 -0.0901  0.1567
   76loPI   GL2 1206  16.077   5.408   9.349 -0.3352 -0.2523  0.2477
   76loPI   C1A 1207  16.514   5.604   9.323 -0.0025 -0.3545 -0.0317
   76loPI   C2A 1208  16.776   5.523   9.052  0.1052 -0.2141 -0.0091
   76loPI   C3A 1209  16.856   5.512   8.570  0.0078 -0.1369  0.0561
   76loPI   C4A 1210  16.849   5.530   8.091  0.0493 -0.1063  0.1223
   76loPI   C5A 1211  16.846   5.724   7.654  0.1821 -0.1687  0.1899
   76loPI   C6A 1212  16.970   5.879   7.173 -0.0114 -0.0728 -0.2865
   76loPI   C1B 1213  15.997   5.653   8.984  0.0070  0.3787  0.1545
   76loPI   C2B 1214  16.017   5.639   8.562  0.0922  0.1901 -0.3698
   76loPI   C3B 1215  15.932   5.675   8.074  0.0929  0.0740  0.0904
   76loPI   C4B 1216  15.881   5.327   7.708 -0.5225  0.0661  0.0509
   77loPI    C1 1217   3.322   9.919  10.214 -0.1439 -0.2245  0.0561
   77loPI    C2 1218   3.102  10.250  10.171  0.0799 -0.0468  0.2491
   77loPI    C3 1219   3.019   9.992  10.465 -0.1286 -0.1926  0.0656
   77loPI   PO4 1220   3.345   9.885   9.973  0.0335 -0.1711  0.1074
   77loPI   GL1 1221   3.440   9.582   9.866  0.1132  0.0373 -0.0219
   77loPI   GL2 1222   3.776   9.722   9.737 -0.0909 -0.1101  0.1872
   77loPI   C1A 1223   3.468   9.397   9.464 -0.1311  0.0628  0.0772
   77loPI   C2A 1224   3.519   9.442   9.091  0.1690 -0.0218  0.2574
   77loPI   C3A 1225   3.485   9.236   8.620  0.1864  0.0419  0.2660
   77loPI   C4A 1226   3.642   8.819   8.473 -0.0479 -0.4650 -0.0832
   77loPI   C5A 1227   3.607   8.580   8.063 -0.1964 -0.1347 -0.0605
   77loPI   C6A 1228   3.879   8.363   7.887 -0.2633  0.1528  0.3174
   77loPI   C1B 1229   3.588   9.957   9.362  0.2190 -0.0255 -0.2335
   77loPI   C2B 1230   3.462   9.946   8.957  0.1619 -0.0069 -0.2034
   77loPI   C3B 1231   3.183   9.828   8.696  0.0434  0.0929  0.2104
   77loPI   C4B 1232   3.134   9.632   8.387  0.1529  0.1175  0.1462
   78loPI    C1 1233  17.683   3.782   9.972 -0.2341  0.0038  0.1812
   78loPI    C2 1234  18.058   3.701  10.083 -0.1665 -0.0908 -0.1088
   78loPI    C3 1235  17.753   3.503  10.250 -0.0834 -0.0694  0.0709
   78loPI   PO4 1236  17.683   4.092   9.833 -0.0253 -0.1245  0.0108
   78loPI   GL1 1237  17.504   4.364   9.404 -0.1901 -0.0269  0.0723
   78loPI   GL2 1238  17.675   4.056   9.306  0.0230 -0.0533  0.2675
   78loPI   C1A 1239  17.391   4.332   8.965  0.1442 -0.0283 -0.2488
   78loPI   C2A 1240  17.202   4.197   8.651  0.1919  0.0047  0.4917
   78loPI   C3A 1241  16.836   4.204   8.327 -0.3338  0.1663  0.1793
   78loPI   C4A 1242  16.702   3.889   7.941  0.1376 -0.2692  0.0406
   78loPI   C5A 1243  16.752   3.767   7.511  0.2121  0.1523  0.1504
   78loPI   C6A 1244  16.877   3.660   7.076 -0.1710 -0.2460  0.0286
   78loPI   C1B 1245  17.856   4.310   8.899  0.0468  0.2987  0.3079
   78loPI   C2B 1246  17.818   4.270   8.443  0.0414 -0.1015  0.0670
   78loPI   C3B 1247  17.582   4.566   8.159  0.0015  0.2528  0.5116
   78loPI   C4B 1248  17.568   4.645   7.717  0.2020  0.0945 -0.2367
   79loPI    C1 1249  17.461   1.644   9.906  0.1448  0.1120 -0.1438
   79loPI    C2 1250  17.784   1.874   9.857  0.0528  0.2885  0.0615
   79loPI    C3 1251  17.591   1.872  10.207 -0.1776  0.1957 -0.0637
   79loPI   PO4 1252  17.570   1.428   9.686  0.0203 -0.0442  0.0355
   79loPI   GL1 1253  17.557   1.315   9.248 -0.0912  0.3224 -0.1977
   79loPI   GL2 1254  17.228   1.221   9.023 -0.1153 -0.1475 -0.1426
   79loPI   C1A 1255  17.716   1.504   8.965 -0.1822  0.1192 -0.1642
   79loPI   C2A 1256  17.787   1.481   8.571 -0.5095 -0.0438  0.2119
   79loPI   C3A 1257  17.776   1.507   8.085  0.0467  0.0677  0.0009
   79loPI   C4A 1258  17.926   1.129   7.707 -0.0613  0.2065 -0.2171
   79loPI   C5A 1259  18.168   0.796   7.415 -0.0484 -0.1411 -0.4367
   79loPI   C6A 1260  18.332   0.666   7.006  0.1466  0.1044 -0.0100
   79loPI   C1B 1261  17.274   1.434   8.660  0.2302  0.0281 -0.3200
   79loPI   C2B 1262  17.289   1.401   8.167  0.2606 -0.0270  0.2938
   79loPI   C3B 1263  17.445   1.447   7.726  0.0982  0.2432 -0.1561
   79loPI   C4B 1264  17.456   1.395   7.377 -0.0807 -0.2539 -0.1939
   80loPI    C1 1265  19.392  15.770   9.316  0.1086  0.0637  0.0267
   80loPI    C2 1266  19.284  15.845   9.694  0.1934  0.0225  0.0596
   80loPI    C3 1267  19.135  15.526   9.502  0.3521 -0.1053  0.1469
   80loPI   PO4 1268  19.422  16.022   9.220 -0.0832  0.0447  0.1525
   80loPI   GL1 1269  19.353  16.118   8.819  0.0672 -0.0880 -0.2770
   80loPI   GL2 1270  19.536  15.834   8.781 -0.0900 -0.1142 -0.0199
   80loPI   C1A 1271  19.143  15.976   8.401 -0.0581  0.2316  0.1507
   80loPI   C2A 1272  18.999  15.826   7.971 -0.0138 -0.2822 -0.2197
   80loPI   C3A 1273  18.864  15.865   7.528 -0.4574  0.0448  0.0809
   80loPI   C4A 1274  18.967  15.819   7.065 -0.1455 -0.3720  0.1198
   80loPI   C5A 1275  18.981  16.123   6.772 -0.1807 -0.0474 -0.0996
   80loPI   C6A 1276  18.565  15.966   6.741 -0.0317 -0.0544 -0.1153
   80loPI   C1B 1277  19.910  15.768   8.497  0.0393 -0.1182  0.0285
   80loPI   C2B 1278  20.236  15.558   8.405 -0.4793  0.1703 -0.1430
   80loPI   C3B 1279  20.417  15.417   8.010  0.0494  0.1145 -0.2255
   80loPI   C4B 1280  20.759  15.341   7.664  0.2016 -0.0034 -0.4181
   81loPI    C1 1281   1.988   5.057  10.040 -0.0234  0.0264  0.0349
   81loPI    C2 1282   1.879   4.833  10.353  0.2892 -0.0875  0.0659
   81loPI    C3 1283   2.010   5.207  10.410 -0.0656  0.0463  0.0294
   81loPI   PO4 1284   1.815   5.158   9.858  0.0132 -0.1229  0.1728
   81loPI   GL1 1285   1.764   5.324   9.447  0.1473 -0.2592  0.1580
   81loPI   GL2 1286   1.971   5.518   9.238  0.2574  0.0331  0.2944
   81loPI   C1A 1287   1.704   5.118   9.089  0.2629  0.0099 -0.1197
   81loPI   C2A 1288   1.551   4.840   8.786  0.2813 -0.0321 -0.0076
   81loPI   C3A 1289   1.430   4.631   8.397 -0.2591  0.1756 -0.3278
   81loPI   C4A 1290   1.395   4.548   8.042 -0.0221  0.0430  0.2842
   81loPI   C5A 1291   1.199   4.561   7.703  0.1774  0.1250  0.5412
   81loPI   C6A 1292   0.833   4.506   7.475 -0.0215  0.2860 -0.3659
   81loPI   C1B 1293   2.062   5.358   8.815 -0.1470 -0.0193  0.4213
   81loPI   C2B 1294   1.760   5.215   8.522  0.2423  0.1910  0.1646
   81loPI   C3B 1295   1.639   5.022   8.079  0.1382 -0.1397 -0.1046
   81loPI   C4B 1296   1.419   5.054   7.641  0.0226 -0.1045  0.0976
   82loPI    C1 1297   1.092  12.864   9.927 -0.0652 -0.1256  0.0991
   82loPI    C2 1298   1.385  13.136   9.911  0.0231 -0.2362 -0.2348
   82loPI    C3 1299   1.303  12.951  10.256  0.0109  0.1566 -0.0217
   82loPI   PO4 1300   1.161  12.645   9.775  0.0459 -0.3167  0.2712
   82loPI   GL1 1301   1.295  12.721   9.321 -0.1146 -0.1568 -0.1675
   82loPI   GL2 1302   1.395  13.055   9.446  0.0757 -0.1827 -0.1993
   82loPI   C1A 1303   1.723  12.673   9.242  0.0998 -0.4253  0.3889
   82loPI   C2A 1304   1.937  12.321   8.927  0.2192 -0.0514  0.2219
   82loPI   C3A 1305   2.291  12.487   8.684 -0.0174 -0.1535  0.1370
   82loPI   C4A 1306   2.448  12.534   8.268  0.2925 -0.1236 -0.0330
   82loPI   C5A 1307   2.780  12.536   7.927  0.1184  0.0875  0.2466
   82loPI   C6A 1308   3.129  12.904   7.812  0.1942 -0.2038 -0.1759
   82loPI   C1B 1309   1.558  13.151   9.024  0.0630 -0.1741  0.1588
   82loPI   C2B 1310   1.788  13.345   8.712 -0.0430  0.0712  0.0582
   82loPI   C3B 1311   1.834  13.414   8.242  0.1395 -0.3483  0.1767
   82loPI   C4B 1312   2.022  13.379   7.860 -0.0763 -0.0467  0.0869
   83loPI    C1 1313   6.987  18.005   9.888  0.2096 -0.1524  0.3097
   83loPI    C2 1314   7.353  18.132   9.991  0.3535 -0.4204  0.1415
   83loPI    C3 1315   7.159  17.870  10.223  0.1761 -0.1204  0.3398
   83loPI   PO4 1316   7.036  17.917   9.673  0.1918 -0.2665 -0.3774
   83loPI   GL1 1317   7.248  18.024   9.391 -0.1444 -0.1359  0.0195
   83loPI   GL2 1318   7.600  17.936   9.264  0.2832 -0.0645 -0.0672
   83loPI   C1A 1319   7.377  18.467   9.123 -0.0308  0.1920 -0.0230
   83loPI   C2A 1320   7.349  18.531   8.661 -0.0516  0.2974 -0.0607
   83loPI   C3A 1321   7.350  18.492   8.203  0.0630 -0.1251  0.3495
   83loPI   C4A 1322   7.366  18.477   7.854  0.0655  0.3547 -0.0680
   83loPI   C5A 1323   7.540  18.690   7.514 -0.0189 -0.1485 -0.0161
   83loPI   C6A 1324   7.558  18.532   6.969  0.2746 -0.1896 -0.0859
   83loPI   C1B 1325   7.600  18.055   8.810  0.0174 -0.3732 -0.1929
   83loPI   C2B 1326   7.638  18.110   8.374  0.0770 -0.1095 -0.0145
   83loPI   C3B 1327   7.919  18.328   8.152  0.0105  0.2583 -0.1038
   83loPI   C4B 1328   8.060  18.383   7.708 -0.2288 -0.0825 -0.0041
   84loPI    C1 1329   5.339   8.880  10.438  0.0777  0.2097  0.2519
   84loPI    C2 1330   5.714   8.937  10.563  0.2533 -0.0405 -0.1398
   84loPI    C3 1331   5.521   8.600  10.658  0.1639  0.0425 -0.0254
   84loPI   PO4 1332   5.322   8.895  10.180  0.1697  0.3415  0.1724
   84loPI   GL1 1333   5.456   8.917   9.756  0.1552  0.0928  0.1683
   84loPI   GL2 1334   5.726   8.711   9.718 -0.0978  0.1119  0.2100
   84loPI   C1A 1335   5.327   8.797   9.321 -0.2770 -0.0067 -0.0178
   84loPI   C2A 1336   5.428   8.976   8.848 -0.2365  0.2009  0.3806
   84loPI   C3A 1337   5.569   8.930   8.451 -0.1261  0.0232 -0.1756
   84loPI   C4A 1338   5.515   9.070   7.980  0.0957 -0.2017  0.1284
   84loPI   C5A 1339   5.747   9.242   7.677 -0.0094  0.3832 -0.0411
   84loPI   C6A 1340   5.948   9.636   7.845  0.4046  0.3207  0.0772
   84loPI   C1B 1341   5.813   8.878   9.278 -0.2517  0.2003 -0.0391
   84loPI   C2B 1342   5.898   8.790   8.837 -0.3939 -0.0957  0.1576
   84loPI   C3B 1343   6.062   8.793   8.423  0.0579 -0.0538  0.0642
   84loPI   C4B 1344   6.280   8.617   8.076  0.1927  0.2037  0.1814
   85loPI    C1 1345   1.481   4.392   9.810  0.3388 -0.1769 -0.3110
   85loPI    C2 1346   1.546   4.745   9.988 -0.1861 -0.1350 -0.1868
   85loPI    C3 1347   1.612   4.405  10.188 -0.0955 -0.1007 -0.1578
   85loPI   PO4 1348   1.502   4.464   9.550  0.0216  0.1014 -0.0750
   85loPI   GL1 1349   1.801   4.592   9.253 -0.2156 -0.2164  0.6436
   85loPI   GL2 1350   1.701   4.400   8.918  0.3498 -0.0921  0.3408
   85loPI   C1A 1351   2.017   4.831   8.803  0.3325  0.1229  0.0125
   85loPI   C2A 1352   2.014   4.675   8.415 -0.1022 -0.2505  0.1636
   85loPI   C3A 1353   1.871   4.552   7.953 -0.3157  0.2749  0.0768
   85loPI   C4A 1354   1.677   4.589   7.537 -0.3291 -0.1436  0.2489
   85loPI   C5A 1355   1.286   4.640   7.230  0.0198 -0.1068  0.1579
   85loPI   C6A 1356   1.287   4.960   7.132 -0.0689 -0.1263 -0.1722
   85loPI   C1B 1357   1.691   4.027   8.611 -0.1540  0.2740 -0.1537
   85loPI   C2B 1358   1.722   4.081   8.120 -0.0762  0.0631 -0.1883
   85loPI   C3B 1359   1.472   4.072   7.836 -0.2619  0.1567  0.0772
   85loPI   C4B 1360   1.143   4.077   7.471 -0.0859 -0.1735 -0.0520
   86loPI    C1 1361   9.281  14.953   9.773 -0.1352 -0.0866  0.1304
   86loPI    C2 1362   9.419  14.793  10.112  0.1120 -0.0372  0.0551
   86loPI    C3 1363   9.265  14.557   9.828 -0.1665 -0.0715  0.2312
   86loPI   PO4 1364   9.490  15.045   9.597  0.1612 -0.0892 -0.0126
   86loPI   GL1 1365   9.434  14.805   9.283 -0.0327  0.3096 -0.1471
   86loPI   GL2 1366   9.291  14.482   9.307 -0.0002 -0.3944 -0.0353
   86loPI   C1A 1367   9.369  14.797   8.911 -0.0548 -0.1083 -0.0619
   86loPI   C2A 1368   9.474  14.666   8.505 -0.1508 -0.1315  0.2562
   86loPI   C3A 1369   9.471  14.841   8.151 -0.0214  0.0444  0.0347
   86loPI   C4A 1370   9.229  14.760   7.804  0.0052  0.1173 -0.0144
   86loPI   C5A 1371   9.055  14.507   7.369  0.0711  0.0602  0.2685
   86loPI   C6A 1372   9.428  14.358   7.015  0.3858  0.0296  0.0148
   86loPI   C1B 1373   8.948  14.409   9.062  0.0428 -0.2073 -0.2804
   86loPI   C2B 1374   8.524  14.234   8.904 -0.0944 -0.2530  0.1485
   86loPI   C3B 1375   8.198  14.523   8.837  0.1582 -0.0470 -0.1801
   86loPI   C4B 1376   8.083  14.733   8.492 -0.1745  0.1499  0.4124
   87loPI    C1 1377  16.912  15.216   9.438 -0.1657 -0.1766 -0.0945
   87loPI    C2 1378  16.888  15.226   9.837  0.2966  0.2008 -0.0672
   87loPI    C3 1379  16.880  14.875   9.646 -0.0153  0.0208  0.2618
   87loPI   PO4 1380  17.106  15.280   9.329  0.0474 -0.2136  0.1025
   87loPI   GL1 1381  17.288  15.319   8.908  0.1933  0.0912 -0.1290
   87loPI   GL2 1382  17.025  15.529   8.707  0.0813 -0.0312 -0.0208
   87loPI   C1A 1383  17.495  15.220   8.508 -0.3773  0.1738 -0.0581
   87loPI   C2A 1384  17.500  15.239   8.055  0.0831  0.0533 -0.0443
   87loPI   C3A 1385  17.537  15.151   7.718 -0.0713  0.0954  0.0248
   87loPI   C4A 1386  17.608  15.223   7.283 -0.0043 -0.1983 -0.1822
   87loPI   C5A 1387  17.402  15.371   6.972 -0.2377 -0.1537 -0.4378
   87loPI   C6A 1388  17.545  15.485   6.580 -0.2011  0.0141 -0.1559
   87loPI   C1B 1389  16.992  15.324   8.327  0.0124 -0.1567 -0.2755
   87loPI   C2B 1390  17.056  15.263   7.883 -0.1274  0.0135 -0.3553
   87loPI   C3B 1391  17.086  15.132   7.486  0.1897 -0.1691  0.1992
   87loPI   C4B 1392  16.881  15.374   7.122 -0.2561 -0.1702 -0.3780
   88loPI    C1 1393   0.218   2.319   9.817  0.0189 -0.1071 -0.0700
   88loPI    C2 1394   0.369   2.369  10.184  0.2351 -0.1355 -0.1535
   88loPI    C3 1395   0.343   2.002  10.026  0.1863 -0.1186 -0.1851
   88loPI   PO4 1396   0.333   2.505   9.652  0.1105 -0.0283 -0.0531
   88loPI   GL1 1397   0.304   2.677   9.285 -0.0752 -0.2230 -0.1191
   88loPI   GL2 1398   0.482   2.439   9.152 -0.1660 -0.0094 -0.0103
   88loPI   C1A 1399   0.161   2.878   8.843 -0.0681  0.1271  0.1455
   88loPI   C2A 1400   0.139   3.005   8.292  0.1669  0.2231  0.1475
   88loPI   C3A 1401   0.176   2.982   7.821 -0.1036  0.0670  0.1621
   88loPI   C4A 1402   0.046   2.913   7.458  0.0792  0.0341  0.1024
   88loPI   C5A 1403  -0.255   2.684   7.228  0.1242  0.1900 -0.0615
   88loPI   C6A 1404  -0.719   2.822   7.050 -0.0722  0.1322 -0.2594
   88loPI   C1B 1405   0.604   2.590   8.781  0.1156 -0.2132 -0.0042
   88loPI   C2B 1406   0.625   2.837   8.415 -0.0759  0.0520 -0.2836
   88loPI   C3B 1407   0.672   2.779   8.014 -0.0321 -0.1459  0.0933
   88loPI   C4B 1408   0.897   2.540   7.720 -0.0187  0.1257 -0.0308
   89loPI    C1 1409  13.032   1.330   9.197  0.0743 -0.1095  0.2435
   89loPI    C2 1410  12.674   1.257   9.361  0.0104 -0.1802  0.0759
   89loPI    C3 1411  12.967   0.986   9.391  0.1111 -0.0439  0.3733
   89loPI   PO4 1412  13.105   1.605   9.227 -0.0773  0.1783  0.2407
   89loPI   GL1 1413  13.142   1.756   8.815  0.2661 -0.1201  0.1497
   89loPI   GL2 1414  13.421   1.922   8.718 -0.2855  0.0818 -0.0745
   89loPI   C1A 1415  13.411   1.529   8.457  0.1293 -0.0289 -0.0792
   89loPI   C2A 1416  13.488   1.313   8.078  0.0361  0.2261  0.1795
   89loPI   C3A 1417  13.387   1.328   7.613 -0.2523 -0.0508 -0.0759
   89loPI   C4A 1418  13.379   1.222   7.192 -0.2112  0.2097  0.1357
   89loPI   C5A 1419  13.088   0.945   7.020 -0.1628  0.1177  0.1711
   89loPI   C6A 1420  12.740   0.841   7.091  0.0794  0.1121  0.1759
   89loPI   C1B 1421  13.402   2.074   8.376 -0.1380  0.0079  0.1800
   89loPI   C2B 1422  13.453   2.201   7.888  0.3471 -0.2648  0.0211
   89loPI   C3B 1423  13.596   2.185   7.502 -0.0646  0.2188 -0.1973
   89loPI   C4B 1424  13.847   1.977   7.064 -0.2135  0.2672  0.1752
   90loPI    C1 1425  16.406  18.151   9.045  0.0512 -0.0670 -0.1519
   90loPI    C2 1426  16.656  18.178   9.356 -0.0427  0.0757 -0.0880
   90loPI    C3 1427  16.705  17.888   9.086 -0.1273 -0.2206  0.2086
   90loPI   PO4 1428  16.402  18.447   9.003  0.0032 -0.1420  0.1401
   90loPI   GL1 1429  16.404  18.523   8.597 -0.0476  0.0166  0.1385
   90loPI   GL2 1430  16.474  18.818   8.651  0.0723 -0.0147  0.4046
   90loPI   C1A 1431  16.232  18.423   8.339 -0.1427  0.0534 -0.4771
   90loPI   C2A 1432  16.298  18.456   8.023 -0.0128 -0.4265 -0.0993
   90loPI   C3A 1433  16.365  18.406   7.608 -0.0104 -0.0933  0.1270
   90loPI   C4A 1434  16.276  18.626   7.196 -0.1688 -0.1888  0.0074
   90loPI   C5A 1435  16.400  18.716   6.824 -0.0552  0.1529 -0.0481
   90loPI   C6A 1436  16.350  18.975   6.483 -0.3750  0.2140  0.1620
   90loPI   C1B 1437  16.584  18.763   8.189 -0.0065 -0.1208  0.0962
   90loPI   C2B 1438  16.412  18.962   7.817 -0.1477  0.1687  0.0202
   90loPI   C3B 1439  16.388  19.078   7.432 -0.1494 -0.0356 -0.1222
   90loPI   C4B 1440  16.154  19.439   6.998  0.0674  0.2566 -0.3640
   91loPI    C1 1441   9.801  15.941   9.783 -0.0428 -0.0175  0.1162
   91loPI    C2 1442   9.933  16.156  10.093 -0.1604 -0.0024  0.1565
   91loPI    C3 1443   9.682  16.320   9.829 -0.0781 -0.0222  0.0654
   91loPI   PO4 1444  10.007  15.905   9.627  0.1682  0.0806  0.0608
   91loPI   GL1 1445  10.012  15.843   9.192  0.0169  0.0938 -0.2348
   91loPI   GL2 1446   9.757  15.816   9.159 -0.1708  0.0996 -0.3911
   91loPI   C1A 1447   9.973  16.085   8.809  0.0639 -0.2016 -0.1500
   91loPI   C2A 1448   9.860  16.092   8.386 -0.1262  0.0918  0.0183
   91loPI   C3A 1449   9.912  15.830   7.993 -0.0195  0.1765  0.2270
   91loPI   C4A 1450   9.856  15.531   7.657  0.1906 -0.0307 -0.0313
   91loPI   C5A 1451   9.794  15.670   7.213  0.0057  0.0047 -0.2395
   91loPI   C6A 1452   9.540  15.429   6.982 -0.1827 -0.0247 -0.0590
   91loPI   C1B 1453   9.921  15.563   8.782  0.1072 -0.1337  0.1761
   91loPI   C2B 1454   9.861  15.405   8.360  0.1863  0.0736 -0.0118
   91loPI   C3B 1455   9.808  15.195   8.037  0.1931  0.0078 -0.0118
   91loPI   C4B 1456   9.826  14.939   7.685  0.0541 -0.2410 -0.2623
   92loPI    C1 1457  11.395   0.670   9.508 -0.1059  0.0596  0.0892
   92loPI    C2 1458  11.746   0.844   9.591 -0.1009  0.0489  0.0904
   92loPI    C3 1459  11.611   0.546   9.821 -0.0568 -0.0235  0.0226
   92loPI   PO4 1460  11.436   0.635   9.219  0.0956  0.1975 -0.2654
   92loPI   GL1 1461  11.362   0.867   8.809 -0.1430 -0.1901 -0.1037
   92loPI   GL2 1462  11.624   0.601   8.746  0.0966 -0.3671  0.4725
   92loPI   C1A 1463  11.327   0.807   8.344  0.1999 -0.1241  0.1484
   92loPI   C2A 1464  11.165   0.737   7.899 -0.2416  0.3197  0.2599
   92loPI   C3A 1465  10.997   0.728   7.564  0.3922  0.0660  0.0181
   92loPI   C4A 1466  10.864   0.766   7.078 -0.3337 -0.0712  0.3772
   92loPI   C5A 1467  11.216   1.083   6.890  0.0493 -0.1611  0.2340
   92loPI   C6A 1468  11.542   1.423   6.662  0.1728 -0.0441  0.0540
   92loPI   C1B 1469  11.797   0.917   8.516  0.1248 -0.0418  0.0278
   92loPI   C2B 1470  11.864   1.345   8.419  0.1321 -0.1187  0.4003
   92loPI   C3B 1471  11.835   1.758   8.226 -0.2053 -0.0812 -0.0795
   92loPI   C4B 1472  11.742   1.835   7.877 -0.0923 -0.0436 -0.1993
   93loPI    C1 1473   6.655   0.455  10.086 -0.3103  0.2537 -0.0611
   93loPI    C2 1474   6.522   0.755  10.314 -0.4119  0.1441  0.0256
   93loPI    C3 1475   6.560   0.388  10.469 -0.0364  0.1657 -0.0060
   93loPI   PO4 1476   6.690   0.564   9.900  0.0991  0.1363 -0.2410
   93loPI   GL1 1477   6.448   0.808   9.481  0.0928  0.1037  0.0083
   93loPI   GL2 1478   6.586   1.142   9.630 -0.0250  0.1528  0.1684
   93loPI   C1A 1479   6.443   0.753   8.969 -0.3422 -0.0913 -0.1318
   93loPI   C2A 1480   6.075   0.872   8.770 -0.1136  0.0578 -0.0393
   93loPI   C3A 1481   5.836   0.958   8.455 -0.0548 -0.1259 -0.1563
   93loPI   C4A 1482   5.947   0.888   7.987  0.0215 -0.0809 -0.1855
   93loPI   C5A 1483   6.089   0.979   7.600  0.1006 -0.3644  0.1356
   93loPI   C6A 1484   6.375   0.921   7.299  0.2273  0.1122  0.2884
   93loPI   C1B 1485   6.901   1.031   9.192  0.0397 -0.0103  0.0554
   93loPI   C2B 1486   6.830   0.993   8.724 -0.0700 -0.0462  0.2346
   93loPI   C3B 1487   6.410   1.126   8.431 -0.1702  0.0572  0.1691
   93loPI   C4B 1488   6.237   1.288   8.054 -0.0705 -0.1848 -0.1382
   94loPI    C1 1489   7.087  13.897  10.130 -0.0419 -0.2683  0.1311
   94loPI    C2 1490   6.707  13.787  10.192 -0.2066  0.2653  0.1163
   94loPI    C3 1491   6.997  13.651  10.432 -0.3820 -0.2575  0.0429
   94loPI   PO4 1492   7.108  13.865   9.921  0.1004 -0.0765 -0.2177
   94loPI   GL1 1493   7.232  13.649   9.600  0.2170  0.0385  0.1395
   94loPI   GL2 1494   7.439  13.417   9.469  0.0182  0.0705  0.0370
   94loPI   C1A 1495   6.978  13.766   9.184 -0.3176 -0.4140  0.0589
   94loPI   C2A 1496   6.872  13.978   8.793 -0.3112  0.0216 -0.2845
   94loPI   C3A 1497   6.876  14.106   8.337  0.0879  0.0191  0.1383
   94loPI   C4A 1498   7.019  14.137   7.975  0.1951  0.3012 -0.2031
   94loPI   C5A 1499   7.242  14.242   7.572  0.0685  0.1449 -0.1458
   94loPI   C6A 1500   7.602  14.284   7.455  0.2655 -0.3218 -0.0594
   94loPI   C1B 1501   7.408  13.430   9.089  0.1611  0.4914  0.0654
   94loPI   C2B 1502   7.143  13.517   8.772  0.1473  0.0012 -0.0991
   94loPI   C3B 1503   7.128  13.678   8.450 -0.0332 -0.2207  0.0184
   94loPI   C4B 1504   7.139  13.611   8.040 -0.1021 -0.1036  0.0820
   95loPI    C1 1505  14.545  17.473   9.361  0.1913 -0.0400  0.0038
   95loPI    C2 1506  14.888  17.637   9.487  0.3315 -0.2219 -0.1343
   95loPI    C3 1507  14.656  17.435   9.744  0.3747 -0.1796 -0.0617
   95loPI   PO4 1508  14.615  17.341   9.090 -0.0704 -0.0502 -0.0971
   95loPI   GL1 1509  14.838  17.334   8.763 -0.0567 -0.1821 -0.0428
   95loPI   GL2 1510  14.832  17.617   8.684 -0.0519  0.3518 -0.0133
   95loPI   C1A 1511  14.893  17.129   8.308 -0.0524  0.0928 -0.2269
   95loPI   C2A 1512  15.099  17.136   7.932 -0.0813  0.2056 -0.0626
   95loPI   C3A 1513  15.150  17.062   7.603 -0.0978 -0.1268  0.3304
   95loPI   C4A 1514  15.093  17.086   7.109  0.1675  0.1291 -0.3097
   95loPI   C5A 1515  15.329  16.989   6.712 -0.1407 -0.0933  0.1762
   95loPI   C6A 1516  15.750  17.000   6.434  0.1625 -0.4398  0.0639
   95loPI   C1B 1517  14.547  17.501   8.334 -0.0389 -0.3178  0.2517
   95loPI   C2B 1518  14.601  17.434   7.934 -0.1575 -0.1744  0.0701
   95loPI   C3B 1519  14.688  17.309   7.571 -0.1678 -0.0709  0.3069
   95loPI   C4B 1520  14.514  17.128   7.216 -0.0596 -0.0221  0.1310
   96loPI    C1 1521  12.569  14.584   9.963  0.1565  0.3831 -0.2662
   96loPI    C2 1522  12.922  14.477  10.117 -0.1356  0.0598  0.2059
   96loPI    C3 1523  12.679  14.719  10.323 -0.3305  0.0114  0.0362
   96loPI   PO4 1524  12.661  14.425   9.738  0.1688 -0.0526 -0.1344
   96loPI   GL1 1525  12.409  14.432   9.226  0.2283  0.1357 -0.0169
   96loPI   GL2 1526  12.643  14.695   9.063 -0.2735 -0.0614 -0.0780
   96loPI   C1A 1527  12.099  14.653   8.967 -0.2228 -0.1464 -0.5504
   96loPI   C2A 1528  11.623  14.713   8.869 -0.0168  0.2207 -0.3847
   96loPI   C3A 1529  11.337  14.552   8.555 -0.1023 -0.0633 -0.1859
   96loPI   C4A 1530  11.220  14.728   8.221 -0.0169  0.0773  0.1048
   96loPI   C5A 1531  11.087  14.666   7.825 -0.1930  0.2278 -0.3505
   96loPI   C6A 1532  11.154  14.574   7.358 -0.1250  0.0261  0.1516
   96loPI   C1B 1533  12.379  14.967   8.756 -0.0989 -0.3070  0.1374
   96loPI   C2B 1534  11.974  14.941   8.539 -0.0542 -0.0485 -0.0196
   96loPI   C3B 1535  11.708  14.712   8.182 -0.3267  0.0026  0.3832
   96loPI   C4B 1536  11.682  14.456   7.828  0.0962 -0.0851  0.0438
   97loPI    C1 1537  17.260   5.643   9.762 -0.3098  0.1682  0.1113
   97loPI    C2 1538  17.068   5.293   9.740  0.0378 -0.0208  0.0096
   97loPI    C3 1539  16.958   5.597   9.505  0.0282 -0.2085 -0.2322
   97loPI   PO4 1540  17.589   5.526   9.749  0.2998  0.2165 -0.1054
   97loPI   GL1 1541  17.802   5.363   9.425  0.0429  0.2179  0.0632
   97loPI   GL2 1542  17.385   5.273   9.329 -0.2565  0.2169 -0.2388
   97loPI   C1A 1543  18.059   5.172   9.088 -0.3852 -0.0152 -0.1809
   97loPI   C2A 1544  18.197   5.169   8.662 -0.1952 -0.1155  0.0641
   97loPI   C3A 1545  18.342   5.262   8.330 -0.2001 -0.1118 -0.0025
   97loPI   C4A 1546  18.665   5.313   7.950 -0.2227 -0.2185  0.1273
   97loPI   C5A 1547  18.746   5.447   7.524  0.1396  0.0547 -0.0007
   97loPI   C6A 1548  19.051   5.436   7.142 -0.1271 -0.1715  0.2770
   97loPI   C1B 1549  17.543   5.217   8.879  0.3499 -0.1304 -0.1719
   97loPI   C2B 1550  17.701   5.135   8.433  0.1043 -0.1212  0.0054
   97loPI   C3B 1551  17.655   5.134   7.999 -0.0267 -0.1268  0.4157
   97loPI   C4B 1552  17.699   5.183   7.660 -0.1254 -0.0191  0.1243
   98loPI    C1 1553  13.584  16.359   9.517 -0.1342  0.2267  0.1318
   98loPI    C2 1554  13.912  16.222   9.700 -0.1584 -0.0815 -0.0496
   98loPI    C3 1555  13.554  16.180   9.874 -0.1261  0.0742  0.0566
   98loPI   PO4 1556  13.609  16.296   9.230  0.0681 -0.2315  0.1185
   98loPI   GL1 1557  13.375  16.358   8.873 -0.2396  0.0559 -0.4926
   98loPI   GL2 1558  13.699  16.538   8.687  0.1689 -0.2757 -0.1650
   98loPI   C1A 1559  13.190  16.224   8.541  0.0022 -0.1045  0.0054
   98loPI   C2A 1560  13.179  16.036   8.127 -0.1290  0.2490 -0.0859
   98loPI   C3A 1561  13.040  16.064   7.637  0.0408  0.2717  0.1929
   98loPI   C4A 1562  12.748  16.214   7.248  0.3091  0.0445 -0.1612
   98loPI   C5A 1563  12.551  16.489   6.976 -0.1052 -0.1388 -0.0069
   98loPI   C6A 1564  12.343  16.529   6.588  0.3602  0.1702 -0.2536
   98loPI   C1B 1565  13.500  16.444   8.285 -0.2826 -0.1631  0.0892
   98loPI   C2B 1566  13.723  16.284   8.024 -0.2145 -0.1117 -0.0130
   98loPI   C3B 1567  13.821  16.301   7.640  0.0981 -0.0326  0.2960
   98loPI   C4B 1568  13.837  16.374   7.150  0.1440 -0.3465 -0.2948
   99loPI    C1 1569  14.451  11.504   9.608  0.0549  0.1990  0.0471
   99loPI    C2 1570  14.456  11.864   9.783 -0.2488  0.0682  0.3363
   99loPI    C3 1571  14.254  11.562   9.952 -0.4144 -0.1086 -0.1584
   99loPI   PO4 1572  14.413  11.573   9.349  0.2062 -0.1070  0.1849
   99loPI   GL1 1573  14.334  11.803   8.912 -0.0652 -0.0948 -0.1703
   99loPI   GL2 1574  14.691  11.875   9.001  0.5361  0.1409 -0.1293
   99loPI   C1A 1575  14.452  11.727   8.459 -0.1135  0.0603 -0.0013
   99loPI   C2A 1576  14.349  11.595   7.998  0.0634 -0.4008  0.1816
   99loPI   C3A 1577  14.511  11.762   7.639 -0.0701 -0.1111  0.2789
   99loPI   C4A 1578  14.735  11.673   7.287 -0.0406  0.1598 -0.0755
   99loPI   C5A 1579  15.142  11.803   7.219  0.2053  0.0885 -0.1378
   99loPI   C6A 1580  15.513  11.942   7.343 -0.1192 -0.1588 -0.2365
   99loPI   C1B 1581  14.890  12.148   8.689  0.4703  0.3564  0.0608
   99loPI   C2B 1582  15.072  12.364   8.367 -0.0702 -0.0774  0.2410
   99loPI   C3B 1583  15.306  12.472   8.074  0.0448  0.1078 -0.1906
   99loPI   C4B 1584  15.460  12.356   7.623  0.3899 -0.0586  0.2042
  100loPI    C1 1585  13.052  11.676  10.106 -0.3017  0.1930  0.0357
  100loPI    C2 1586  13.085  11.953  10.392  0.3312  0.3148 -0.1383
  100loPI    C3 1587  13.335  11.641  10.387 -0.1380 -0.0721 -0.1562
  100loPI   PO4 1588  13.058  11.893   9.832 -0.3377 -0.1865  0.0247
  100loPI   GL1 1589  12.920  11.880   9.358 -0.1758  0.0225  0.2481
  100loPI   GL2 1590  13.128  11.690   9.391  0.2350  0.1638 -0.0497
  100loPI   C1A 1591  12.701  11.671   8.974  0.2034 -0.0595  0.0161
  100loPI   C2A 1592  12.531  11.443   8.571 -0.0122  0.1092  0.1136
  100loPI   C3A 1593  12.422  11.588   8.232  0.0777 -0.1705 -0.0660
  100loPI   C4A 1594  12.384  11.725   7.926  0.1750 -0.5031 -0.0715
  100loPI   C5A 1595  12.191  11.586   7.582 -0.2635  0.0630 -0.5721
  100loPI   C6A 1596  11.954  11.743   7.437 -0.1811 -0.0701 -0.1991
  100loPI   C1B 1597  13.224  11.668   8.929  0.0002  0.4731 -0.1964
  100loPI   C2B 1598  13.023  11.533   8.530 -0.1868  0.1546 -0.0902
  100loPI   C3B 1599  13.139  11.729   8.181  0.1752  0.4048 -0.3406
  100loPI   C4B 1600  13.236  11.753   7.760 -0.4108  0.2270 -0.1835
  101loPI    C1 1601   7.419   2.495   9.982  0.2324 -0.0546  0.2247
  101loPI    C2 1602   7.043   2.592  10.078  0.1609  0.0405 -0.1355
  101loPI    C3 1603   7.314   2.531  10.366 -0.0208  0.4022  0.1202
  101loPI   PO4 1604   7.346   2.297   9.799  0.0409 -0.3432  0.2895
  101loPI   GL1 1605   7.396   2.262   9.341 -0.0426  0.0758  0.0019
  101loPI   GL2 1606   7.740   2.300   9.098 -0.1198 -0.1915 -0.1012
  101loPI   C1A 1607   7.332   2.109   8.870  0.1901  0.0131 -0.0094
  101loPI   C2A 1608   7.044   2.055   8.575 -0.2665  0.1561  0.2111
  101loPI   C3A 1609   7.017   2.109   8.150 -0.1877  0.3009 -0.1100
  101loPI   C4A 1610   6.843   2.148   7.757  0.0326  0.3523  0.0097
  101loPI   C5A 1611   6.539   2.336   7.508 -0.2400  0.1330  0.1942
  101loPI   C6A 1612   6.538   2.254   7.063  0.0160  0.0769 -0.1510
  101loPI   C1B 1613   7.820   2.002   8.786  0.0429  0.4192  0.0030
  101loPI   C2B 1614   8.100   1.740   8.710  0.2021 -0.1281  0.1808
  101loPI   C3B 1615   8.119   1.321   8.432  0.0075 -0.1303  0.0219
  101loPI   C4B 1616   7.998   0.929   8.179 -0.0310 -0.0720  0.3362
  102loPI    C1 1617   0.708  11.973   9.929 -0.0461  0.3499  0.3586
  102loPI    C2 1618   0.615  11.621  10.095  0.1744  0.0360 -0.1578
  102loPI    C3 1619   0.325  11.865   9.966  0.0237 -0.0067  0.0940
  102loPI   PO4 1620   0.871  11.870   9.775  0.0075 -0.0122 -0.0197
  102loPI   GL1 1621   1.086  11.698   9.429 -0.0106  0.0610 -0.1540
  102loPI   GL2 1622   0.834  11.737   9.305  0.0391  0.1918  0.1641
  102loPI   C1A 1623   1.240  11.510   9.095 -0.0623  0.2012  0.2512
  102loPI   C2A 1624   1.128  11.589   8.623 -0.3288  0.1562 -0.0963
  102loPI   C3A 1625   1.303  11.608   8.265  0.0119  0.0129  0.4344
  102loPI   C4A 1626   1.668  11.700   7.873 -0.0808 -0.0693 -0.2160
  102loPI   C5A 1627   1.915  11.358   7.701  0.2283  0.1006  0.0652
  102loPI   C6A 1628   2.102  10.982   7.879 -0.3158  0.4126 -0.2031
  102loPI   C1B 1629   0.804  11.864   8.876 -0.1804  0.2344  0.0565
  102loPI   C2B 1630   0.839  11.944   8.478  0.0326 -0.2584 -0.0118
  102loPI   C3B 1631   0.816  11.759   8.110 -0.0281  0.4323 -0.0006
  102loPI   C4B 1632   0.736  11.357   7.942 -0.0507 -0.2214  0.0992
  103loPI    C1 1633  19.423  13.010   9.744  0.0917  0.0581 -0.0599
  103loPI    C2 1634  19.271  13.361   9.860  0.0322  0.0330 -0.0613
  103loPI    C3 1635  19.266  13.049  10.110 -0.0656 -0.0118 -0.1185
  103loPI   PO4 1636  19.362  12.975   9.533 -0.0334 -0.0535 -0.1685
  103loPI   GL1 1637  19.434  13.004   9.179 -0.0619 -0.1926 -0.0094
  103loPI   GL2 1638  19.704  13.097   9.100 -0.0422  0.0082 -0.1377
  103loPI   C1A 1639  19.536  12.645   8.787 -0.1951  0.0007 -0.0121
  103loPI   C2A 1640  19.758  12.466   8.371 -0.2189  0.0203 -0.0209
  103loPI   C3A 1641  19.617  12.527   7.950  0.0989 -0.2153 -0.3772
  103loPI   C4A 1642  19.749  12.683   7.614  0.1690  0.5173  0.0522
  103loPI   C5A 1643  19.779  12.427   7.367  0.0648 -0.1298 -0.3282
  103loPI   C6A 1644  20.035  12.009   7.548 -0.0105 -0.0370 -0.1778
  103loPI   C1B 1645  19.709  13.115   8.720 -0.1067  0.0557 -0.1004
  103loPI   C2B 1646  19.905  12.938   8.382 -0.1655  0.1291  0.3303
  103loPI   C3B 1647  20.067  12.719   8.018  0.0603 -0.1064  0.0743
  103loPI   C4B 1648  20.224  12.585   7.587  0.2372 -0.1262  0.0453
  104loPI    C1 1649  17.225  17.739   9.164 -0.2431 -0.1437  0.0864
  104loPI    C2 1650  17.192  18.089   8.973 -0.3225 -0.2083 -0.0194
  104loPI    C3 1651  17.149  18.073   9.371 -0.2264 -0.0839 -0.0035
  104loPI   PO4 1652  17.110  17.575   8.961 -0.0326 -0.2025 -0.0582
  104loPI   GL1 1653  17.202  17.242   8.664 -0.1860  0.3186  0.0483
  104loPI   GL2 1654  17.467  17.037   8.644 -0.1913  0.1263  0.2306
  104loPI   C1A 1655  17.123  17.281   8.222 -0.0285 -0.2339  0.0927
  104loPI   C2A 1656  17.329  17.423   7.897  0.2651  0.0380  0.1970
  104loPI   C3A 1657  17.444  17.815   7.765 -0.3309  0.1490 -0.3276
  104loPI   C4A 1658  17.550  17.975   7.452 -0.1396  0.3427 -0.0431
  104loPI   C5A 1659  17.729  18.377   7.119 -0.2813  0.5688  0.0803
  104loPI   C6A 1660  17.760  18.714   6.766  0.1968 -0.0092  0.1691
  104loPI   C1B 1661  16.999  16.868   8.467  0.1515  0.0060  0.0376
  104loPI   C2B 1662  16.714  16.664   8.204  0.2726 -0.0651 -0.1324
  104loPI   C3B 1663  16.639  16.664   7.801 -0.0073 -0.0202  0.1528
  104loPI   C4B 1664  16.569  16.903   7.340  0.1696 -0.0086 -0.1331
  105loPI    C1 1665   0.140   4.880   9.972 -0.2859  0.2178  0.0258
  105loPI    C2 1666   0.529   4.913   9.884 -0.2999  0.1362 -0.0688
  105loPI    C3 1667   0.415   4.803  10.252 -0.2316  0.0574 -0.0708
  105loPI   PO4 1668   0.008   4.717   9.824 -0.1434 -0.4069 -0.1702
  105loPI   GL1 1669   0.021   4.541   9.426 -0.0691 -0.0590  0.5330
  105loPI   GL2 1670  -0.234   4.736   9.405 -0.2020  0.0199 -0.0313
  105loPI   C1A 1671   0.177   4.344   8.963 -0.0919 -0.4465  0.2491
  105loPI   C2A 1672   0.099   4.357   8.482 -0.0718 -0.3976 -0.1913
  105loPI   C3A 1673   0.105   4.314   8.059  0.0780 -0.3673 -0.1220
  105loPI   C4A 1674  -0.089   4.388   7.543  0.2885  0.1827 -0.1735
  105loPI   C5A 1675   0.183   4.332   7.209  0.0283 -0.2142  0.0315
  105loPI   C6A 1676   0.465   4.663   7.081 -0.3179 -0.0176 -0.0660
  105loPI   C1B 1677  -0.295   4.464   9.046 -0.1309 -0.1326  0.2764
  105loPI   C2B 1678  -0.387   4.216   8.639 -0.3152 -0.0006 -0.2066
  105loPI   C3B 1679  -0.220   4.040   8.301 -0.2437 -0.1692  0.5080
  105loPI   C4B 1680  -0.174   3.924   7.921 -0.0081 -0.1330 -0.0277
  106loPI    C1 1681  17.133  16.201   9.384  0.0986 -0.2264 -0.2177
  106loPI    C2 1682  16.734  16.203   9.362  0.0802  0.2127  0.0215
  106loPI    C3 1683  16.914  16.120   9.709  0.2019 -0.0409 -0.0996
  106loPI   PO4 1684  17.306  16.046   9.186 -0.1936 -0.0864  0.1146
  106loPI   GL1 1685  17.364  16.000   8.815 -0.1682  0.0323 -0.1964
  106loPI   GL2 1686  17.314  16.245   8.558 -0.0236  0.0968 -0.0762
  106loPI   C1A 1687  17.387  15.757   8.526  0.0835 -0.0335 -0.1128
  106loPI   C2A 1688  17.296  15.758   8.059  0.3079 -0.1214 -0.4264
  106loPI   C3A 1689  17.323  15.904   7.721  0.3697  0.0948  0.1045
  106loPI   C4A 1690  17.425  16.128   7.334  0.0410  0.0725 -0.1080
  106loPI   C5A 1691  17.260  16.485   6.986  0.1072 -0.3002  0.2567
  106loPI   C6A 1692  17.272  16.905   6.967 -0.0051  0.2348  0.0589
  106loPI   C1B 1693  17.285  16.275   8.039  0.0675 -0.1367  0.1134
  106loPI   C2B 1694  17.060  16.404   7.715 -0.1414  0.1778  0.4578
  106loPI   C3B 1695  16.791  16.448   7.222 -0.0836 -0.2876  0.1231
  106loPI   C4B 1696  16.445  16.574   6.972 -0.4776 -0.0838  0.0113
  107loPI    C1 1697   3.530  16.242   9.981  0.1075 -0.0892  0.1204
  107loPI    C2 1698   3.919  16.326  10.023  0.1014  0.0175 -0.0241
  107loPI    C3 1699   3.666  16.386  10.328  0.2326 -0.2601  0.1432
  107loPI   PO4 1700   3.456  16.406   9.737 -0.2827 -0.4632 -0.0409
  107loPI   GL1 1701   3.452  16.404   9.313  0.2412 -0.2145  0.0042
  107loPI   GL2 1702   3.747  16.551   9.261 -0.3009  0.1533  0.0070
  107loPI   C1A 1703   3.423  16.304   8.905 -0.2881 -0.0762 -0.4137
  107loPI   C2A 1704   3.319  16.184   8.460 -0.0670 -0.3054 -0.1176
  107loPI   C3A 1705   3.347  16.291   8.092 -0.2790 -0.1219  0.0234
  107loPI   C4A 1706   3.323  16.524   7.743  0.0373  0.0434  0.2091
  107loPI   C5A 1707   3.163  16.636   7.380  0.1424 -0.1045 -0.1214
  107loPI   C6A 1708   3.130  16.504   7.055 -0.0605 -0.0916  0.0729
  107loPI   C1B 1709   3.590  16.760   8.961  0.3901  0.1784  0.2391
  107loPI   C2B 1710   3.681  16.580   8.545 -0.0089  0.0469  0.1574
  107loPI   C3B 1711   3.675  16.728   8.130  0.0418 -0.0531  0.2972
  107loPI   C4B 1712   3.602  16.912   7.687  0.3074 -0.1852  0.0589
  108loPI    C1 1713   9.890  12.882  10.297 -0.0734 -0.0084 -0.2540
  108loPI    C2 1714   9.747  12.854  10.669  0.4070  0.0196 -0.0602
  108loPI    C3 1715   9.927  12.539  10.499  0.0918 -0.0277 -0.3150
  108loPI   PO4 1716  10.136  12.950  10.228 -0.1282 -0.1385 -0.3156
  108loPI   GL1 1717  10.283  12.779   9.882  0.2065 -0.2834 -0.3349
  108loPI   GL2 1718  10.299  13.071   9.745 -0.1767 -0.2449 -0.0101
  108loPI   C1A 1719  10.030  12.796   9.370  0.0138 -0.0278  0.0613
  108loPI   C2A 1720   9.880  12.937   9.030  0.1024  0.3273  0.0428
  108loPI   C3A 1721   9.836  12.998   8.567  0.3437 -0.1505  0.1356
  108loPI   C4A 1722   9.899  13.163   8.161 -0.1564 -0.1877  0.0373
  108loPI   C5A 1723  10.050  13.044   7.797 -0.0986  0.0484  0.1842
  108loPI   C6A 1724  10.221  12.716   7.574  0.1506 -0.1216  0.2820
  108loPI   C1B 1725  10.212  13.228   9.328 -0.3422 -0.2124  0.3062
  108loPI   C2B 1726  10.020  13.417   8.920  0.0119 -0.3852  0.0628
  108loPI   C3B 1727   9.790  13.573   8.511  0.1845 -0.0324  0.0623
  108loPI   C4B 1728   9.601  13.589   8.093 -0.2645  0.0300  0.2500
  109loPI    C1 1729   7.862   6.271   9.931  0.0862  0.1429 -0.2296
  109loPI    C2 1730   7.581   6.334   9.653 -0.0976 -0.1055 -0.1044
  109loPI    C3 1731   7.499   6.399  10.039  0.0522 -0.0763 -0.0767
  109loPI   PO4 1732   8.137   6.504   9.734 -0.2340  0.1658  0.2925
  109loPI   GL1 1733   8.009   6.756   9.474  0.4809  0.0125  0.3832
  109loPI   GL2 1734   8.015   7.047   9.516 -0.2306 -0.1434 -0.0522
  109loPI   C1A 1735   8.074   6.666   9.083  0.0753  0.1141 -0.0998
  109loPI   C2A 1736   8.153   6.885   8.621 -0.1245  0.0160  0.1751
  109loPI   C3A 1737   7.993   6.946   8.189 -0.1745 -0.0414  0.3231
  109loPI   C4A 1738   8.027   7.018   7.716  0.2403  0.0208  0.1441
  109loPI   C5A 1739   8.240   7.086   7.420  0.3498 -0.2248  0.0381
  109loPI   C6A 1740   8.542   7.098   7.170  0.1101 -0.1341  0.3579
  109loPI   C1B 1741   7.805   7.092   9.107 -0.0036 -0.1337  0.1429
  109loPI   C2B 1742   7.779   7.243   8.621  0.0309  0.2179 -0.3691
  109loPI   C3B 1743   7.694   7.319   8.198 -0.2978 -0.2012 -0.1046
  109loPI   C4B 1744   7.577   7.254   7.711 -0.0320 -0.1903 -0.0395
  110loPI    C1 1745   1.490   6.330   9.951  0.1259  0.2078 -0.1952
  110loPI    C2 1746   1.622   6.466  10.303 -0.0184 -0.1073 -0.0161
  110loPI    C3 1747   1.731   6.103  10.175 -0.1630 -0.0931 -0.1823
  110loPI   PO4 1748   1.491   6.535   9.829 -0.0890  0.0660  0.1293
  110loPI   GL1 1749   1.452   6.629   9.394  0.1176 -0.0652 -0.3738
  110loPI   GL2 1750   1.520   6.322   9.343 -0.3884 -0.0954  0.2440
  110loPI   C1A 1751   1.825   6.558   9.037 -0.1277  0.0539 -0.3342
  110loPI   C2A 1752   1.927   6.623   8.694  0.0342 -0.3811 -0.3691
  110loPI   C3A 1753   2.092   6.409   8.249 -0.1709 -0.1448 -0.1702
  110loPI   C4A 1754   1.974   6.490   7.747  0.0783 -0.2237  0.0329
  110loPI   C5A 1755   1.792   6.521   7.373 -0.2704  0.5079 -0.2774
  110loPI   C6A 1756   1.359   6.560   7.180  0.1792 -0.0736  0.3357
  110loPI   C1B 1757   1.498   6.220   8.917 -0.0060  0.1059 -0.1802
  110loPI   C2B 1758   1.658   6.245   8.529  0.0406  0.0549 -0.1352
  110loPI   C3B 1759   1.531   6.256   8.074  0.5006 -0.1354  0.0846
  110loPI   C4B 1760   1.561   6.259   7.773 -0.0272 -0.2087  0.0914
  111loPI    C1 1761   1.927  18.537   9.838  0.3655 -0.3062 -0.1722
  111loPI    C2 1762   2.241  18.690  10.031  0.1960 -0.1401 -0.0237
  111loPI    C3 1763   2.050  18.372  10.181  0.1042 -0.0512  0.0492
  111loPI   PO4 1764   2.034  18.437   9.546  0.2130  0.1974 -0.0928
  111loPI   GL1 1765   2.223  18.440   9.134  0.0979  0.0372 -0.0226
  111loPI   GL2 1766   1.867  18.313   9.061  0.1621  0.0687 -0.2722
  111loPI   C1A 1767   2.201  18.100   8.764 -0.3404 -0.1257 -0.2276
  111loPI   C2A 1768   2.175  18.013   8.409  0.2004  0.1481 -0.0417
  111loPI   C3A 1769   2.010  17.928   8.075 -0.0589 -0.0817 -0.2898
  111loPI   C4A 1770   1.833  17.875   7.650  0.1701  0.4476  0.0119
  111loPI   C5A 1771   2.059  17.713   7.234 -0.0640  0.1237  0.0228
  111loPI   C6A 1772   2.512  17.622   7.016  0.2254 -0.1442  0.0651
  111loPI   C1B 1773   1.808  18.355   8.664 -0.4234  0.0253  0.1725
  111loPI   C2B 1774   1.645  18.233   8.243  0.2877 -0.3426  0.3005
  111loPI   C3B 1775   1.525  18.210   7.827 -0.1363  0.0068  0.2515
  111loPI   C4B 1776   1.338  18.246   7.357 -0.1265 -0.0694  0.0194
  112loPI    C1 1777   8.225  18.734   9.855 -0.1003 -0.0524  0.1713
  112loPI    C2 1778   8.489  18.488   9.682 -0.1449  0.1399 -0.1796
  112loPI    C3 1779   8.233  18.347   9.955  0.0251 -0.1397 -0.1613
  112loPI   PO4 1780   8.075  18.863   9.668  0.0831 -0.0982  0.0355
  112loPI   GL1 1781   7.903  18.938   9.180  0.2522 -0.1326 -0.1936
  112loPI   GL2 1782   7.796  18.647   9.299 -0.0689 -0.0757 -0.0910
  112loPI   C1A 1783   7.873  19.064   8.752 -0.2100 -0.0544  0.1690
  112loPI   C2A 1784   7.800  19.202   8.370  0.0892  0.3164  0.0499
  112loPI   C3A 1785   7.908  19.335   7.903  0.2367  0.2941 -0.0399
  112loPI   C4A 1786   8.215  19.487   7.490  0.1198  0.4412  0.1831
  112loPI   C5A 1787   8.443  19.269   7.077 -0.1525  0.0206 -0.4027
  112loPI   C6A 1788   8.515  18.991   6.729  0.0857  0.1280 -0.0785
  112loPI   C1B 1789   7.807  18.514   8.860 -0.1456  0.0949 -0.0615
  112loPI   C2B 1790   7.807  18.704   8.420  0.1897  0.0544 -0.3027
  112loPI   C3B 1791   7.785  18.876   7.994  0.1049 -0.1203 -0.0792
  112loPI   C4B 1792   8.012  18.953   7.603  0.1025  0.0768  0.1796
  113loPI    C1 1793   8.868   4.145  10.075 -0.0726 -0.2163  0.2220
  113loPI    C2 1794   9.237   4.143  10.228  0.0254  0.1261  0.0025
  113loPI    C3 1795   8.927   4.249  10.457  0.0636 -0.1317  0.1786
  113loPI   PO4 1796   8.915   4.310   9.837 -0.0385 -0.0147 -0.1287
  113loPI   GL1 1797   8.960   4.415   9.454  0.3014  0.1171  0.1759
  113loPI   GL2 1798   8.667   4.562   9.532 -0.0912  0.1921  0.1723
  113loPI   C1A 1799   9.234   4.255   9.088 -0.3438  0.2345 -0.0949
  113loPI   C2A 1800   9.050   4.293   8.588 -0.0201  0.1808  0.0136
  113loPI   C3A 1801   8.777   4.327   8.222  0.1313 -0.0090  0.0728
  113loPI   C4A 1802   8.394   4.167   8.068 -0.1521  0.2059 -0.1762
  113loPI   C5A 1803   8.335   3.965   7.684  0.1900  0.1514  0.0965
  113loPI   C6A 1804   8.141   3.743   7.318 -0.3072  0.1127  0.0669
  113loPI   C1B 1805   8.511   4.749   9.173  0.2566 -0.0108 -0.1099
  113loPI   C2B 1806   8.384   4.820   8.765 -0.2870  0.1753 -0.2056
  113loPI   C3B 1807   8.465   5.144   8.400 -0.3611  0.1497  0.1449
  113loPI   C4B 1808   8.537   5.438   8.011 -0.2877 -0.1319 -0.2083
  114loPI    C1 1809  13.054   4.065   9.563  0.0108  0.2056 -0.0014
  114loPI    C2 1810  12.754   4.120   9.822 -0.0309 -0.1070  0.0203
  114loPI    C3 1811  12.686   3.938   9.473  0.1137 -0.0870 -0.0192
  114loPI   PO4 1812  13.123   4.366   9.542 -0.3388 -0.0425  0.1892
  114loPI   GL1 1813  13.460   4.597   9.227  0.0507 -0.0800 -0.2243
  114loPI   GL2 1814  13.270   4.551   8.985 -0.1797 -0.0127 -0.0528
  114loPI   C1A 1815  13.792   4.343   9.058 -0.0343  0.4325  0.0829
  114loPI   C2A 1816  13.926   4.297   8.525 -0.1686 -0.2462  0.2957
  114loPI   C3A 1817  13.898   4.057   8.102  0.0967 -0.1074 -0.2307
  114loPI   C4A 1818  13.743   4.162   7.676 -0.1789 -0.0090 -0.1851
  114loPI   C5A 1819  14.016   4.371   7.498  0.1140 -0.3223 -0.1570
  114loPI   C6A 1820  14.425   4.493   7.564  0.0778 -0.0516 -0.1729
  114loPI   C1B 1821  13.356   4.297   8.697  0.2192 -0.0900  0.2622
  114loPI   C2B 1822  13.383   4.140   8.276  0.0239  0.3313  0.0289
  114loPI   C3B 1823  13.407   3.797   7.938 -0.0089  0.1448 -0.2063
  114loPI   C4B 1824  13.715   3.659   7.658  0.3619  0.2032  0.3594
  115loPI    C1 1825   4.187  16.830  10.176 -0.2792 -0.0473 -0.0904
  115loPI    C2 1826   4.252  16.932  10.557  0.0251 -0.1296 -0.1175
  115loPI    C3 1827   4.132  16.562  10.467  0.1721 -0.1781 -0.1171
  115loPI   PO4 1828   4.324  17.013  10.038  0.1626  0.0800  0.0858
  115loPI   GL1 1829   4.406  16.977   9.621  0.0210  0.0375 -0.1072
  115loPI   GL2 1830   4.199  17.172   9.463 -0.0573  0.0419  0.0930
  115loPI   C1A 1831   4.509  16.919   9.174 -0.4267 -0.0081  0.0259
  115loPI   C2A 1832   4.506  16.966   8.798  0.0841  0.1253 -0.2040
  115loPI   C3A 1833   4.523  16.872   8.355  0.0507  0.0812 -0.0413
  115loPI   C4A 1834   4.799  16.761   8.045  0.1324  0.1262  0.0801
  115loPI   C5A 1835   5.076  16.505   7.800 -0.0327 -0.1608 -0.0398
  115loPI   C6A 1836   5.493  16.401   7.676 -0.2324 -0.2445  0.0607
  115loPI   C1B 1837   4.013  17.043   9.076 -0.0339  0.1611 -0.0081
  115loPI   C2B 1838   4.078  17.010   8.604  0.1055  0.2803 -0.1934
  115loPI   C3B 1839   3.917  17.140   8.254  0.0382 -0.0345  0.2098
  115loPI   C4B 1840   3.942  17.254   7.817 -0.0153 -0.0981  0.0265
  116loPI    C1 1841   9.350  15.508   9.894  0.0358 -0.0022 -0.1893
  116loPI    C2 1842   9.709  15.459   9.725  0.0266 -0.2196 -0.1496
  116loPI    C3 1843   9.612  15.250  10.051 -0.1348 -0.1579 -0.1570
  116loPI   PO4 1844   9.179  15.447   9.693 -0.2768  0.2477  0.1995
  116loPI   GL1 1845   9.378  15.378   9.220  0.2030  0.0913 -0.2006
  116loPI   GL2 1846   9.708  15.273   9.198  0.0984 -0.2142  0.2454
  116loPI   C1A 1847   9.233  15.643   8.972 -0.1319 -0.2721  0.1642
  116loPI   C2A 1848   8.952  15.622   8.723 -0.0064  0.1290 -0.1992
  116loPI   C3A 1849   8.922  15.734   8.313  0.0799  0.1832 -0.2161
  116loPI   C4A 1850   8.778  15.946   7.958 -0.1496 -0.4349  0.0390
  116loPI   C5A 1851   8.759  16.112   7.619 -0.1260 -0.0146  0.2792
  116loPI   C6A 1852   8.747  16.019   7.151 -0.0619 -0.0244  0.0851
  116loPI   C1B 1853   9.539  15.268   8.772 -0.3317 -0.4123 -0.0465
  116loPI   C2B 1854   9.278  15.172   8.442  0.1126 -0.2289  0.0791
  116loPI   C3B 1855   9.012  15.102   8.114  0.0782 -0.1056  0.1656
  116loPI   C4B 1856   8.814  15.069   7.672  0.2466  0.2500  0.2251
  117loPI    C1 1857   2.492  10.008  10.362 -0.1051  0.0036 -0.0391
  117loPI    C2 1858   2.376  10.196  10.695 -0.1639  0.0144 -0.0655
  117loPI    C3 1859   2.173   9.877  10.565 -0.1361  0.0052 -0.0865
  117loPI   PO4 1860   2.602  10.101  10.105 -0.1857 -0.0073  0.0273
  117loPI   GL1 1861   2.726  10.095   9.656  0.0796  0.0987 -0.1370
  117loPI   GL2 1862   2.504  10.355   9.567 -0.1391  0.2883 -0.1446
  117loPI   C1A 1863   2.952  10.512   9.508  0.1553  0.1866  0.0297
  117loPI   C2A 1864   2.869  10.842   9.338  0.0996  0.1529 -0.1168
  117loPI   C3A 1865   2.929  10.824   8.827  0.6048 -0.2991 -0.2387
  117loPI   C4A 1866   2.892  10.681   8.396  0.0922  0.2891  0.3480
  117loPI   C5A 1867   2.809  10.817   7.988  0.2140 -0.2123 -0.0541
  117loPI   C6A 1868   2.533  10.844   7.652  0.0707  0.0519 -0.1249
  117loPI   C1B 1869   2.606  10.293   9.109  0.2549 -0.1468  0.0659
  117loPI   C2B 1870   2.758  10.247   8.671 -0.1210  0.3300 -0.1447
  117loPI   C3B 1871   2.979  10.116   8.283 -0.0854 -0.2343  0.0922
  117loPI   C4B 1872   3.028  10.367   7.890 -0.1922  0.2459  0.1642
  118loPI    C1 1873  16.620   7.251  10.375  0.0301 -0.2229 -0.1268
  118loPI    C2 1874  16.850   7.423  10.655 -0.1027 -0.4119  0.1024
  118loPI    C3 1875  16.738   7.041  10.695 -0.3615 -0.3567 -0.0646
  118loPI   PO4 1876  16.682   7.329  10.075 -0.0637  0.0268  0.0333
  118loPI   GL1 1877  16.740   7.156   9.717  0.1091 -0.0302 -0.0564
  118loPI   GL2 1878  16.989   7.145   9.557 -0.1959  0.1791  0.0333
  118loPI   C1A 1879  16.459   6.976   9.372  0.1610 -0.1996  0.1070
  118loPI   C2A 1880  16.189   7.302   9.119 -0.1233  0.0241 -0.0056
  118loPI   C3A 1881  16.156   7.754   9.005 -0.0604  0.1271  0.1730
  118loPI   C4A 1882  15.922   7.980   8.766  0.2179  0.1838  0.1022
  118loPI   C5A 1883  15.906   8.003   8.349 -0.2123  0.0180 -0.2820
  118loPI   C6A 1884  15.782   7.687   8.031  0.0023  0.1281  0.2870
  118loPI   C1B 1885  16.932   6.975   9.257  0.0740 -0.0249  0.4945
  118loPI   C2B 1886  16.900   7.172   8.786  0.1437  0.0397 -0.3809
  118loPI   C3B 1887  16.861   7.284   8.331  0.3849 -0.2405  0.3961
  118loPI   C4B 1888  16.733   7.163   8.036  0.0531  0.0673 -0.1244
  119loPI    C1 1889   3.669  14.733  10.288 -0.2179  0.4023 -0.0567
  119loPI    C2 1890   4.004  14.932  10.377 -0.1422  0.2203  0.0717
  119loPI    C3 1891   3.880  14.634  10.613 -0.2687  0.1323 -0.1036
  119loPI   PO4 1892   3.748  14.663  10.019 -0.2286  0.3131 -0.2048
  119loPI   GL1 1893   3.548  14.555   9.638 -0.3863  0.1260 -0.0715
  119loPI   GL2 1894   3.867  14.729   9.578  0.2740  0.0288 -0.2381
  119loPI   C1A 1895   3.440  14.242   9.396 -0.0926 -0.0757 -0.0114
  119loPI   C2A 1896   3.407  14.253   8.870  0.0936  0.2506 -0.0803
  119loPI   C3A 1897   3.585  14.221   8.462 -0.1365 -0.1761  0.1930
  119loPI   C4A 1898   3.900  14.207   8.158 -0.2570  0.0608  0.2379
  119loPI   C5A 1899   4.195  14.257   8.009 -0.1863  0.2059  0.1622
  119loPI   C6A 1900   4.419  14.364   7.565 -0.2052 -0.1785  0.0908
  119loPI   C1B 1901   3.756  14.600   9.083 -0.1724  0.1296 -0.1805
  119loPI   C2B 1902   3.930  14.484   8.686 -0.2543  0.0132  0.0688
  119loPI   C3B 1903   4.141  14.660   8.432  0.0778  0.2444  0.2340
  119loPI   C4B 1904   4.378  14.744   8.112 -0.3330  0.1443 -0.0201
  120loPI    C1 1905   4.650   5.690   9.978 -0.0358 -0.0887  0.0392
  120loPI    C2 1906   4.353   5.891  10.157 -0.1083  0.0656 -0.2478
  120loPI    C3 1907   4.711   6.064  10.108  0.0297 -0.1147  0.0842
  120loPI   PO4 1908   4.594   5.564   9.915 -0.3057  0.0468  0.0046
  120loPI   GL1 1909   4.547   5.494   9.495  0.2591  0.1619  0.2699
  120loPI   GL2 1910   4.747   5.734   9.425 -0.0310 -0.1830 -0.2213
  120loPI   C1A 1911   4.361   5.629   9.097  0.0214  0.0279  0.0853
  120loPI   C2A 1912   4.272   5.785   8.647  0.0032 -0.0645  0.3017
  120loPI   C3A 1913   4.256   5.928   8.231 -0.0144 -0.1615  0.0791
  120loPI   C4A 1914   4.469   5.934   7.941  0.0268 -0.1685  0.1930
  120loPI   C5A 1915   4.396   5.997   7.576  0.1185  0.1275 -0.0766
  120loPI   C6A 1916   4.439   6.359   7.325  0.0674 -0.2346  0.0727
  120loPI   C1B 1917   4.750   5.907   9.007 -0.0872 -0.2320  0.0502
  120loPI   C2B 1918   4.731   5.877   8.520 -0.1705  0.0761  0.0056
  120loPI   C3B 1919   4.618   5.571   8.191 -0.2638 -0.1328  0.2924
  120loPI   C4B 1920   4.799   5.424   7.822 -0.0454  0.4234  0.2652
  121loPI    C1 1921   4.074   6.313   9.879 -0.2318 -0.0466 -0.1127
  121loPI    C2 1922   3.881   6.568  10.119 -0.0545 -0.1689  0.1642
  121loPI    C3 1923   4.006   6.215  10.260 -0.0617 -0.2984 -0.1447
  121loPI   PO4 1924   4.241   6.487   9.700  0.5650 -0.0004  0.0844
  121loPI   GL1 1925   4.220   6.451   9.330 -0.0634  0.2192  0.1494
  121loPI   GL2 1926   4.290   6.158   9.180  0.0804 -0.0933 -0.1310
  121loPI   C1A 1927   3.868   6.494   9.048 -0.2062 -0.2571  0.1265
  121loPI   C2A 1928   3.833   6.776   8.669  0.2263  0.0295  0.0766
  121loPI   C3A 1929   3.893   6.788   8.208  0.1839  0.1511 -0.1871
  121loPI   C4A 1930   3.950   6.898   7.822 -0.0324  0.0690 -0.0042
  121loPI   C5A 1931   3.886   6.802   7.462 -0.0217 -0.3411  0.0145
  121loPI   C6A 1932   3.742   6.634   7.064  0.0580 -0.2896  0.3487
  121loPI   C1B 1933   4.346   6.313   8.813  0.3276  0.0623  0.3968
  121loPI   C2B 1934   4.632   6.324   8.338 -0.0719 -0.1792  0.0552
  121loPI   C3B 1935   4.691   6.468   7.959 -0.0614 -0.0491  0.2672
  121loPI   C4B 1936   4.954   6.606   7.588 -0.0393  0.3165  0.0889
  122loPI    C1 1937   1.259   7.088   9.801 -0.0994 -0.1632  0.0958
  122loPI    C2 1938   1.062   6.792   9.618 -0.0786 -0.0315 -0.1432
  122loPI    C3 1939   0.957   6.904   9.987 -0.1990 -0.2204 -0.1191
  122loPI   PO4 1940   1.528   7.021   9.683 -0.1038  0.1825  0.2390
  122loPI   GL1 1941   1.630   7.148   9.237  0.0075 -0.2252 -0.2755
  122loPI   GL2 1942   1.162   7.258   9.330 -0.0877 -0.2188 -0.2927
  122loPI   C1A 1943   1.697   7.044   8.861 -0.1562  0.1469  0.0644
  122loPI   C2A 1944   1.862   6.994   8.424  0.2125 -0.1684  0.0228
  122loPI   C3A 1945   2.133   6.898   8.146 -0.3686  0.0804  0.1673
  122loPI   C4A 1946   2.312   6.919   7.742 -0.1171  0.0386  0.0912
  122loPI   C5A 1947   2.487   6.675   7.433 -0.0117 -0.2466  0.2153
  122loPI   C6A 1948   2.857   6.361   7.465  0.4163 -0.1512  0.1439
  122loPI   C1B 1949   1.215   7.208   8.829 -0.0512  0.1258  0.0332
  122loPI   C2B 1950   1.281   7.143   8.308  0.1055  0.0995 -0.0713
  122loPI   C3B 1951   1.477   7.127   7.902 -0.1499  0.0764  0.0388
  122loPI   C4B 1952   1.652   6.981   7.588  0.0544  0.1762 -0.2988
  123loPI    C1 1953   5.889  13.703  10.344  0.2543 -0.0346 -0.0699
  123loPI    C2 1954   5.583  13.519  10.164  0.2011  0.0436 -0.0601
  123loPI    C3 1955   5.609  13.519  10.563  0.0727  0.2584 -0.0500
  123loPI   PO4 1956   5.939  13.967  10.166 -0.2976  0.0991  0.1783
  123loPI   GL1 1957   5.714  14.178   9.791  0.0989  0.1322 -0.1737
  123loPI   GL2 1958   6.023  14.033   9.585 -0.0687  0.2148  0.1469
  123loPI   C1A 1959   5.710  14.244   9.290 -0.0550  0.2192  0.0184
  123loPI   C2A 1960   5.947  14.218   8.980  0.0692 -0.0895 -0.1151
  123loPI   C3A 1961   6.026  14.305   8.633  0.0818 -0.1686  0.1213
  123loPI   C4A 1962   6.357  14.547   8.461 -0.0445  0.3051 -0.3033
  123loPI   C5A 1963   6.339  14.812   8.015  0.1485  0.1406 -0.0275
  123loPI   C6A 1964   6.619  14.907   7.697 -0.0217 -0.0485 -0.1164
  123loPI   C1B 1965   6.168  13.798   9.135  0.2226 -0.1811  0.1418
  123loPI   C2B 1966   6.336  13.856   8.660 -0.2246  0.0388 -0.1633
  123loPI   C3B 1967   6.368  14.082   8.292 -0.1109  0.0565  0.3767
  123loPI   C4B 1968   6.539  14.354   7.946 -0.0483 -0.0099  0.1016
  124loPI    C1 1969  10.289  14.819   9.955 -0.2043  0.0611 -0.1371
  124loPI    C2 1970   9.906  14.858  10.061 -0.1320  0.2578  0.0626
  124loPI    C3 1971  10.131  15.183  10.005  0.0168  0.1427 -0.0146
  124loPI   PO4 1972  10.351  14.693   9.698  0.0933 -0.2080  0.0797
  124loPI   GL1 1973  10.136  14.599   9.262  0.1725  0.0389 -0.1500
  124loPI   GL2 1974  10.506  14.449   9.305 -0.1279  0.0443 -0.1016
  124loPI   C1A 1975   9.936  14.853   8.940 -0.0176 -0.1542  0.3144
  124loPI   C2A 1976   9.877  14.950   8.495  0.0958  0.1073  0.2306
  124loPI   C3A 1977  10.064  14.791   8.094 -0.2037  0.1550 -0.1977
  124loPI   C4A 1978  10.137  14.504   7.789 -0.2674 -0.0021  0.3103
  124loPI   C5A 1979  10.289  14.133   7.574 -0.1109 -0.0080  0.1963
  124loPI   C6A 1980  10.693  13.868   7.712  0.0675 -0.0279 -0.1397
  124loPI   C1B 1981  10.312  14.290   8.953  0.0708 -0.1620 -0.1466
  124loPI   C2B 1982  10.564  14.079   8.554 -0.0137  0.1526 -0.2507
  124loPI   C3B 1983  10.818  13.916   8.254 -0.5027 -0.2961 -0.1263
  124loPI   C4B 1984  11.179  13.758   7.994 -0.0687 -0.1837 -0.1309
  125loPI    C1 1985   4.131   0.397   9.966  0.0090 -0.1479 -0.0008
  125loPI    C2 1986   4.455   0.399   9.732 -0.0841 -0.1287 -0.1308
  125loPI    C3 1987   4.366   0.720   9.953 -0.0376 -0.1183 -0.1270
  125loPI   PO4 1988   3.993   0.328   9.811  0.0968  0.3308 -0.2412
  125loPI   GL1 1989   4.072   0.126   9.332  0.2579 -0.2608 -0.0752
  125loPI   GL2 1990   3.745  -0.043   9.210  0.1119 -0.3976 -0.0778
  125loPI   C1A 1991   4.300   0.069   8.952  0.0769  0.2993  0.0071
  125loPI   C2A 1992   4.525  -0.070   8.577 -0.0301 -0.1318  0.2169
  125loPI   C3A 1993   4.587  -0.179   8.171 -0.1883  0.2275 -0.2011
  125loPI   C4A 1994   4.796  -0.273   7.793 -0.1332  0.2090  0.1006
  125loPI   C5A 1995   5.165  -0.114   7.575  0.0917  0.0468 -0.1771
  125loPI   C6A 1996   5.270   0.258   7.427  0.0660 -0.1651 -0.0916
  125loPI   C1B 1997   3.656   0.213   8.860 -0.1158  0.0757  0.1339
  125loPI   C2B 1998   3.719   0.343   8.377 -0.0381  0.1221 -0.0472
  125loPI   C3B 1999   3.740   0.579   8.135  0.0384  0.1872 -0.1164
  125loPI   C4B 2000   3.757   0.718   7.761  0.0002 -0.0759 -0.0516
  126loPI    C1 2001   2.269  10.503  10.007  0.0692  0.0421 -0.0596
  126loPI    C2 2002   2.347  10.592  10.389  0.3090 -0.1020 -0.0730
  126loPI    C3 2003   2.069  10.319  10.300  0.1330  0.0540 -0.0083
  126loPI   PO4 2004   2.270  10.674   9.885 -0.0190  0.0349  0.1989
  126loPI   GL1 2005   2.440  11.181   9.691  0.1562 -0.0470  0.1592
  126loPI   GL2 2006   2.303  10.911   9.381 -0.0487  0.2734 -0.0092
  126loPI   C1A 2007   2.610  11.275   9.271 -0.0242 -0.1042  0.2157
  126loPI   C2A 2008   2.516  11.241   8.816  0.1022  0.0008 -0.1734
  126loPI   C3A 2009   2.607  11.109   8.408  0.1711  0.0908  0.0788
  126loPI   C4A 2010   2.583  11.287   7.976 -0.0661 -0.1188 -0.1097
  126loPI   C5A 2011   2.670  11.680   7.730 -0.2726 -0.0261 -0.1599
  126loPI   C6A 2012   2.520  12.126   7.881  0.0441  0.1025 -0.2442
  126loPI   C1B 2013   2.401  10.813   9.030  0.0611 -0.0074  0.1756
  126loPI   C2B 2014   2.395  10.677   8.526 -0.0391  0.0185 -0.2587
  126loPI   C3B 2015   2.529  10.387   8.234  0.1656 -0.1331  0.0064
  126loPI   C4B 2016   2.365   9.962   8.109 -0.2553 -0.0398 -0.2960
  127loPI    C1 2017   7.888   7.273  10.137  0.1929  0.0684 -0.2448
  127loPI    C2 2018   7.819   7.632  10.300  0.1222 -0.0234 -0.0702
  127loPI    C3 2019   7.959   7.332  10.526  0.0177 -0.1540 -0.1768
  127loPI   PO4 2020   7.777   7.297   9.898  0.0072  0.0877  0.1041
  127loPI   GL1 2021   7.465   7.310   9.425  0.1191  0.0952  0.2486
  127loPI   GL2 2022   7.693   7.553   9.468  0.2111 -0.0897  0.3616
  127loPI   C1A 2023   7.309   7.173   9.015  0.1710 -0.0861 -0.0385
  127loPI   C2A 2024   7.228   7.389   8.616 -0.2566  0.2503  0.1424
  127loPI   C3A 2025   7.120   7.325   8.151 -0.0563  0.0627  0.3842
  127loPI   C4A 2026   6.720   7.147   7.968 -0.0992 -0.3554 -0.0831
  127loPI   C5A 2027   6.727   7.031   7.543 -0.2362 -0.1083  0.0954
  127loPI   C6A 2028   6.539   6.762   7.165  0.0896  0.0748 -0.0678
  127loPI   C1B 2029   7.556   7.588   9.029  0.0947 -0.0415 -0.0088
  127loPI   C2B 2030   7.724   7.752   8.606 -0.0593 -0.1656 -0.1095
  127loPI   C3B 2031   7.952   7.918   8.239  0.0779 -0.4979  0.1844
  127loPI   C4B 2032   8.053   8.318   7.958 -0.0289  0.1001 -0.1795
  128loPI    C1 2033  18.374   0.955   9.920 -0.1212 -0.0435 -0.2920
  128loPI    C2 2034  18.269   1.021  10.300 -0.0913  0.1184 -0.3112
  128loPI    C3 2035  18.343   0.649  10.175  0.0053  0.0760 -0.1306
  128loPI   PO4 2036  18.172   1.064   9.800  0.0589  0.0689 -0.0447
  128loPI   GL1 2037  18.081   1.080   9.365 -0.0114  0.1081 -0.0131
  128loPI   GL2 2038  18.161   0.796   9.298 -0.1687  0.1408  0.3693
  128loPI   C1A 2039  18.135   1.181   8.960 -0.0682  0.0344 -0.0614
  128loPI   C2A 2040  18.245   1.219   8.610 -0.2231  0.2004 -0.0653
  128loPI   C3A 2041  18.286   1.177   8.259  0.2768 -0.1933 -0.0511
  128loPI   C4A 2042  18.490   0.983   7.846  0.5292 -0.0826  0.0988
  128loPI   C5A 2043  18.702   1.056   7.389 -0.1351 -0.1190 -0.0337
  128loPI   C6A 2044  18.455   1.135   6.865 -0.0670 -0.2860  0.1642
  128loPI   C1B 2045  18.060   0.709   8.870  0.2491  0.1087 -0.1754
  128loPI   C2B 2046  18.071   0.744   8.464 -0.1139 -0.1749 -0.0800
  128loPI   C3B 2047  18.040   0.765   8.082 -0.0497 -0.3145 -0.0712
  128loPI   C4B 2048  17.845   0.603   7.774  0.1031 -0.2019  0.4580
  129loPI    C1 2049   1.991   0.476   9.852  0.2598  0.0227  0.0308
  129loPI    C2 2050   2.219   0.203  10.034 -0.0990 -0.3624 -0.0836
  129loPI    C3 2051   1.845   0.267  10.160  0.0098  0.1478 -0.0005
  129loPI   PO4 2052   2.022   0.459   9.547 -0.3079 -0.1086  0.0751
  129loPI   GL1 2053   2.093   0.345   9.219 -0.0969  0.3017 -0.0249
  129loPI   GL2 2054   2.378   0.123   9.135  0.2175  0.1217 -0.2042
  129loPI   C1A 2055   1.820   0.206   8.860 -0.0475 -0.1327 -0.0405
  129loPI   C2A 2056   1.644   0.258   8.529  0.3321 -0.1628  0.1150
  129loPI   C3A 2057   1.521   0.095   8.113 -0.1900  0.2063 -0.4722
  129loPI   C4A 2058   1.615  -0.088   7.743 -0.4857  0.1709 -0.0907
  129loPI   C5A 2059   1.294  -0.133   7.292 -0.2580  0.0640 -0.0697
  129loPI   C6A 2060   1.419  -0.138   6.910 -0.0375 -0.3012  0.0584
  129loPI   C1B 2061   2.236  -0.105   8.828  0.0086  0.1684  0.1301
  129loPI   C2B 2062   2.421  -0.406   8.593  0.2998 -0.1313 -0.3007
  129loPI   C3B 2063   2.503  -0.574   8.217  0.0548  0.2285 -0.1646
  129loPI   C4B 2064   2.445  -0.638   7.821 -0.0385 -0.0437  0.0916
  130loPI    C1 2065   9.110   9.275  10.329 -0.4076  0.0661 -0.0098
  130loPI    C2 2066   9.058   9.671  10.329  0.0703  0.1370  0.2644
  130loPI    C3 2067   9.420   9.517  10.399 -0.0871 -0.3501  0.0525
  130loPI   PO4 2068   9.008   9.219   9.937  0.1494 -0.0331 -0.1059
  130loPI   GL1 2069   8.688   8.992   9.711 -0.1204 -0.0971 -0.0481
  130loPI   GL2 2070   8.522   9.294   9.745 -0.0619  0.0493  0.1303
  130loPI   C1A 2071   8.601   8.568   9.567  0.3890  0.0075  0.2878
  130loPI   C2A 2072   8.581   8.275   9.227 -0.0530 -0.0448 -0.2449
  130loPI   C3A 2073   8.579   8.277   8.757  0.0847  0.0089 -0.1602
  130loPI   C4A 2074   8.439   8.397   8.338  0.0346 -0.2157 -0.0258
  130loPI   C5A 2075   8.492   8.589   7.914  0.1273 -0.2179 -0.1702
  130loPI   C6A 2076   8.682   8.778   7.564 -0.1649 -0.1074 -0.0133
  130loPI   C1B 2077   8.354   9.486   9.466 -0.0247 -0.0052  0.2527
  130loPI   C2B 2078   8.402   9.596   8.998  0.0363 -0.4454 -0.0809
  130loPI   C3B 2079   8.471   9.778   8.620 -0.0541  0.2220 -0.3212
  130loPI   C4B 2080   8.807   9.813   8.349 -0.1481  0.2926  0.1211
  131loPI    C1 2081  18.901  19.395   9.818 -0.0500 -0.3984 -0.0405
  131loPI    C2 2082  18.541  19.354   9.987 -0.0198 -0.1969  0.0772
  131loPI    C3 2083  18.868  19.373  10.216  0.0230  0.0656 -0.0029
  131loPI   PO4 2084  18.990  19.114   9.515  0.0052 -0.1219  0.1685
  131loPI   GL1 2085  18.894  19.334   9.150 -0.0493 -0.0288  0.2424
  131loPI   GL2 2086  18.723  19.545   9.017 -0.1297  0.1035  0.0276
  131loPI   C1A 2087  19.152  19.385   8.836 -0.1506 -0.0480 -0.2042
  131loPI   C2A 2088  19.212  19.403   8.403  0.0393  0.1298  0.3827
  131loPI   C3A 2089  19.250  19.431   7.918 -0.1046  0.2735  0.0421
  131loPI   C4A 2090  19.358  19.299   7.510  0.0076 -0.1594 -0.0372
  131loPI   C5A 2091  19.607  19.151   7.150  0.0139 -0.1810  0.0691
  131loPI   C6A 2092  19.844  18.726   7.074 -0.2167 -0.1467  0.1466
  131loPI   C1B 2093  18.628  19.571   8.578 -0.0583  0.1908  0.0111
  131loPI   C2B 2094  18.754  19.686   8.232  0.1192  0.0942  0.3271
  131loPI   C3B 2095  18.800  19.817   7.795 -0.0931  0.3642 -0.0994
  131loPI   C4B 2096  18.947  19.752   7.347 -0.1702  0.3141 -0.1166
  132loPI    C1 2097   5.250   5.697  10.087 -0.0450  0.0188 -0.1225
  132loPI    C2 2098   5.453   6.038  10.041 -0.1118  0.0782  0.0175
  132loPI    C3 2099   5.643   5.708  10.162 -0.0809  0.1110  0.0586
  132loPI   PO4 2100   5.123   5.725   9.788 -0.2823  0.2937 -0.5235
  132loPI   GL1 2101   5.228   5.578   9.426  0.1952  0.4067 -0.2691
  132loPI   GL2 2102   5.071   5.314   9.489 -0.0649  0.0671 -0.0039
  132loPI   C1A 2103   5.145   5.660   9.055  0.0507  0.1830  0.0798
  132loPI   C2A 2104   5.277   5.841   8.690  0.2161 -0.1109 -0.0545
  132loPI   C3A 2105   5.466   5.901   8.299 -0.0327  0.0271 -0.0204
  132loPI   C4A 2106   5.681   5.770   7.859 -0.2237  0.1343  0.2513
  132loPI   C5A 2107   5.728   5.816   7.460 -0.2655 -0.2978  0.0415
  132loPI   C6A 2108   5.882   5.901   7.107  0.1272 -0.1275 -0.0697
  132loPI   C1B 2109   4.731   5.265   9.093  0.0598 -0.1102 -0.2182
  132loPI   C2B 2110   4.741   5.390   8.656  0.1126  0.1140 -0.2924
  132loPI   C3B 2111   4.819   5.111   8.427 -0.1924 -0.0183  0.1411
  132loPI   C4B 2112   5.123   4.963   8.151 -0.3239 -0.1055 -0.3803
  133loPI    C1 2113  18.385  14.619   9.465  0.0538 -0.2615 -0.2424
  133loPI    C2 2114  18.134  14.363   9.641  0.0165 -0.0936 -0.0465
  133loPI    C3 2115  18.484  14.450   9.814 -0.0450  0.1157 -0.0255
  133loPI   PO4 2116  18.445  14.591   9.309 -0.2717  0.1287  0.2288
  133loPI   GL1 2117  18.316  14.413   8.843  0.1367  0.3214 -0.0314
  133loPI   GL2 2118  18.090  14.481   8.758  0.0198  0.0729  0.1928
  133loPI   C1A 2119  18.471  14.200   8.602  0.2185 -0.2502 -0.1342
  133loPI   C2A 2120  18.449  13.891   8.329  0.0390  0.3142 -0.2041
  133loPI   C3A 2121  18.598  13.811   7.903 -0.4603 -0.0361  0.2862
  133loPI   C4A 2122  18.674  13.891   7.502  0.0879  0.1218  0.0049
  133loPI   C5A 2123  18.566  14.231   7.158  0.0105  0.0239  0.0028
  133loPI   C6A 2124  18.173  14.346   7.068 -0.1881  0.2760 -0.2789
  133loPI   C1B 2125  18.147  14.490   8.342  0.1145  0.0999  0.0600
  133loPI   C2B 2126  18.438  14.315   8.126  0.2092  0.0443 -0.0318
  133loPI   C3B 2127  18.742  14.324   7.871 -0.1172 -0.0273 -0.2117
  133loPI   C4B 2128  19.019  14.476   7.843 -0.1744  0.0957  0.2518
  134loPI    C1 2129   9.916   2.495   9.603 -0.0223 -0.1543 -0.0006
  134loPI    C2 2130   9.690   2.417   9.924  0.0380  0.0303  0.0884
  134loPI    C3 2131   9.905   2.754   9.908  0.0086  0.0391 -0.1614
  134loPI   PO4 2132   9.767   2.455   9.432 -0.0839  0.1080  0.0815
  134loPI   GL1 2133   9.839   2.410   8.988  0.0842  0.0237 -0.0125
  134loPI   GL2 2134   9.834   2.103   8.830  0.0821  0.1243 -0.0602
  134loPI   C1A 2135   9.439   2.634   8.870  0.1381 -0.0102 -0.1247
  134loPI   C2A 2136   9.241   2.713   8.474  0.2172  0.1425 -0.1214
  134loPI   C3A 2137   9.114   2.719   8.101  0.2022  0.3529  0.2361
  134loPI   C4A 2138   8.781   2.674   7.805 -0.3488  0.1991 -0.0293
  134loPI   C5A 2139   8.414   2.553   7.581 -0.1935  0.5766  0.0631
  134loPI   C6A 2140   8.347   2.432   7.094 -0.1077  0.1860  0.1160
  134loPI   C1B 2141   9.426   2.123   8.597  0.0074 -0.0001 -0.0221
  134loPI   C2B 2142   9.448   2.313   8.204  0.1924  0.0012 -0.0682
  134loPI   C3B 2143   9.255   2.339   7.765 -0.2422  0.0756 -0.0301
  134loPI   C4B 2144   8.893   2.300   7.498 -0.2917 -0.0574 -0.1261
  135loPI    C1 2145  18.681   7.841   9.748 -0.4967 -0.0190 -0.0553
  135loPI    C2 2146  18.496   7.631  10.033  0.0167 -0.2776  0.0979
  135loPI    C3 2147  18.825   7.840  10.121 -0.1255  0.0783 -0.1949
  135loPI   PO4 2148  18.593   7.954   9.626  0.1233  0.2932 -0.1000
  135loPI   GL1 2149  18.649   8.129   9.283 -0.0942 -0.1689  0.4331
  135loPI   GL2 2150  18.627   7.882   9.104  0.0756 -0.1415 -0.0600
  135loPI   C1A 2151  18.540   8.400   8.959 -0.0603  0.2609  0.2163
  135loPI   C2A 2152  18.524   8.439   8.520 -0.1376  0.2135  0.1006
  135loPI   C3A 2153  18.487   8.504   8.137  0.2000 -0.2529  0.1826
  135loPI   C4A 2154  18.604   8.688   7.763  0.6394 -0.0356 -0.1354
  135loPI   C5A 2155  18.403   8.832   7.330  0.0703 -0.1540  0.3927
  135loPI   C6A 2156  18.036   9.066   7.045 -0.0356 -0.0687  0.0233
  135loPI   C1B 2157  18.699   7.962   8.729  0.0783  0.1828  0.1285
  135loPI   C2B 2158  18.564   7.960   8.371 -0.0314  0.1788  0.2141
  135loPI   C3B 2159  18.434   7.969   7.886 -0.0240 -0.0283 -0.0825
  135loPI   C4B 2160  18.389   8.201   7.507  0.0571 -0.1585 -0.1468
  136loPI    C1 2161   3.220  17.785   9.685 -0.1403 -0.2753 -0.4556
  136loPI    C2 2162   3.601  17.665   9.701 -0.0465  0.0488 -0.1124
  136loPI    C3 2163   3.334  17.515   9.958 -0.1079 -0.0257 -0.2187
  136loPI   PO4 2164   3.135  17.796   9.368 -0.0933 -0.1821  0.0725
  136loPI   GL1 2165   2.914  17.911   8.991  0.2907  0.1275  0.1687
  136loPI   GL2 2166   3.166  17.906   8.716 -0.2665  0.1381  0.3274
  136loPI   C1A 2167   3.279  18.307   8.954 -0.0917 -0.1918  0.0841
  136loPI   C2A 2168   3.727  18.453   8.982 -0.0323  0.0817 -0.2331
  136loPI   C3A 2169   3.893  18.773   8.699  0.0541 -0.1251 -0.2543
  136loPI   C4A 2170   3.913  18.984   8.378  0.0963  0.3035 -0.0925
  136loPI   C5A 2171   4.100  19.120   8.065  0.1140 -0.0440 -0.5128
  136loPI   C6A 2172   4.020  19.318   7.731  0.0392 -0.2307  0.0201
  136loPI   C1B 2173   2.990  17.762   8.212  0.4058  0.1535  0.1739
  136loPI   C2B 2174   2.505  17.763   8.139 -0.2831  0.0509  0.2931
  136loPI   C3B 2175   2.363  17.976   7.787 -0.0579 -0.0725  0.2225
  136loPI   C4B 2176   2.202  18.139   7.456 -0.0619  0.2930 -0.0957
  137loPI    C1 2177  12.632  13.591   9.828 -0.0371 -0.0215  0.1790
  137loPI    C2 2178  12.816  13.921   9.959  0.3782 -0.1621 -0.0328
  137loPI    C3 2179  12.910  13.565  10.114  0.1470 -0.2169 -0.0141
  137loPI   PO4 2180  12.644  13.589   9.444  0.2856 -0.4765 -0.1229
  137loPI   GL1 2181  12.932  13.576   9.129 -0.2094 -0.5176  0.0742
  137loPI   GL2 2182  13.172  13.753   8.996  0.0781  0.2399  0.0357
  137loPI   C1A 2183  12.729  13.586   8.670  0.1459 -0.0041 -0.0130
  137loPI   C2A 2184  12.831  13.571   8.280  0.0345 -0.0451  0.1584
  137loPI   C3A 2185  13.086  13.679   7.898  0.0922 -0.2702  0.1749
  137loPI   C4A 2186  13.179  13.745   7.480  0.1367 -0.3281  0.0420
  137loPI   C5A 2187  13.520  14.010   7.194 -0.0124 -0.1796 -0.1390
  137loPI   C6A 2188  13.751  14.385   7.182  0.1241  0.1418 -0.1516
  137loPI   C1B 2189  13.335  13.503   8.749 -0.1464 -0.0964  0.1849
  137loPI   C2B 2190  13.365  13.532   8.345 -0.2246  0.2888 -0.3296
  137loPI   C3B 2191  13.582  13.544   8.010  0.1796 -0.3687  0.1596
  137loPI   C4B 2192  13.689  13.656   7.603  0.1442 -0.3235  0.0870
  138loPI    C1 2193   1.749  10.529  10.031  0.0260 -0.1794  0.1684
  138loPI    C2 2194   1.352  10.494  10.061 -0.0050  0.1148  0.1309
  138loPI    C3 2195   1.578  10.492  10.391 -0.0422  0.0099  0.1564
  138loPI   PO4 2196   1.780  10.615   9.814  0.0594 -0.2825  0.4490
  138loPI   GL1 2197   1.892  10.444   9.358 -0.1261 -0.0673 -0.0776
  138loPI   GL2 2198   1.775  10.827   9.348 -0.1899 -0.4358 -0.0469
  138loPI   C1A 2199   2.115  10.340   9.104  0.0270  0.0700 -0.0465
  138loPI   C2A 2200   2.092  10.126   8.764  0.0991  0.0154  0.0942
  138loPI   C3A 2201   1.967   9.880   8.362  0.0418 -0.0573 -0.1426
  138loPI   C4A 2202   1.930  10.028   7.997 -0.2117  0.0310 -0.1796
  138loPI   C5A 2203   2.093  10.048   7.615 -0.2107 -0.2027 -0.0603
  138loPI   C6A 2204   2.426   9.814   7.461 -0.0204  0.0211 -0.3782
  138loPI   C1B 2205   1.903  10.760   8.860  0.0592 -0.3769 -0.0711
  138loPI   C2B 2206   1.991  10.920   8.379 -0.1003  0.2392  0.0084
  138loPI   C3B 2207   2.141  11.314   8.241 -0.1189  0.0501  0.0118
  138loPI   C4B 2208   2.254  11.637   8.035 -0.3499  0.1028 -0.1016
  139loPI    C1 2209  15.150   9.701   9.282  0.0944 -0.2247  0.1600
  139loPI    C2 2210  15.118   9.439   9.583  0.0525  0.0070  0.3603
  139loPI    C3 2211  15.387   9.735   9.603 -0.2507  0.2883  0.3745
  139loPI   PO4 2212  14.969   9.850   9.141  0.2460 -0.4224 -0.0272
  139loPI   GL1 2213  14.866   9.797   8.682 -0.0527  0.1885  0.0311
  139loPI   GL2 2214  14.733   9.554   8.848 -0.6318  0.1118  0.0736
  139loPI   C1A 2215  14.561   9.875   8.400  0.4821  0.1112  0.2794
  139loPI   C2A 2216  14.425   9.659   8.122 -0.2400  0.0251 -0.0274
  139loPI   C3A 2217  14.456   9.711   7.650  0.3321 -0.1521 -0.0448
  139loPI   C4A 2218  14.273   9.586   7.210  0.2897  0.0756  0.3906
  139loPI   C5A 2219  13.944   9.305   7.112 -0.0887  0.3465 -0.2589
  139loPI   C6A 2220  13.758   8.878   7.225 -0.3000  0.0250  0.1681
  139loPI   C1B 2221  14.795   9.208   8.595 -0.1768 -0.1907  0.2241
  139loPI   C2B 2222  14.836   9.124   8.169 -0.1523 -0.2187  0.1277
  139loPI   C3B 2223  14.667   9.220   7.753 -0.0225 -0.1598 -0.1538
  139loPI   C4B 2224  14.147   9.266   7.579  0.3120  0.3594  0.1847
  140loPI    C1 2225   8.284   8.906  10.400 -0.0552 -0.0603 -0.0379
  140loPI    C2 2226   8.037   9.011  10.697 -0.0726 -0.0900 -0.0419
  140loPI    C3 2227   8.432   9.052  10.742 -0.0594 -0.3334  0.0832
  140loPI   PO4 2228   8.316   9.041  10.100  0.0347 -0.2095 -0.2133
  140loPI   GL1 2229   8.126   8.906   9.774 -0.2630  0.0316  0.1807
  140loPI   GL2 2230   8.107   8.565   9.932 -0.1828  0.1055  0.1681
  140loPI   C1A 2231   8.295   8.925   9.270 -0.0590  0.0513  0.0178
  140loPI   C2A 2232   8.363   8.876   8.759  0.1265 -0.2341  0.2127
  140loPI   C3A 2233   8.564   8.921   8.328  0.0279 -0.1384  0.0888
  140loPI   C4A 2234   8.869   9.003   7.954  0.0380  0.1244 -0.1582
  140loPI   C5A 2235   8.957   9.269   7.611 -0.2493  0.0790  0.0201
  140loPI   C6A 2236   9.292   9.401   7.290 -0.0789 -0.0255 -0.1067
  140loPI   C1B 2237   8.111   8.548   9.478 -0.0754  0.0889 -0.0309
  140loPI   C2B 2238   8.196   8.437   9.034  0.2594  0.2554 -0.3560
  140loPI   C3B 2239   8.013   8.567   8.587 -0.0386 -0.1517  0.1281
  140loPI   C4B 2240   8.065   8.757   8.235 -0.1426  0.1662  0.3681
  141loPI    C1 2241  12.456  17.108   9.817  0.1028  0.0037 -0.0551
  141loPI    C2 2242  12.760  17.256  10.030 -0.1073  0.1449  0.1518
  141loPI    C3 2243  12.444  17.097  10.217 -0.1069 -0.1155 -0.0631
  141loPI   PO4 2244  12.532  17.013   9.568  0.0325 -0.5357  0.0466
  141loPI   GL1 2245  12.392  16.894   9.177 -0.1554 -0.0983  0.1776
  141loPI   GL2 2246  12.738  17.091   9.096 -0.1184 -0.1627 -0.0392
  141loPI   C1A 2247  12.278  17.164   8.866  0.2072  0.0322  0.0821
  141loPI   C2A 2248  12.147  17.206   8.472  0.0752 -0.0077  0.2211
  141loPI   C3A 2249  12.116  17.171   7.965 -0.0610  0.0639 -0.4321
  141loPI   C4A 2250  12.170  17.145   7.616  0.2015 -0.1777  0.2001
  141loPI   C5A 2251  12.240  17.151   7.130  0.0468  0.0656  0.1051
  141loPI   C6A 2252  12.576  17.017   6.894 -0.1816 -0.1426 -0.1209
  141loPI   C1B 2253  12.703  17.011   8.671  0.4372 -0.1572  0.0603
  141loPI   C2B 2254  12.527  16.757   8.287 -0.1469  0.1075 -0.2190
  141loPI   C3B 2255  12.420  16.721   7.814  0.2406 -0.1532  0.1068
  141loPI   C4B 2256  12.334  16.756   7.358  0.2201 -0.0494 -0.0829
  142loPI    C1 2257  11.826  18.669   9.441 -0.0800  0.0392 -0.1548
  142loPI    C2 2258  11.961  18.611   9.069  0.0554 -0.0098 -0.0982
  142loPI    C3 2259  12.088  18.925   9.282  0.0373 -0.0246 -0.0657
  142loPI   PO4 2260  11.570  18.509   9.382  0.1722  0.1108 -0.1898
  142loPI   GL1 2261  11.531  18.313   9.021 -0.2129 -0.2890  0.3193
  142loPI   GL2 2262  11.167  18.177   8.989 -0.4852 -0.1640 -0.0985
  142loPI   C1A 2263  11.451  18.598   8.610 -0.0206  0.2084 -0.1806
  142loPI   C2A 2264  11.333  18.419   8.168  0.1962 -0.2069  0.0259
  142loPI   C3A 2265  11.173  18.313   7.798 -0.2573  0.1865 -0.1011
  142loPI   C4A 2266  11.113  17.899   7.498  0.4522 -0.0248 -0.1928
  142loPI   C5A 2267  10.963  17.817   7.093 -0.1611  0.1757 -0.2716
  142loPI   C6A 2268  11.074  17.761   6.603  0.0821 -0.0663 -0.0098
  142loPI   C1B 2269  10.941  18.336   8.592  0.2816  0.3217  0.0420
  142loPI   C2B 2270  10.881  18.190   8.267 -0.1741 -0.0527 -0.0020
  142loPI   C3B 2271  10.758  17.822   7.959  0.0540  0.2037 -0.0809
  142loPI   C4B 2272  10.621  17.917   7.543 -0.0244  0.2367 -0.0519
  143loPI    C1 2273   6.105   6.677  10.219 -0.2234  0.0145  0.1195
  143loPI    C2 2274   6.302   6.331  10.259 -0.1993  0.0261  0.1012
  143loPI    C3 2275   6.389   6.640  10.498 -0.0935  0.0778 -0.0035
  143loPI   PO4 2276   6.058   6.610   9.882  0.1979  0.0529  0.3437
  143loPI   GL1 2277   5.931   6.527   9.415 -0.1848  0.1581 -0.0657
  143loPI   GL2 2278   6.213   6.744   9.302 -0.0768  0.1140 -0.2212
  143loPI   C1A 2279   5.638   6.302   9.079 -0.0351  0.0870  0.1641
  143loPI   C2A 2280   5.783   6.158   8.645 -0.1240  0.1198 -0.1854
  143loPI   C3A 2281   6.017   5.928   8.260 -0.1122  0.0263 -0.0437
  143loPI   C4A 2282   6.152   5.649   7.862  0.1691 -0.3408  0.0514
  143loPI   C5A 2283   6.214   5.441   7.481  0.4806 -0.0557  0.0831
  143loPI   C6A 2284   6.017   5.134   7.166  0.1397  0.0966 -0.4678
  143loPI   C1B 2285   6.122   6.558   8.848 -0.0849  0.0582  0.1407
  143loPI   C2B 2286   6.119   6.445   8.379 -0.1255  0.5444 -0.1369
  143loPI   C3B 2287   6.293   6.398   8.018 -0.2847 -0.1035  0.1437
  143loPI   C4B 2288   6.417   6.621   7.659  0.0101  0.2121 -0.0242
  144loPI    C1 2289   7.298  19.432   9.501 -0.0899 -0.1195  0.1736
  144loPI    C2 2290   6.909  19.483   9.424 -0.0124  0.2352 -0.0041
  144loPI    C3 2291   7.025  19.225   9.707 -0.3710  0.0705 -0.0019
  144loPI   PO4 2292   7.495  19.805   9.487 -0.0288 -0.0696  0.2630
  144loPI   GL1 2293   7.442  19.872   9.076  0.1234 -0.0503  0.1352
  144loPI   GL2 2294   7.386  20.167   9.078  0.0765  0.1597 -0.3741
  144loPI   C1A 2295   7.117  19.920   8.777  0.1661  0.0952 -0.4755
  144loPI   C2A 2296   7.021  20.164   8.422  0.1819 -0.1822  0.1398
  144loPI   C3A 2297   6.819  19.954   7.945  0.1712  0.0041  0.0066
  144loPI   C4A 2298   6.673  19.687   7.619 -0.0665  0.1655 -0.0438
  144loPI   C5A 2299   6.603  19.224   7.713 -0.1048  0.0091 -0.0701
  144loPI   C6A 2300   6.690  19.019   8.121 -0.0033  0.0633 -0.0367
  144loPI   C1B 2301   7.485  20.191   8.628 -0.3277  0.0344 -0.0378
  144loPI   C2B 2302   7.501  20.217   8.223  0.0455 -0.1603  0.1853
  144loPI   C3B 2303   7.276  20.065   7.904  0.1625  0.0409  0.1519
  144loPI   C4B 2304   7.200  19.836   7.579  0.2150  0.1086 -0.1050
  145loPI    C1 2305  14.521  14.911   9.389 -0.0186 -0.1235 -0.0967
  145loPI    C2 2306  14.325  15.138   9.655  0.0450  0.1888 -0.3104
  145loPI    C3 2307  14.442  14.769   9.754  0.1808  0.3462  0.1387
  145loPI   PO4 2308  14.364  14.946   9.110 -0.1013  0.0293  0.1583
  145loPI   GL1 2309  14.369  14.785   8.726 -0.0320 -0.0006 -0.3004
  145loPI   GL2 2310  14.110  14.512   8.900 -0.1497 -0.0977 -0.0434
  145loPI   C1A 2311  14.086  14.928   8.409  0.3847  0.2232 -0.3319
  145loPI   C2A 2312  13.819  14.877   8.077 -0.0417  0.5620 -0.2182
  145loPI   C3A 2313  13.579  14.659   7.763 -0.0574  0.5163 -0.0872
  145loPI   C4A 2314  13.380  14.501   7.433 -0.0897 -0.0381 -0.2600
  145loPI   C5A 2315  13.121  14.323   7.152 -0.1765  0.1888 -0.0675
  145loPI   C6A 2316  12.754  14.453   6.958  0.2659  0.1163  0.3305
  145loPI   C1B 2317  13.789  14.445   8.639  0.1333 -0.0470  0.2579
  145loPI   C2B 2318  13.503  14.526   8.274  0.0156  0.1727  0.2076
  145loPI   C3B 2319  13.118  14.540   7.978 -0.2175  0.1942 -0.0990
  145loPI   C4B 2320  12.716  14.512   8.036 -0.2214  0.3672 -0.0524
  146loPI    C1 2321   5.156   2.380   9.551 -0.1287  0.0331 -0.0409
  146loPI    C2 2322   4.853   2.147   9.434 -0.1554  0.0469  0.0003
  146loPI    C3 2323   4.860   2.295   9.805 -0.0468 -0.0363  0.0318
  146loPI   PO4 2324   5.275   2.540   9.431  0.0998 -0.1636 -0.0545
  146loPI   GL1 2325   5.412   2.647   9.133  0.1781  0.0171 -0.0971
  146loPI   GL2 2326   5.529   2.911   9.042 -0.2119 -0.2069  0.0436
  146loPI   C1A 2327   5.409   2.473   8.708  0.2247  0.0169 -0.1764
  146loPI   C2A 2328   5.227   2.565   8.347  0.0203 -0.0989  0.3593
  146loPI   C3A 2329   5.173   2.361   7.962  0.3069 -0.2237 -0.2745
  146loPI   C4A 2330   5.032   2.171   7.602 -0.1780  0.3651 -0.0403
  146loPI   C5A 2331   5.170   1.750   7.313 -0.3170  0.4401  0.0564
  146loPI   C6A 2332   5.363   1.457   6.990  0.2906 -0.0621  0.0851
  146loPI   C1B 2333   5.225   3.008   8.713 -0.1996 -0.1192  0.0963
  146loPI   C2B 2334   4.987   3.145   8.388 -0.0309  0.1430  0.2537
  146loPI   C3B 2335   4.849   3.283   7.915  0.0521 -0.0511 -0.1318
  146loPI   C4B 2336   4.908   3.583   7.589  0.1307 -0.0545  0.1562
  147loPI    C1 2337  16.412   9.166   9.987  0.1661  0.3406  0.2045
  147loPI    C2 2338  16.777   9.220   9.834  0.1582  0.0145  0.0618
  147loPI    C3 2339  16.731   9.165  10.227  0.2733 -0.0361  0.0686
  147loPI   PO4 2340  16.298   8.959   9.865  0.1440 -0.0353  0.2153
  147loPI   GL1 2341  16.323   8.640   9.569 -0.1394  0.0339 -0.2587
  147loPI   GL2 2342  16.493   8.566   9.280 -0.1531 -0.0034 -0.1301
  147loPI   C1A 2343  16.090   8.292   9.377  0.2471  0.2529  0.0838
  147loPI   C2A 2344  15.712   8.382   9.071  0.0571 -0.1651  0.2608
  147loPI   C3A 2345  15.484   8.444   8.647 -0.1113  0.1267  0.1822
  147loPI   C4A 2346  15.462   8.297   8.274 -0.0056 -0.0133 -0.0766
  147loPI   C5A 2347  15.683   8.277   7.933  0.3959 -0.0123 -0.3222
  147loPI   C6A 2348  15.636   8.285   7.549  0.2107 -0.1908  0.0365
  147loPI   C1B 2349  16.234   8.327   8.909  0.0892  0.1247 -0.3748
  147loPI   C2B 2350  16.001   8.435   8.558  0.1314 -0.4409  0.2347
  147loPI   C3B 2351  15.986   8.580   8.216  0.2568  0.3386  0.2641
  147loPI   C4B 2352  15.748   8.766   8.014 -0.0759 -0.3023 -0.2739
  148loPI    C1 2353  10.767   6.200   9.690  0.0526  0.1465 -0.0404
  148loPI    C2 2354  10.460   6.409   9.839 -0.0902 -0.1605  0.1033
  148loPI    C3 2355  10.559   6.056   9.999  0.1401 -0.2118 -0.1440
  148loPI   PO4 2356  10.727   6.226   9.393  0.1594  0.1154  0.1744
  148loPI   GL1 2357  10.730   5.989   9.098 -0.4047 -0.3669  0.0579
  148loPI   GL2 2358  10.390   6.144   9.039  0.0968 -0.0982 -0.4306
  148loPI   C1A 2359  10.567   5.998   8.639  0.2094  0.2119  0.0471
  148loPI   C2A 2360  10.585   5.814   8.243  0.3337 -0.0644  0.2252
  148loPI   C3A 2361  10.658   5.381   7.937  0.1691  0.2973  0.0267
  148loPI   C4A 2362  11.004   5.153   7.692 -0.0245  0.2453  0.2022
  148loPI   C5A 2363  11.337   4.706   7.674  0.1698 -0.0883 -0.1324
  148loPI   C6A 2364  11.790   4.873   7.700  0.1484  0.0279 -0.3310
  148loPI   C1B 2365  10.150   6.348   8.680 -0.2202 -0.2655 -0.2068
  148loPI   C2B 2366   9.969   6.298   8.204  0.0452 -0.1933  0.1018
  148loPI   C3B 2367  10.167   6.350   7.871  0.0385 -0.3671  0.0597
  148loPI   C4B 2368  10.516   6.680   7.689  0.2347 -0.0885  0.4143
  149loPI    C1 2369  18.572  12.345   9.516  0.0240 -0.3800  0.0252
  149loPI    C2 2370  18.559  12.665   9.755  0.1473 -0.1118 -0.3190
  149loPI    C3 2371  18.634  12.304   9.908 -0.0076  0.0185  0.0760
  149loPI   PO4 2372  18.600  12.383   9.304  0.0264 -0.2716  0.3708
  149loPI   GL1 2373  18.791  12.057   9.104  0.3116 -0.1038 -0.0139
  149loPI   GL2 2374  19.086  12.043   9.033 -0.0524 -0.1670 -0.1561
  149loPI   C1A 2375  18.531  11.934   8.745 -0.1233 -0.1004 -0.1690
  149loPI   C2A 2376  18.733  12.103   8.391  0.2415  0.1388  0.1426
  149loPI   C3A 2377  18.659  12.089   8.009 -0.1053  0.0488 -0.0541
  149loPI   C4A 2378  18.813  11.936   7.616 -0.1039 -0.3063 -0.3617
  149loPI   C5A 2379  18.736  11.576   7.398 -0.0125  0.0455  0.0399
  149loPI   C6A 2380  18.340  11.380   7.093  0.1704 -0.0796  0.2563
  149loPI   C1B 2381  19.130  12.285   8.616  0.0872 -0.2362  0.1408
  149loPI   C2B 2382  19.188  12.276   8.156  0.1251  0.2614 -0.0054
  149loPI   C3B 2383  19.066  12.347   7.805 -0.0380 -0.2037  0.0962
  149loPI   C4B 2384  19.197  12.496   7.505  0.1741  0.2137 -0.0512
  150loPI    C1 2385   4.111   2.070   9.091  0.0557  0.2358 -0.0702
  150loPI    C2 2386   4.491   1.944   9.098 -0.0848 -0.2011  0.0079
  150loPI    C3 2387   4.357   2.193   9.382  0.1027 -0.1626  0.0638
  150loPI   PO4 2388   3.946   1.818   9.001  0.3656 -0.0045  0.2250
  150loPI   GL1 2389   3.657   1.750   8.613  0.0861  0.0117  0.2665
  150loPI   GL2 2390   3.708   2.064   8.563  0.1682 -0.1272 -0.2471
  150loPI   C1A 2391   3.461   1.746   8.316 -0.1869  0.4261  0.0270
  150loPI   C2A 2392   3.246   1.589   7.895 -0.0664  0.0656 -0.4788
  150loPI   C3A 2393   3.095   1.433   7.471 -0.1607 -0.1855 -0.2260
  150loPI   C4A 2394   2.885   1.398   7.028 -0.1401 -0.0149 -0.0970
  150loPI   C5A 2395   2.892   1.607   6.660 -0.2360 -0.0373  0.0186
  150loPI   C6A 2396   2.472   1.362   6.511  0.0657  0.2404  0.2717
  150loPI   C1B 2397   3.970   2.041   8.194  0.3089 -0.2458 -0.0305
  150loPI   C2B 2398   4.079   2.083   7.726  0.0797  0.0592  0.3090
  150loPI   C3B 2399   4.049   2.485   7.524  0.3144 -0.0374 -0.0542
  150loPI   C4B 2400   3.749   2.748   7.204  0.0146  0.1475 -0.1780
  151loPI    C1 2401   7.413   6.994   9.866 -0.0018 -0.1704 -0.0608
  151loPI    C2 2402   7.021   6.990   9.947  0.0246  0.0921  0.0909
  151loPI    C3 2403   7.199   7.330   9.833  0.2075 -0.0275  0.0142
  151loPI   PO4 2404   7.490   6.826   9.646 -0.1290  0.1290  0.0875
  151loPI   GL1 2405   7.495   6.694   9.233  0.1590  0.3325  0.0372
  151loPI   GL2 2406   7.198   6.747   9.216  0.2719  0.3129 -0.2068
  151loPI   C1A 2407   7.614   6.724   8.849 -0.0267 -0.1104  0.0981
  151loPI   C2A 2408   7.571   6.808   8.408 -0.0222  0.0610 -0.3387
  151loPI   C3A 2409   7.477   6.821   8.000  0.0421  0.1982  0.2971
  151loPI   C4A 2410   7.545   6.684   7.651 -0.3011 -0.1227  0.0278
  151loPI   C5A 2411   7.609   6.330   7.376 -0.0443 -0.1353 -0.0620
  151loPI   C6A 2412   7.646   5.983   7.121  0.2817 -0.2423  0.0780
  151loPI   C1B 2413   7.056   6.700   8.794 -0.2238 -0.0146 -0.1616
  151loPI   C2B 2414   7.072   6.873   8.426 -0.1355 -0.3005  0.1930
  151loPI   C3B 2415   6.907   6.692   8.003 -0.0637 -0.1428  0.1683
  151loPI   C4B 2416   7.065   6.509   7.592 -0.0945 -0.0278 -0.1726
  152loPI    C1 2417   6.814  17.186   9.897 -0.0536 -0.0763  0.0504
  152loPI    C2 2418   7.110  17.452   9.928 -0.1705  0.0793 -0.1391
  152loPI    C3 2419   6.733  17.578   9.888 -0.2140 -0.1132 -0.3529
  152loPI   PO4 2420   6.794  17.053   9.597 -0.0294  0.0673  0.0817
  152loPI   GL1 2421   6.577  16.756   9.281  0.0694 -0.1396 -0.1098
  152loPI   GL2 2422   6.622  16.481   9.405 -0.2369  0.1004 -0.1684
  152loPI   C1A 2423   6.613  16.773   8.879  0.0264 -0.1066 -0.1730
  152loPI   C2A 2424   6.598  16.561   8.544 -0.1906 -0.0417 -0.0584
  152loPI   C3A 2425   6.504  16.434   8.075 -0.2684 -0.2028 -0.2644
  152loPI   C4A 2426   6.626  16.198   7.681 -0.1703  0.0312  0.0656
  152loPI   C5A 2427   6.416  16.280   7.242 -0.0287  0.2337 -0.2748
  152loPI   C6A 2428   6.181  16.286   6.986  0.0829  0.1214  0.3707
  152loPI   C1B 2429   6.694  16.225   9.036 -0.0382 -0.0663  0.1396
  152loPI   C2B 2430   6.604  16.044   8.586 -0.0776 -0.2071  0.1867
  152loPI   C3B 2431   6.685  15.994   8.184 -0.2131  0.0088 -0.0754
  152loPI   C4B 2432   6.692  15.780   7.955 -0.3739  0.1954 -0.0189
  153loPI    C1 2433   5.286   9.719  10.449 -0.2107  0.1133 -0.0321
  153loPI    C2 2434   5.195   9.350  10.576  0.0905 -0.0279 -0.2155
  153loPI    C3 2435   5.381   9.606  10.821 -0.3087  0.0802 -0.0167
  153loPI   PO4 2436   4.982   9.797  10.273 -0.0040  0.1976  0.0440
  153loPI   GL1 2437   4.997   9.863   9.871  0.0225 -0.2407  0.0072
  153loPI   GL2 2438   4.708  10.150   9.964  0.0535  0.0155 -0.1438
  153loPI   C1A 2439   4.777   9.753   9.473  0.1193 -0.0009  0.0012
  153loPI   C2A 2440   4.871   9.644   8.988  0.1822 -0.1786 -0.1269
  153loPI   C3A 2441   4.818   9.675   8.714  0.3699  0.2102 -0.1414
  153loPI   C4A 2442   4.787   9.826   8.303 -0.1246  0.0914 -0.2814
  153loPI   C5A 2443   4.553   9.960   7.977  0.2695  0.2647 -0.2473
  153loPI   C6A 2444   4.281   9.757   7.723  0.1219 -0.1299  0.1459
  153loPI   C1B 2445   4.754  10.226   9.516  0.0930  0.3437 -0.0908
  153loPI   C2B 2446   4.827  10.181   9.138 -0.1204 -0.2196  0.1481
  153loPI   C3B 2447   4.754  10.141   8.756 -0.0067 -0.1946 -0.3943
  153loPI   C4B 2448   4.918  10.336   8.371  0.2230 -0.2310  0.0890
  154loPI    C1 2449  19.242   5.071  10.206  0.0822  0.1452 -0.0416
  154loPI    C2 2450  19.285   5.446  10.337  0.0409  0.1420 -0.0185
  154loPI    C3 2451  19.582   5.182  10.385 -0.0968  0.0520  0.3670
  154loPI   PO4 2452  19.172   5.048   9.974  0.1010 -0.0658  0.0114
  154loPI   GL1 2453  19.178   5.200   9.569  0.0724 -0.0555  0.1333
  154loPI   GL2 2454  19.162   5.557   9.458  0.1453 -0.0094  0.1681
  154loPI   C1A 2455  19.250   5.128   9.190  0.0382 -0.1685  0.4482
  154loPI   C2A 2456  19.213   4.884   8.801  0.0261  0.3086 -0.0172
  154loPI   C3A 2457  19.159   4.790   8.400 -0.0951  0.2495  0.2640
  154loPI   C4A 2458  19.219   4.829   7.928  0.3999 -0.0696 -0.3330
  154loPI   C5A 2459  18.812   4.900   7.679 -0.1217  0.4072  0.0180
  154loPI   C6A 2460  18.394   4.872   7.551 -0.0788  0.0504 -0.1724
  154loPI   C1B 2461  19.597   5.545   9.239  0.0024  0.1301  0.5029
  154loPI   C2B 2462  19.801   5.524   8.788 -0.0447  0.2244  0.1410
  154loPI   C3B 2463  19.837   5.657   8.430 -0.1945  0.0815 -0.3586
  154loPI   C4B 2464  20.007   5.751   7.991  0.0413 -0.1708  0.2466
  155loPI    C1 2465  14.491  10.425   9.790 -0.1276 -0.0947 -0.0118
  155loPI    C2 2466  14.708  10.627  10.058 -0.1578  0.0018 -0.0598
  155loPI    C3 2467  14.830  10.267   9.932 -0.1458 -0.0457  0.0864
  155loPI   PO4 2468  14.473  10.646   9.548 -0.1176 -0.1886 -0.2554
  155loPI   GL1 2469  14.620  10.789   9.147  0.0674 -0.0201  0.0005
  155loPI   GL2 2470  14.366  10.559   9.052 -0.0807  0.4286  0.1765
  155loPI   C1A 2471  14.644  10.895   8.659 -0.2577  0.1679 -0.0195
  155loPI   C2A 2472  14.586  10.597   8.264  0.0330 -0.3658 -0.0138
  155loPI   C3A 2473  14.647  10.457   7.975  0.2589  0.1631  0.0558
  155loPI   C4A 2474  14.784  10.176   7.530 -0.2858 -0.2492 -0.0332
  155loPI   C5A 2475  14.732  10.042   7.179  0.0487  0.0373  0.1356
  155loPI   C6A 2476  14.730  10.073   6.684  0.1391  0.1833  0.0318
  155loPI   C1B 2477  14.183  10.382   8.675  0.2813 -0.1970 -0.4142
  155loPI   C2B 2478  14.236  10.202   8.362  0.1526 -0.2549 -0.1418
  155loPI   C3B 2479  14.120  10.059   7.951 -0.2607  0.0506  0.3336
  155loPI   C4B 2480  14.314  10.252   7.633  0.2154  0.1125  0.2061
  156loPI    C1 2481   5.334  13.918  10.342  0.0306 -0.2588 -0.1629
  156loPI    C2 2482   5.033  14.098  10.533  0.0414 -0.1590 -0.2389
  156loPI    C3 2483   5.109  13.710  10.600  0.0167 -0.1368 -0.0761
  156loPI   PO4 2484   5.300  13.982  10.139  0.0338 -0.0534  0.2289
  156loPI   GL1 2485   5.241  13.967   9.723  0.1980  0.0814 -0.1259
  156loPI   GL2 2486   5.445  13.692   9.663  0.2250 -0.0618  0.1738
  156loPI   C1A 2487   5.108  14.080   9.325  0.2916  0.0146  0.4226
  156loPI   C2A 2488   5.506  14.027   8.922  0.2977 -0.2658  0.0921
  156loPI   C3A 2489   5.712  13.975   8.589 -0.2398 -0.1448 -0.2490
  156loPI   C4A 2490   5.660  14.115   8.204 -0.1053  0.1787 -0.2014
  156loPI   C5A 2491   5.458  14.045   7.840 -0.0046  0.0899  0.3095
  156loPI   C6A 2492   5.084  14.208   7.796  0.2036 -0.0352  0.0004
  156loPI   C1B 2493   5.684  13.652   9.313  0.0230  0.0919 -0.2274
  156loPI   C2B 2494   5.681  13.517   8.918 -0.2502  0.0176 -0.1960
  156loPI   C3B 2495   5.815  13.530   8.411  0.2942  0.1815  0.1741
  156loPI   C4B 2496   6.019  13.761   8.195 -0.2195  0.0757  0.0102
  157loPI    C1 2497  16.171  13.030   9.467  0.0303  0.1379  0.0547
  157loPI    C2 2498  16.151  12.725   9.209 -0.0027  0.2263 -0.0478
  157loPI    C3 2499  16.264  12.660   9.587  0.1300  0.1099 -0.1067
  157loPI   PO4 2500  16.259  13.212   9.295 -0.0038  0.1100  0.2649
  157loPI   GL1 2501  16.632  13.302   8.969  0.1002  0.0301 -0.1187
  157loPI   GL2 2502  16.497  12.944   8.915  0.1442 -0.1308 -0.0876
  157loPI   C1A 2503  16.514  13.652   8.737 -0.5825 -0.0239  0.1525
  157loPI   C2A 2504  16.552  13.898   8.363 -0.1423  0.2425  0.0214
  157loPI   C3A 2505  16.548  13.858   7.897 -0.1596 -0.0621 -0.1447
  157loPI   C4A 2506  16.402  13.769   7.490  0.2073  0.2455  0.0100
  157loPI   C5A 2507  16.389  13.325   7.160 -0.1123 -0.1209  0.1800
  157loPI   C6A 2508  16.326  13.020   6.747  0.3482 -0.4228  0.1226
  157loPI   C1B 2509  16.512  12.812   8.528 -0.1461  0.0019 -0.0733
  157loPI   C2B 2510  16.675  12.712   8.061 -0.2432  0.2929 -0.2192
  157loPI   C3B 2511  16.921  12.608   7.773  0.0636  0.1018 -0.1884
  157loPI   C4B 2512  16.988  12.527   7.358  0.1277 -0.0704 -0.1413
  158loPI    C1 2513  16.040  11.556   9.697  0.4640  0.0934  0.1441
  158loPI    C2 2514  16.179  11.230   9.511  0.0446  0.0273 -0.0655
  158loPI    C3 2515  15.983  11.194   9.857  0.3509  0.1003  0.1201
  158loPI   PO4 2516  15.983  11.685   9.412  0.1139  0.0117 -0.3092
  158loPI   GL1 2517  16.100  11.897   9.132  0.0532 -0.3369  0.1010
  158loPI   GL2 2518  16.345  12.056   9.074 -0.1296 -0.0958  0.1824
  158loPI   C1A 2519  16.021  12.028   8.641 -0.1625  0.0045 -0.1175
  158loPI   C2A 2520  16.181  11.982   8.230  0.1359  0.0904  0.0802
  158loPI   C3A 2521  16.311  11.981   7.838  0.2802 -0.0716  0.0237
  158loPI   C4A 2522  16.270  11.849   7.307  0.1158  0.0339  0.1298
  158loPI   C5A 2523  16.119  11.683   6.908 -0.3972  0.4452 -0.2580
  158loPI   C6A 2524  15.789  11.628   6.594 -0.2461 -0.1024 -0.0349
  158loPI   C1B 2525  16.483  11.875   8.693  0.1303  0.1325  0.1829
  158loPI   C2B 2526  16.643  11.805   8.372 -0.1665 -0.0035 -0.3638
  158loPI   C3B 2527  16.879  11.698   7.967  0.4921  0.1948  0.1458
  158loPI   C4B 2528  17.075  11.622   7.599 -0.1179 -0.1631 -0.3488
  159loPI    C1 2529   9.973   3.674  10.348 -0.0545 -0.0161 -0.0438
  159loPI    C2 2530   9.645   3.902  10.365 -0.0091  0.0555 -0.1208
  159loPI    C3 2531   9.714   3.630  10.650 -0.0825  0.1118 -0.0487
  159loPI   PO4 2532   9.999   3.727  10.086 -0.3012  0.1553  0.3078
  159loPI   GL1 2533   9.889   3.601   9.726 -0.1144 -0.1850 -0.1241
  159loPI   GL2 2534  10.025   3.816   9.538 -0.0174 -0.0768 -0.1698
  159loPI   C1A 2535   9.822   3.426   9.308 -0.0666  0.0041  0.2100
  159loPI   C2A 2536   9.757   3.380   8.806 -0.2739 -0.2498  0.1393
  159loPI   C3A 2537   9.866   3.331   8.414 -0.2159  0.4565 -0.0361
  159loPI   C4A 2538   9.822   3.310   8.022 -0.0537  0.1195 -0.0588
  159loPI   C5A 2539  10.006   3.090   7.695 -0.2294 -0.0257 -0.0603
  159loPI   C6A 2540  10.309   2.921   7.358 -0.3005  0.0222 -0.1552
  159loPI   C1B 2541  10.112   3.762   9.078  0.0749 -0.1028 -0.2298
  159loPI   C2B 2542  10.297   3.880   8.650 -0.2807 -0.1373  0.1894
  159loPI   C3B 2543  10.524   3.831   8.318  0.2602 -0.0064  0.1257
  159loPI   C4B 2544  10.679   3.807   7.874 -0.0782 -0.2485 -0.4135
  160loPI    C1 2545  19.498  17.380   9.826  0.2311 -0.2520  0.1475
  160loPI    C2 2546  19.836  17.489   9.642  0.0106  0.2901  0.0418
  160loPI    C3 2547  19.806  17.517  10.040  0.1139  0.1648  0.0591
  160loPI   PO4 2548  19.317  17.422   9.508  0.2641 -0.2423 -0.0176
  160loPI   GL1 2549  19.518  17.628   9.161  0.0391  0.4767  0.1342
  160loPI   GL2 2550  19.771  17.398   9.175  0.2011 -0.2409 -0.2343
  160loPI   C1A 2551  19.499  17.674   8.714  0.0069  0.1640 -0.0663
  160loPI   C2A 2552  19.681  17.691   8.319  0.1195  0.1400 -0.2039
  160loPI   C3A 2553  19.763  17.463   7.895 -0.0451 -0.0196  0.0812
  160loPI   C4A 2554  19.633  17.145   7.564 -0.0846  0.0594 -0.0259
  160loPI   C5A 2555  19.666  16.969   7.131  0.1210  0.0130 -0.2383
  160loPI   C6A 2556  19.451  17.083   6.796 -0.0582 -0.5031  0.1112
  160loPI   C1B 2557  19.852  17.268   8.744  0.0108  0.3183 -0.1386
  160loPI   C2B 2558  19.982  17.211   8.315  0.1569 -0.2185 -0.2997
  160loPI   C3B 2559  20.107  17.027   7.850 -0.2724  0.1468 -0.0837
  160loPI   C4B 2560  20.084  17.015   7.399 -0.1931 -0.1622  0.0130
  161loPI    C1 2561   5.323  17.026  10.034  0.2838  0.0388 -0.1282
  161loPI    C2 2562   5.509  16.773  10.282  0.2045  0.1006 -0.0046
  161loPI    C3 2563   5.214  17.007  10.419  0.1312  0.1045 -0.1674
  161loPI   PO4 2564   5.316  16.988   9.803  0.1905  0.1161  0.0467
  161loPI   GL1 2565   5.373  16.926   9.433  0.0881 -0.0379 -0.1515
  161loPI   GL2 2566   5.658  16.809   9.414  0.1807  0.1254  0.0509
  161loPI   C1A 2567   5.091  16.886   9.061 -0.0365 -0.1473  0.2665
  161loPI   C2A 2568   4.982  16.869   8.667  0.1299 -0.1417 -0.4903
  161loPI   C3A 2569   4.939  17.169   8.343  0.1031 -0.1882 -0.3123
  161loPI   C4A 2570   4.883  17.312   7.952  0.1364  0.1096 -0.2070
  161loPI   C5A 2571   5.156  17.635   7.661  0.0757  0.1540  0.1547
  161loPI   C6A 2572   5.289  17.944   7.385 -0.1158  0.0881 -0.1702
  161loPI   C1B 2573   5.567  16.780   8.914 -0.1723  0.1660  0.2162
  161loPI   C2B 2574   5.427  16.791   8.459  0.0818 -0.2619 -0.0470
  161loPI   C3B 2575   5.511  16.823   8.048  0.0158 -0.0178 -0.1921
  161loPI   C4B 2576   5.552  16.992   7.529 -0.2690 -0.1308  0.1508
  162loPI    C1 2577  14.580  16.500   9.371  0.0122  0.0994  0.0946
  162loPI    C2 2578  14.410  16.151   9.471 -0.1259  0.1046 -0.1139
  162loPI    C3 2579  14.700  16.306   9.699 -0.2744  0.0048  0.1469
  162loPI   PO4 2580  14.610  16.465   9.107 -0.0220 -0.0955  0.0905
  162loPI   GL1 2581  14.497  16.431   8.716 -0.0337  0.2315 -0.0377
  162loPI   GL2 2582  14.208  16.588   8.786 -0.2643 -0.0397  0.4165
  162loPI   C1A 2583  14.437  16.525   8.338  0.1779 -0.3284 -0.0560
  162loPI   C2A 2584  14.200  16.563   7.978 -0.1130 -0.1098 -0.0512
  162loPI   C3A 2585  14.345  16.505   7.553  0.1699 -0.2610 -0.0169
  162loPI   C4A 2586  14.570  16.612   7.192  0.2826  0.0367 -0.3274
  162loPI   C5A 2587  14.836  16.332   7.000  0.0841  0.0702  0.2204
  162loPI   C6A 2588  15.147  16.132   7.249 -0.0625 -0.1236  0.0900
  162loPI   C1B 2589  14.034  16.855   8.492  0.0006  0.0597  0.2668
  162loPI   C2B 2590  13.973  17.070   8.009 -0.0589  0.1437 -0.3644
  162loPI   C3B 2591  14.175  17.172   7.590  0.0027  0.0883 -0.1699
  162loPI   C4B 2592  14.042  16.939   7.231  0.0113 -0.0491  0.0601
  163loPI    C1 2593  12.005  13.122   9.963 -0.0094  0.0886  0.2328
  163loPI    C2 2594  12.053  13.502  10.078 -0.0486  0.0925  0.2359
  163loPI    C3 2595  12.356  13.243  10.112 -0.0137  0.1299  0.2094
  163loPI   PO4 2596  11.767  13.237   9.745  0.3408  0.2387  0.2471
  163loPI   GL1 2597  11.653  13.204   9.402  0.2815 -0.2153  0.0836
  163loPI   GL2 2598  11.837  13.313   9.194  0.2388  0.4703  0.1102
  163loPI   C1A 2599  11.490  12.826   9.212  0.3844  0.0690  0.0146
  163loPI   C2A 2600  11.097  12.770   9.086 -0.1854 -0.4037 -0.2352
  163loPI   C3A 2601  10.867  12.688   8.712 -0.1274  0.1480 -0.0310
  163loPI   C4A 2602  10.894  12.885   8.287  0.2027  0.1581 -0.0749
  163loPI   C5A 2603  11.042  12.847   7.840 -0.0120 -0.1210  0.0142
  163loPI   C6A 2604  11.356  12.715   7.550  0.0808 -0.0518 -0.0687
  163loPI   C1B 2605  11.810  13.079   8.842 -0.1387  0.4383 -0.0953
  163loPI   C2B 2606  11.923  12.845   8.454  0.1252 -0.0687  0.2104
  163loPI   C3B 2607  12.261  12.763   8.158  0.0786 -0.2563  0.0135
  163loPI   C4B 2608  12.571  12.556   7.955  0.0248 -0.0569 -0.0316
  164loPI    C1 2609  17.820  13.161   9.806 -0.1239 -0.1985  0.0814
  164loPI    C2 2610  17.955  12.866  10.040  0.0740 -0.1613  0.0153
  164loPI    C3 2611  17.841  13.214  10.202  0.1035 -0.1757  0.0673
  164loPI   PO4 2612  17.672  13.010   9.613  0.0465  0.1055  0.0322
  164loPI   GL1 2613  17.730  12.784   9.177 -0.0144  0.2259 -0.1884
  164loPI   GL2 2614  17.865  13.070   9.140 -0.1655 -0.1420 -0.0258
  164loPI   C1A 2615  17.844  12.923   8.688 -0.2331 -0.2680  0.0754
  164loPI   C2A 2616  17.830  13.202   8.343 -0.0893 -0.5424  0.2379
  164loPI   C3A 2617  17.796  13.179   7.886 -0.0134  0.2686  0.0588
  164loPI   C4A 2618  17.756  13.226   7.480  0.2218 -0.1066  0.2859
  164loPI   C5A 2619  17.555  13.302   7.041  0.0616 -0.0526  0.1440
  164loPI   C6A 2620  17.667  13.478   6.545  0.0773 -0.1911 -0.0844
  164loPI   C1B 2621  18.026  13.385   8.830  0.3179  0.0700  0.2963
  164loPI   C2B 2622  18.130  13.570   8.514 -0.0056  0.0035  0.0591
  164loPI   C3B 2623  18.148  13.501   8.087 -0.0458  0.4112  0.0823
  164loPI   C4B 2624  18.133  13.609   7.572 -0.0144  0.0801 -0.2627
  165loPI    C1 2625   6.041   3.542   9.947  0.0860 -0.2033 -0.0672
  165loPI    C2 2626   5.891   3.222  10.135  0.1605 -0.0737  0.2200
  165loPI    C3 2627   5.759   3.588  10.227 -0.0002 -0.0252 -0.1814
  165loPI   PO4 2628   6.010   3.513   9.724  0.4730  0.2365 -0.0680
  165loPI   GL1 2629   6.180   3.715   9.410 -0.2967  0.1834 -0.1997
  165loPI   GL2 2630   6.042   3.961   9.191 -0.0396 -0.1914  0.2601
  165loPI   C1A 2631   6.158   3.543   8.943 -0.0086  0.2413 -0.0390
  165loPI   C2A 2632   5.997   3.563   8.465 -0.1585 -0.0299  0.0027
  165loPI   C3A 2633   5.865   3.604   8.111 -0.3268 -0.0787  0.0646
  165loPI   C4A 2634   6.068   3.784   7.698 -0.0327  0.5912  0.0372
  165loPI   C5A 2635   6.056   3.904   7.305  0.0070  0.0796 -0.0797
  165loPI   C6A 2636   5.917   3.867   6.887 -0.0756 -0.3563 -0.0210
  165loPI   C1B 2637   5.963   3.946   8.751  0.2003 -0.0434  0.0270
  165loPI   C2B 2638   6.006   4.071   8.363 -0.0780  0.0117  0.0775
  165loPI   C3B 2639   6.229   4.172   7.999 -0.1472 -0.0483 -0.1986
  165loPI   C4B 2640   6.369   4.319   7.583 -0.2996 -0.0595  0.3047
  166loPI    C1 2641  16.051  10.458   9.741  0.1110 -0.2083 -0.1380
  166loPI    C2 2642  15.817  10.724   9.925  0.1987 -0.1261 -0.1443
  166loPI    C3 2643  15.767  10.333   9.993  0.0584 -0.1095 -0.1480
  166loPI   PO4 2644  16.023  10.441   9.519  0.1462 -0.0659  0.0497
  166loPI   GL1 2645  16.128  10.356   9.057 -0.4616 -0.2234 -0.0926
  166loPI   GL2 2646  16.041  10.616   8.854  0.0477  0.1068  0.0030
  166loPI   C1A 2647  16.101  10.126   8.709 -0.2125 -0.0109  0.0750
  166loPI   C2A 2648  16.316  10.110   8.281 -0.0285 -0.1000  0.0971
  166loPI   C3A 2649  16.372   9.974   7.916 -0.1018  0.0408  0.4527
  166loPI   C4A 2650  16.317   9.894   7.480  0.0994  0.2601  0.2105
  166loPI   C5A 2651  16.428   9.513   7.185  0.1176  0.0151 -0.1468
  166loPI   C6A 2652  16.300   9.113   7.191 -0.0509 -0.3498 -0.0411
  166loPI   C1B 2653  16.218  10.605   8.560  0.1060  0.0145  0.2851
  166loPI   C2B 2654  15.957  10.598   8.166 -0.0112  0.2342  0.3783
  166loPI   C3B 2655  16.023  10.504   7.705 -0.0487  0.0633  0.0780
  166loPI   C4B 2656  16.279  10.378   7.480 -0.2804  0.0352 -0.1314
  167loPI    C1 2657  14.496   1.103   9.513 -0.2244  0.3659 -0.1970
  167loPI    C2 2658  14.298   1.115   9.861 -0.0289 -0.0519 -0.0649
  167loPI    C3 2659  14.593   1.376   9.789  0.1590 -0.1777  0.2291
  167loPI   PO4 2660  14.337   1.172   9.292 -0.0214 -0.0073 -0.3677
  167loPI   GL1 2661  14.069   1.046   9.000 -0.2849  0.1975 -0.3425
  167loPI   GL2 2662  13.950   1.302   8.805  0.2376  0.3292  0.1079
  167loPI   C1A 2663  14.263   0.853   8.697  0.0408  0.0195  0.0342
  167loPI   C2A 2664  14.643   0.621   8.548  0.2110  0.3685 -0.1612
  167loPI   C3A 2665  14.680   0.442   8.191  0.3692 -0.1994  0.0216
  167loPI   C4A 2666  14.688   0.293   7.719 -0.1344 -0.1025  0.0048
  167loPI   C5A 2667  14.942   0.299   7.328 -0.2225  0.0192  0.1903
  167loPI   C6A 2668  15.334   0.254   7.086  0.2080  0.1037  0.3304
  167loPI   C1B 2669  13.911   1.139   8.409  0.1883 -0.0714 -0.2356
  167loPI   C2B 2670  14.160   0.979   8.133 -0.3467  0.0822 -0.1468
  167loPI   C3B 2671  14.532   0.795   7.864  0.1232  0.0934 -0.0212
  167loPI   C4B 2672  14.747   0.854   7.439  0.0815  0.5886 -0.1058
  168loPI    C1 2673   6.609   9.354  10.759 -0.1071 -0.0039 -0.2945
  168loPI    C2 2674   6.320   9.301  11.030  0.2840 -0.0420  0.1263
  168loPI    C3 2675   6.623   9.550  11.108  0.3788 -0.0169 -0.3006
  168loPI   PO4 2676   6.546   9.362  10.511 -0.1812 -0.1091 -0.0951
  168loPI   GL1 2677   6.552   9.171  10.042 -0.2682  0.1004 -0.0512
  168loPI   GL2 2678   6.562   8.922   9.847  0.0331 -0.2119  0.0868
  168loPI   C1A 2679   6.442   9.407   9.661  0.0369 -0.1787 -0.0204
  168loPI   C2A 2680   6.382   9.554   9.294 -0.0197  0.0649  0.1133
  168loPI   C3A 2681   6.428   9.611   8.904  0.0480  0.0997  0.0125
  168loPI   C4A 2682   6.273   9.683   8.411  0.0086 -0.2199 -0.0694
  168loPI   C5A 2683   6.435   9.523   7.995 -0.2202  0.2489 -0.0364
  168loPI   C6A 2684   6.378   9.435   7.556 -0.2064 -0.0707  0.1756
  168loPI   C1B 2685   6.744   9.086   9.507  0.3227  0.1934 -0.0640
  168loPI   C2B 2686   6.860   9.263   9.217  0.0760 -0.1818  0.1528
  168loPI   C3B 2687   6.810   9.212   8.722 -0.2953 -0.1915 -0.2659
  168loPI   C4B 2688   6.503   9.193   8.379 -0.3157  0.1084 -0.1064
  169loPI    C1 2689   6.096   5.887  10.186  0.0150  0.1535 -0.0577
  169loPI    C2 2690   6.197   5.536  10.349 -0.1026  0.0036 -0.3026
  169loPI    C3 2691   6.182   5.865  10.576  0.0169 -0.1471 -0.0732
  169loPI   PO4 2692   6.269   5.933   9.916  0.0303  0.0840  0.0697
  169loPI   GL1 2693   6.238   5.772   9.511 -0.1922  0.1447  0.1283
  169loPI   GL2 2694   5.953   5.884   9.419  0.0589 -0.1928  0.2181
  169loPI   C1A 2695   6.236   5.552   9.188 -0.0839  0.1473  0.0483
  169loPI   C2A 2696   6.348   5.471   8.700  0.2743 -0.1244  0.0739
  169loPI   C3A 2697   6.509   5.511   8.220  0.2016 -0.3692 -0.0480
  169loPI   C4A 2698   6.722   5.711   7.898 -0.0992 -0.1496  0.3427
  169loPI   C5A 2699   6.913   5.938   7.597 -0.5257  0.1171  0.1975
  169loPI   C6A 2700   6.776   6.248   7.336  0.1192  0.3527  0.0284
  169loPI   C1B 2701   6.122   6.089   9.051  0.0884  0.1004 -0.2545
  169loPI   C2B 2702   6.330   6.059   8.665  0.0603  0.0113  0.3725
  169loPI   C3B 2703   6.501   6.032   8.242  0.2432 -0.1607  0.0769
  169loPI   C4B 2704   6.791   6.225   7.999  0.1459 -0.0526  0.0180
  170loPI    C1 2705  19.112  12.536   9.925 -0.0006  0.0981 -0.0882
  170loPI    C2 2706  18.870  12.694  10.201  0.2159 -0.0027  0.1627
  170loPI    C3 2707  19.011  12.323  10.247  0.0278 -0.1275 -0.2263
  170loPI   PO4 2708  19.039  12.608   9.693 -0.2246 -0.0686  0.0809
  170loPI   GL1 2709  18.958  12.799   9.318 -0.1376 -0.0284  0.0495
  170loPI   GL2 2710  18.646  12.906   9.309 -0.2290  0.3379  0.1184
  170loPI   C1A 2711  19.065  12.688   8.950  0.2365 -0.2918  0.1631
  170loPI   C2A 2712  19.204  12.916   8.579  0.1314  0.1765  0.1775
  170loPI   C3A 2713  19.231  12.794   8.121  0.1440  0.1894 -0.1015
  170loPI   C4A 2714  19.175  12.965   7.704 -0.0710  0.0421  0.5153
  170loPI   C5A 2715  18.820  13.010   7.388  0.2027 -0.2952  0.0179
  170loPI   C6A 2716  18.614  13.376   7.127  0.2200  0.2324  0.1517
  170loPI   C1B 2717  18.894  13.132   8.940  0.0602 -0.4676 -0.0782
  170loPI   C2B 2718  18.837  13.185   8.484  0.1119 -0.2278 -0.0797
  170loPI   C3B 2719  18.769  13.101   8.063 -0.2167  0.0373 -0.1991
  170loPI   C4B 2720  18.474  13.279   7.704 -0.3188  0.1978 -0.2228
  171loPI    C1 2721  12.303  18.427   9.572  0.1219  0.2640 -0.1023
  171loPI    C2 2722  12.532  18.329   9.886 -0.0380 -0.0039 -0.0659
  171loPI    C3 2723  12.304  18.658   9.898  0.2093  0.1689 -0.0342
  171loPI   PO4 2724  12.347  18.410   9.284  0.2766 -0.3875  0.2235
  171loPI   GL1 2725  12.195  18.179   8.873 -0.2654 -0.0329 -0.3109
  171loPI   GL2 2726  12.354  17.968   8.929  0.3722 -0.0863  0.0273
  171loPI   C1A 2727  12.202  18.520   8.578 -0.0365  0.3835 -0.1672
  171loPI   C2A 2728  12.327  18.367   8.190 -0.0262  0.1523 -0.0402
  171loPI   C3A 2729  12.288  18.201   7.887 -0.0608  0.1112 -0.1828
  171loPI   C4A 2730  12.047  18.209   7.467  0.0136 -0.0858 -0.0098
  171loPI   C5A 2731  11.911  18.196   7.006 -0.2259  0.2506 -0.0553
  171loPI   C6A 2732  11.996  18.324   6.628 -0.0397  0.1478  0.2060
  171loPI   C1B 2733  12.453  17.982   8.397  0.1488 -0.0078 -0.0993
  171loPI   C2B 2734  12.499  17.746   7.991  0.0264  0.0930 -0.0155
  171loPI   C3B 2735  12.439  17.551   7.595 -0.3252  0.1160  0.0797
  171loPI   C4B 2736  12.665  17.542   7.220  0.1234  0.2085  0.3126
  172loPI    C1 2737   2.008  11.396  10.382  0.1867  0.1373  0.3269
  172loPI    C2 2738   2.247  11.118  10.221 -0.2312  0.0214 -0.1176
  172loPI    C3 2739   2.112  11.074  10.595  0.2224 -0.0417  0.0446
  172loPI   PO4 2740   1.965  11.537  10.112  0.1193  0.0191  0.3298
  172loPI   GL1 2741   1.941  11.588   9.622 -0.3595  0.3540  0.0457
  172loPI   GL2 2742   1.967  11.401   9.387 -0.2283 -0.4446 -0.0548
  172loPI   C1A 2743   1.827  11.775   9.134 -0.1536 -0.0678  0.1093
  172loPI   C2A 2744   1.664  11.736   8.659  0.1720  0.3166  0.2554
  172loPI   C3A 2745   1.865  11.722   8.317 -0.1411  0.0260 -0.3912
  172loPI   C4A 2746   2.010  12.056   7.980  0.3543  0.0386 -0.0263
  172loPI   C5A 2747   2.175  11.905   7.537 -0.1628 -0.1922 -0.0421
  172loPI   C6A 2748   2.310  11.440   7.386 -0.0270 -0.2622  0.4015
  172loPI   C1B 2749   1.728  11.210   9.054  0.2220  0.1664 -0.0239
  172loPI   C2B 2750   1.633  11.235   8.602 -0.1119 -0.1364 -0.0839
  172loPI   C3B 2751   1.569  11.207   8.170 -0.2054 -0.0725  0.1477
  172loPI   C4B 2752   1.352  11.204   7.706 -0.0109 -0.1531 -0.2629
  173loPI    C1 2753   1.653  17.453   9.406  0.1323  0.0159 -0.0554
  173loPI    C2 2754   1.453  17.185   9.624  0.1972 -0.0375 -0.0611
  173loPI    C3 2755   1.686  17.454   9.804  0.2013 -0.0412 -0.0608
  173loPI   PO4 2756   1.516  17.553   9.249 -0.1938  0.2899 -0.0380
  173loPI   GL1 2757   1.499  17.665   8.893 -0.3232  0.0886  0.2243
  173loPI   GL2 2758   1.759  17.834   8.888 -0.0823 -0.1174 -0.3778
  173loPI   C1A 2759   1.708  17.348   8.636  0.0941 -0.2088 -0.3218
  173loPI   C2A 2760   1.774  17.063   8.394  0.0698 -0.0457  0.4030
  173loPI   C3A 2761   1.963  17.032   7.969 -0.3885  0.1350 -0.3951
  173loPI   C4A 2762   2.127  16.896   7.579  0.0681 -0.1573  0.2280
  173loPI   C5A 2763   2.259  17.141   7.189  0.0828 -0.2172 -0.1986
  173loPI   C6A 2764   2.362  17.168   6.698 -0.0584  0.2326 -0.1599
  173loPI   C1B 2765   1.647  17.813   8.486  0.0228 -0.3027 -0.0500
  173loPI   C2B 2766   1.675  17.561   8.144  0.2861  0.0502  0.0102
  173loPI   C3B 2767   1.548  17.505   7.764 -0.0160 -0.1683 -0.1438
  173loPI   C4B 2768   1.406  17.709   7.365  0.1891  0.1502  0.0788
  174loPI    C1 2769   6.072   7.513  10.130 -0.3504 -0.0585 -0.2619
  174loPI    C2 2770   6.004   7.901  10.202 -0.4444 -0.1064 -0.0888
  174loPI    C3 2771   6.079   7.651  10.505  0.0641 -0.1417 -0.2347
  174loPI   PO4 2772   5.956   7.453   9.934 -0.0663  0.1822  0.1511
  174loPI   GL1 2773   5.847   7.632   9.496  0.0083  0.1011 -0.3502
  174loPI   GL2 2774   5.540   7.624   9.417 -0.1245  0.2458  0.0037
  174loPI   C1A 2775   5.780   7.411   9.046  0.0749  0.4480 -0.2057
  174loPI   C2A 2776   5.799   7.461   8.637  0.0972 -0.2270  0.1171
  174loPI   C3A 2777   5.836   7.345   8.168 -0.2061 -0.0196  0.3790
  174loPI   C4A 2778   5.814   7.261   7.678 -0.1435 -0.3016  0.3570
  174loPI   C5A 2779   5.886   7.381   7.232 -0.0319 -0.0771 -0.1053
  174loPI   C6A 2780   5.896   7.397   6.807 -0.4556 -0.3642  0.0220
  174loPI   C1B 2781   5.320   7.718   8.958  0.2548  0.0996 -0.0829
  174loPI   C2B 2782   5.096   7.597   8.568 -0.0157 -0.1654 -0.3323
  174loPI   C3B 2783   4.992   7.524   8.161  0.0011  0.0427 -0.0675
  174loPI   C4B 2784   4.813   7.103   7.858 -0.1399  0.3364 -0.1476
  175loPI    C1 2785   7.047   4.812   9.865  0.2451 -0.1764  0.0837
  175loPI    C2 2786   6.758   4.679  10.108 -0.0141 -0.0093 -0.1271
  175loPI    C3 2787   6.856   5.067  10.107  0.0681 -0.0301 -0.2045
  175loPI   PO4 2788   7.268   4.675   9.809  0.1378 -0.0057  0.0418
  175loPI   GL1 2789   7.302   4.478   9.471 -0.0943  0.0747  0.1614
  175loPI   GL2 2790   7.610   4.262   9.417 -0.0565  0.1288  0.0470
  175loPI   C1A 2791   7.308   4.465   8.899  0.0236  0.0399  0.1870
  175loPI   C2A 2792   7.363   4.550   8.412 -0.2872 -0.0809 -0.0405
  175loPI   C3A 2793   7.179   4.453   8.049 -0.0158 -0.0167  0.1609
  175loPI   C4A 2794   7.379   4.588   7.698 -0.1002  0.0830  0.2719
  175loPI   C5A 2795   7.642   4.699   7.389  0.2807  0.0046  0.2284
  175loPI   C6A 2796   8.144   4.744   7.210  0.1570  0.1826 -0.0408
  175loPI   C1B 2797   7.431   4.070   9.108  0.0614  0.1976  0.0870
  175loPI   C2B 2798   7.414   4.045   8.658  0.0343  0.0732  0.2654
  175loPI   C3B 2799   7.545   4.128   8.259  0.1131  0.0342 -0.1277
  175loPI   C4B 2800   7.503   4.044   7.797 -0.0940 -0.1846  0.0434
  176loPI    C1 2801   9.985   8.443   9.983 -0.2614  0.1135 -0.2042
  176loPI    C2 2802   9.729   8.746  10.032 -0.0626  0.2317  0.1373
  176loPI    C3 2803   9.974   8.641  10.330 -0.2180 -0.3521  0.0726
  176loPI   PO4 2804  10.064   8.472   9.708 -0.0382 -0.1714  0.1414
  176loPI   GL1 2805   9.908   8.517   9.272  0.1355  0.1528 -0.2048
  176loPI   GL2 2806   9.752   8.800   9.540 -0.1073 -0.0110  0.0774
  176loPI   C1A 2807   9.760   8.863   8.995  0.2171 -0.0738  0.3614
  176loPI   C2A 2808   9.657   9.122   8.588  0.0920 -0.4359 -0.1151
  176loPI   C3A 2809   9.819   9.126   8.244 -0.0368  0.0435 -0.0018
  176loPI   C4A 2810  10.077   9.003   7.920 -0.0728 -0.0955  0.1254
  176loPI   C5A 2811  10.347   8.885   7.546 -0.0996  0.3079  0.0362
  176loPI   C6A 2812  10.721   8.804   7.295  0.1580 -0.0389 -0.0924
  176loPI   C1B 2813   9.349   8.650   9.265  0.0952 -0.2831  0.1003
  176loPI   C2B 2814   9.056   8.374   9.129  0.0800 -0.3238  0.1577
  176loPI   C3B 2815   9.105   8.230   8.604  0.5645 -0.1692  0.1057
  176loPI   C4B 2816   8.901   7.997   8.225  0.0705 -0.0583  0.0604
  177loPI    C1 2817   8.562   7.149  10.299  0.0019 -0.1286 -0.0230
  177loPI    C2 2818   8.758   6.819  10.187  0.0354 -0.1018 -0.0434
  177loPI    C3 2819   8.659   6.872  10.571  0.1945 -0.0490 -0.0088
  177loPI   PO4 2820   8.355   7.132  10.068  0.0065  0.2600  0.0150
  177loPI   GL1 2821   8.230   7.466   9.640  0.1260  0.1893 -0.1482
  177loPI   GL2 2822   8.487   7.330   9.579 -0.2256 -0.1075 -0.2084
  177loPI   C1A 2823   8.228   7.510   9.193  0.2703 -0.0675 -0.1396
  177loPI   C2A 2824   8.144   7.571   8.713  0.1686  0.0549 -0.2312
  177loPI   C3A 2825   8.130   7.476   8.280 -0.0603  0.1452  0.0345
  177loPI   C4A 2826   8.030   7.540   7.903  0.0479 -0.2724  0.1803
  177loPI   C5A 2827   8.007   7.775   7.567 -0.1327  0.1737 -0.3087
  177loPI   C6A 2828   7.978   8.187   7.435 -0.0669 -0.2125 -0.1045
  177loPI   C1B 2829   8.385   7.046   9.193 -0.0178  0.2911  0.0239
  177loPI   C2B 2830   8.579   6.741   8.925  0.2106  0.0531 -0.1181
  177loPI   C3B 2831   8.866   6.579   8.548 -0.0285 -0.4930 -0.0592
  177loPI   C4B 2832   9.041   6.539   8.262 -0.1285 -0.1518 -0.1126
  178loPI    C1 2833  13.155  15.393   9.655 -0.2257  0.1588  0.1116
  178loPI    C2 2834  13.475  15.537   9.847 -0.2791  0.3382  0.0679
  178loPI    C3 2835  13.347  15.166   9.922 -0.0618  0.2661  0.0865
  178loPI   PO4 2836  13.162  15.491   9.392  0.5528  0.0629 -0.2155
  178loPI   GL1 2837  12.967  15.711   9.061  0.0754  0.0928 -0.0755
  178loPI   GL2 2838  12.774  15.457   8.962  0.0245  0.1261  0.0245
  178loPI   C1A 2839  12.944  15.822   8.652 -0.0255  0.1601 -0.0328
  178loPI   C2A 2840  12.684  15.859   8.290 -0.1393  0.2593  0.1239
  178loPI   C3A 2841  12.236  15.751   7.954  0.2778 -0.0108  0.0492
  178loPI   C4A 2842  11.858  15.510   7.736 -0.0427  0.1135 -0.0259
  178loPI   C5A 2843  11.634  15.464   7.412  0.2437  0.0213  0.0013
  178loPI   C6A 2844  11.472  15.579   7.082 -0.0714 -0.1241  0.1971
  178loPI   C1B 2845  12.537  15.460   8.585  0.0075  0.0838  0.0258
  178loPI   C2B 2846  12.226  15.322   8.282  0.2217  0.1967  0.2073
  178loPI   C3B 2847  12.097  15.032   7.866  0.1245  0.2493 -0.0372
  178loPI   C4B 2848  11.985  14.993   7.412 -0.1450 -0.0832  0.0693
  179loPI    C1 2849  14.283   2.350   9.385  0.0183  0.1106  0.0533
  179loPI    C2 2850  14.447   2.054   9.171  0.1395  0.1609  0.0757
  179loPI    C3 2851  14.448   2.037   9.571 -0.3025 -0.0502  0.0744
  179loPI   PO4 2852  14.058   2.483   9.152 -0.3738  0.0059 -0.1335
  179loPI   GL1 2853  13.851   2.564   8.836  0.1423  0.3204  0.0185
  179loPI   GL2 2854  13.645   2.392   8.784 -0.1784  0.0205  0.2821
  179loPI   C1A 2855  13.821   2.815   8.516 -0.2054  0.4541 -0.1981
  179loPI   C2A 2856  13.734   2.827   8.113  0.0339 -0.0141 -0.0003
  179loPI   C3A 2857  13.744   2.651   7.697  0.2027 -0.0921 -0.0596
  179loPI   C4A 2858  13.473   2.728   7.373  0.2863  0.2155 -0.0679
  179loPI   C5A 2859  13.279   2.729   7.028  0.3123 -0.1039 -0.1038
  179loPI   C6A 2860  13.535   2.610   6.710  0.4003  0.2511  0.0589
  179loPI   C1B 2861  13.822   2.326   8.342  0.3399 -0.1565 -0.0858
  179loPI   C2B 2862  13.988   2.155   7.941  0.1001  0.0596 -0.0106
  179loPI   C3B 2863  14.108   2.043   7.499  0.2939 -0.1861 -0.0565
  179loPI   C4B 2864  14.365   2.116   7.204  0.1841  0.0578 -0.2197
  180loPI    C1 2865  17.415  16.605   9.188 -0.1993 -0.4774  0.2395
  180loPI    C2 2866  17.123  16.497   8.938 -0.0709  0.0305 -0.1459
  180loPI    C3 2867  17.204  16.885   8.996  0.5216 -0.0992 -0.0428
  180loPI   PO4 2868  17.620  16.470   9.015  0.0592 -0.3627 -0.0943
  180loPI   GL1 2869  17.696  16.553   8.671 -0.1409  0.0341 -0.1131
  180loPI   GL2 2870  17.835  16.260   8.582  0.2458 -0.0920 -0.1192
  180loPI   C1A 2871  17.523  16.644   8.354 -0.0838  0.0214 -0.2741
  180loPI   C2A 2872  17.217  16.859   7.981 -0.1294 -0.1073  0.0557
  180loPI   C3A 2873  17.015  16.956   7.635  0.0785  0.0737 -0.1900
  180loPI   C4A 2874  17.285  17.142   7.399  0.0839 -0.0016 -0.2379
  180loPI   C5A 2875  17.424  17.444   7.063 -0.4287 -0.1331 -0.0306
  180loPI   C6A 2876  17.501  17.418   6.635  0.0917 -0.0819  0.2246
  180loPI   C1B 2877  17.668  16.069   8.276 -0.1027  0.1396  0.0617
  180loPI   C2B 2878  17.766  16.059   7.893 -0.3433 -0.0859  0.4256
  180loPI   C3B 2879  17.896  16.297   7.467  0.1335 -0.1531 -0.2107
  180loPI   C4B 2880  17.847  16.550   7.103 -0.0612 -0.1052  0.3100
  181loPI    C1 2881  12.828  10.846   9.714 -0.0366 -0.0414  0.0189
  181loPI    C2 2882  13.170  10.908   9.912 -0.1270  0.1587  0.1157
  181loPI    C3 2883  12.894  10.661  10.063  0.0507 -0.1500 -0.0548
  181loPI   PO4 2884  12.865  10.884   9.524 -0.3253  0.0685 -0.1579
  181loPI   GL1 2885  12.711  10.787   9.219 -0.1101  0.0413  0.0223
  181loPI   GL2 2886  12.847  10.745   8.921  0.0851  0.2916 -0.0185
  181loPI   C1A 2887  12.387  10.873   8.771 -0.2864 -0.0354  0.0965
  181loPI   C2A 2888  12.431  10.993   8.364  0.1184  0.0046 -0.0354
  181loPI   C3A 2889  12.362  11.199   7.919  0.2011  0.1755 -0.0430
  181loPI   C4A 2890  12.555  11.184   7.452 -0.1078  0.2754  0.1864
  181loPI   C5A 2891  12.451  10.903   7.105 -0.0543  0.0668 -0.1603
  181loPI   C6A 2892  12.062  10.678   7.100 -0.1774 -0.2287  0.1176
  181loPI   C1B 2893  12.822  10.663   8.592 -0.3608  0.3455  0.5445
  181loPI   C2B 2894  12.957  10.687   8.200  0.2060 -0.1598 -0.1151
  181loPI   C3B 2895  12.893  10.900   7.784 -0.0873  0.4189 -0.0107
  181loPI   C4B 2896  12.935  10.809   7.363 -0.1577  0.1149  0.2647
  182loPI    C1 2897   2.668   5.630  10.022 -0.2222  0.1299  0.1122
  182loPI    C2 2898   2.395   5.349  10.102 -0.1158  0.0853  0.3268
  182loPI    C3 2899   2.456   5.648  10.360  0.1079  0.0398  0.3285
  182loPI   PO4 2900   2.642   5.710   9.789  0.1120  0.1308  0.1646
  182loPI   GL1 2901   2.543   5.827   9.393 -0.0788 -0.0032 -0.1021
  182loPI   GL2 2902   2.190   5.972   9.425 -0.1240 -0.0417 -0.0172
  182loPI   C1A 2903   2.364   5.782   8.970  0.3602  0.1275  0.0344
  182loPI   C2A 2904   2.587   5.685   8.613 -0.1389 -0.2322 -0.2774
  182loPI   C3A 2905   2.916   5.650   8.250  0.0599 -0.2085 -0.2076
  182loPI   C4A 2906   3.187   5.752   7.843 -0.0373  0.0387  0.0782
  182loPI   C5A 2907   3.566   5.643   7.565 -0.2219  0.0734 -0.0176
  182loPI   C6A 2908   3.554   5.873   7.176 -0.1025  0.1506 -0.1260
  182loPI   C1B 2909   1.959   6.026   9.046 -0.0714 -0.2165 -0.2850
  182loPI   C2B 2910   1.966   5.883   8.605 -0.1687  0.0289  0.2288
  182loPI   C3B 2911   2.166   5.593   8.424 -0.0321 -0.1499  0.0229
  182loPI   C4B 2912   2.079   5.436   8.079 -0.2460 -0.1013 -0.3745
  183loPI    C1 2913  11.645   2.643   9.528  0.0648 -0.0561 -0.0144
  183loPI    C2 2914  11.629   2.823   9.885  0.1678 -0.0387 -0.0182
  183loPI    C3 2915  11.473   2.458   9.838 -0.1247  0.0853 -0.0335
  183loPI   PO4 2916  11.929   2.623   9.490 -0.1681 -0.1809 -0.2147
  183loPI   GL1 2917  12.094   2.612   9.077 -0.3454  0.2058 -0.2492
  183loPI   GL2 2918  12.068   2.238   9.091  0.0796  0.0198  0.0772
  183loPI   C1A 2919  12.245   2.811   8.652  0.0522 -0.0963 -0.3011
  183loPI   C2A 2920  12.203   2.600   8.271 -0.1856 -0.1579 -0.1243
  183loPI   C3A 2921  12.135   2.391   7.811  0.2454 -0.2342 -0.2263
  183loPI   C4A 2922  11.727   2.324   7.687  0.2570  0.4590 -0.4345
  183loPI   C5A 2923  11.398   2.372   7.293 -0.0125 -0.0828 -0.2195
  183loPI   C6A 2924  11.507   2.652   6.999 -0.0108  0.0921  0.0614
  183loPI   C1B 2925  11.952   2.275   8.620  0.0797 -0.0149  0.0146
  183loPI   C2B 2926  11.814   2.278   8.202 -0.0803  0.3774 -0.1038
  183loPI   C3B 2927  11.321   2.225   7.938 -0.1494 -0.0837  0.0123
  183loPI   C4B 2928  11.155   2.609   7.676 -0.0768  0.1041  0.0568
  184loPI    C1 2929   3.141   7.000  10.231 -0.0230  0.0250 -0.0672
  184loPI    C2 2930   2.751   7.033  10.315 -0.0268 -0.3442  0.0784
  184loPI    C3 2931   2.977   6.772  10.516  0.3076 -0.1025  0.0249
  184loPI   PO4 2932   3.195   7.144  10.030  0.2282 -0.0253  0.1859
  184loPI   GL1 2933   3.286   7.106   9.617 -0.0593 -0.0866  0.0234
  184loPI   GL2 2934   2.975   7.154   9.526 -0.3212  0.2258  0.0842
  184loPI   C1A 2935   3.697   7.277   9.293  0.0722 -0.0918  0.0847
  184loPI   C2A 2936   3.930   7.194   8.964  0.2912  0.1174  0.2942
  184loPI   C3A 2937   4.232   7.216   8.555 -0.0718  0.0950  0.2845
  184loPI   C4A 2938   4.342   7.465   8.187 -0.0928 -0.2868  0.1613
  184loPI   C5A 2939   4.246   7.250   7.786 -0.1480 -0.0784  0.2394
  184loPI   C6A 2940   4.616   7.188   7.396 -0.2254  0.1583 -0.1853
  184loPI   C1B 2941   3.215   7.153   9.107  0.1928 -0.1123 -0.0407
  184loPI   C2B 2942   3.421   7.140   8.672 -0.0089 -0.2548  0.1901
  184loPI   C3B 2943   3.467   7.028   8.277  0.0696 -0.0384  0.4201
  184loPI   C4B 2944   3.478   7.103   7.872  0.0828 -0.2553 -0.0043
  185loPI    C1 2945   4.078  11.758  10.505  0.0360 -0.0001  0.0090
  185loPI    C2 2946   4.024  12.109  10.689  0.1472  0.0416 -0.0377
  185loPI    C3 2947   3.942  11.769  10.881  0.1149  0.0904  0.0352
  185loPI   PO4 2948   3.987  11.791  10.279 -0.4266 -0.0591 -0.1723
  185loPI   GL1 2949   3.798  11.709   9.942 -0.2523 -0.0232 -0.1643
  185loPI   GL2 2950   3.536  11.888   9.909 -0.0063 -0.1654  0.0416
  185loPI   C1A 2951   4.083  11.507   9.523  0.5560 -0.1470 -0.2739
  185loPI   C2A 2952   4.062  11.540   9.094 -0.1327  0.1596  0.0725
  185loPI   C3A 2953   3.956  11.576   8.601 -0.0320  0.1664  0.0887
  185loPI   C4A 2954   4.289  11.345   8.263 -0.3437 -0.1119  0.1243
  185loPI   C5A 2955   4.606  11.082   7.964  0.0319  0.0082 -0.0645
  185loPI   C6A 2956   4.845  10.807   7.553  0.0938 -0.1620 -0.1911
  185loPI   C1B 2957   3.695  11.933   9.490  0.0870 -0.0100 -0.0498
  185loPI   C2B 2958   3.713  11.882   9.078 -0.0892  0.2663  0.0191
  185loPI   C3B 2959   3.660  11.953   8.658 -0.0498  0.1317 -0.1674
  185loPI   C4B 2960   3.424  12.051   8.311  0.3764  0.1845 -0.1232
  186loPI    C1 2961  14.333   7.419   9.774  0.0453 -0.3351 -0.0430
  186loPI    C2 2962  14.091   7.496  10.083 -0.1515 -0.0416 -0.2633
  186loPI    C3 2963  14.342   7.778   9.951 -0.0366 -0.1805 -0.3450
  186loPI   PO4 2964  14.242   7.084   9.778 -0.1891 -0.3559  0.0288
  186loPI   GL1 2965  14.352   6.736   9.431 -0.0899 -0.1140 -0.1119
  186loPI   GL2 2966  14.179   6.527   9.305  0.1582 -0.3730  0.1500
  186loPI   C1A 2967  14.239   6.966   8.987  0.0545  0.0735  0.0539
  186loPI   C2A 2968  14.203   7.251   8.606  0.4317 -0.0705 -0.1982
  186loPI   C3A 2969  14.273   7.493   8.177  0.0124  0.1693 -0.1373
  186loPI   C4A 2970  14.472   7.460   7.811  0.0169  0.3204 -0.2537
  186loPI   C5A 2971  14.641   7.364   7.290  0.2853  0.0167  0.1671
  186loPI   C6A 2972  14.897   7.099   7.086  0.3886  0.1697 -0.4323
  186loPI   C1B 2973  14.024   6.468   8.891  0.1142 -0.2376  0.0329
  186loPI   C2B 2974  13.988   6.102   8.637 -0.0118 -0.1346 -0.0427
  186loPI   C3B 2975  14.127   5.749   8.727 -0.2560  0.1857  0.2670
  186loPI   C4B 2976  14.398   5.506   9.016  0.0577  0.1319  0.0403
  187loPI    C1 2977  12.467  11.567  10.004  0.2100  0.1800 -0.0614
  187loPI    C2 2978  12.638  11.913  10.109 -0.0814  0.3417 -0.1097
  187loPI    C3 2979  12.296  11.799  10.282  0.1657 -0.0698  0.1237
  187loPI   PO4 2980  12.596  11.598   9.762  0.1137  0.2171 -0.0756
  187loPI   GL1 2981  12.431  11.863   9.388 -0.0212  0.0832 -0.0116
  187loPI   GL2 2982  12.515  12.146   9.165 -0.0733  0.0306 -0.1123
  187loPI   C1A 2983  12.214  11.785   8.984  0.0842  0.0203 -0.0341
  187loPI   C2A 2984  12.022  11.875   8.502 -0.0201 -0.4112 -0.2717
  187loPI   C3A 2985  11.820  11.907   8.174  0.2277 -0.0999  0.3803
  187loPI   C4A 2986  11.650  12.004   7.794  0.0703 -0.0272  0.1288
  187loPI   C5A 2987  11.646  12.281   7.396  0.1104 -0.0150 -0.0975
  187loPI   C6A 2988  11.504  12.492   7.043  0.1637  0.0951  0.3516
  187loPI   C1B 2989  12.443  12.075   8.681  0.1515  0.0951 -0.1259
  187loPI   C2B 2990  12.431  12.235   8.370 -0.0538  0.3778 -0.2060
  187loPI   C3B 2991  12.119  12.291   8.070 -0.0651 -0.1158  0.0525
  187loPI   C4B 2992  12.117  12.200   7.628 -0.1419 -0.0494 -0.1925
  188loPI    C1 2993  15.106   1.237   9.793  0.0313  0.2667 -0.1125
  188loPI    C2 2994  15.503   1.211   9.752  0.0135  0.0622 -0.1652
  188loPI    C3 2995  15.346   1.464  10.019  0.1888 -0.0800  0.0765
  188loPI   PO4 2996  15.009   1.235   9.549  0.0552  0.3577  0.1297
  188loPI   GL1 2997  14.821   1.133   9.165 -0.0599  0.4725  0.2080
  188loPI   GL2 2998  14.672   1.082   8.907 -0.0239 -0.1548  0.2678
  188loPI   C1A 2999  15.096   1.215   8.727 -0.0703  0.1449  0.1125
  188loPI   C2A 3000  15.183   1.304   8.341 -0.0461  0.2371 -0.0539
  188loPI   C3A 3001  15.157   1.520   7.936 -0.0073 -0.1935 -0.1504
  188loPI   C4A 3002  15.053   1.578   7.526  0.1446 -0.1140 -0.1609
  188loPI   C5A 3003  14.848   1.429   7.276 -0.2370 -0.1828 -0.0209
  188loPI   C6A 3004  14.563   1.198   7.141 -0.1219 -0.1440 -0.2903
  188loPI   C1B 3005  14.648   1.081   8.452 -0.3552 -0.2603  0.3952
  188loPI   C2B 3006  14.707   1.464   8.133 -0.0821  0.0525  0.1163
  188loPI   C3B 3007  14.558   1.701   7.691  0.0610  0.0475  0.0520
  188loPI   C4B 3008  14.310   1.622   7.242 -0.3533 -0.1470 -0.2457
  189loPI    C1 3009  13.527   0.038   9.403  0.1880  0.0871 -0.1502
  189loPI    C2 3010  13.462   0.362   9.628  0.0567  0.1308 -0.2494
  189loPI    C3 3011  13.195   0.064   9.624  0.2906 -0.0892  0.0284
  189loPI   PO4 3012  13.542   0.148   9.086 -0.2311 -0.0295  0.1161
  189loPI   GL1 3013  13.188   0.067   8.673  0.0116 -0.0710  0.1192
  189loPI   GL2 3014  13.017  -0.163   8.773  0.0418  0.1196 -0.0550
  189loPI   C1A 3015  13.093   0.005   8.222 -0.0334  0.2029  0.1567
  189loPI   C2A 3016  12.728   0.035   7.907 -0.1569  0.0378  0.2755
  189loPI   C3A 3017  12.509   0.267   7.573 -0.0603 -0.0356 -0.1236
  189loPI   C4A 3018  12.262   0.485   7.273 -0.2067  0.1704  0.3699
  189loPI   C5A 3019  12.131   0.968   7.188  0.0018  0.2483 -0.2524
  189loPI   C6A 3020  12.393   1.405   7.354 -0.0021 -0.4287  0.4275
  189loPI   C1B 3021  12.651  -0.158   8.372 -0.2007  0.1464  0.1453
  189loPI   C2B 3022  12.390  -0.352   7.938  0.1052 -0.1675  0.1253
  189loPI   C3B 3023  12.355  -0.208   7.477  0.1341  0.0125  0.0941
  189loPI   C4B 3024  12.348   0.009   7.203 -0.0400  0.0626  0.0993
  190loPI    C1 3025  14.389   8.399   9.902  0.0582 -0.0138  0.0315
  190loPI    C2 3026  14.178   8.231  10.198 -0.0198  0.0205 -0.0041
  190loPI    C3 3027  14.543   8.377  10.271 -0.0102 -0.0345  0.0591
  190loPI   PO4 3028  14.302   8.248   9.704  0.1546 -0.0227  0.1337
  190loPI   GL1 3029  14.368   8.253   9.361  0.2348 -0.3884  0.0523
  190loPI   GL2 3030  14.122   8.454   9.248  0.3153  0.0827  0.3280
  190loPI   C1A 3031  14.520   8.311   8.972 -0.0197 -0.1054  0.1438
  190loPI   C2A 3032  14.535   8.181   8.559  0.2587  0.4481 -0.0019
  190loPI   C3A 3033  14.563   7.856   8.265 -0.3816 -0.1741 -0.1798
  190loPI   C4A 3034  14.805   7.761   8.002  0.0115  0.4217  0.2624
  190loPI   C5A 3035  14.966   7.522   7.803  0.0919 -0.3785  0.2190
  190loPI   C6A 3036  15.228   7.440   7.417  0.1940 -0.1078  0.2627
  190loPI   C1B 3037  14.134   8.503   8.725 -0.1635 -0.2133 -0.0538
  190loPI   C2B 3038  14.130   8.495   8.350  0.2360  0.0971  0.2784
  190loPI   C3B 3039  14.356   8.313   8.038 -0.0488 -0.0393  0.4297
  190loPI   C4B 3040  14.099   7.976   8.000  0.1812 -0.2870  0.2174
  191loPI    C1 3041   6.415  16.754  10.176  0.2945 -0.0545  0.3545
  191loPI    C2 3042   6.050  16.592  10.196  0.1227  0.2946  0.1395
  191loPI    C3 3043   6.260  16.655  10.531  0.0639 -0.0742  0.2498
  191loPI   PO4 3044   6.380  16.858   9.899  0.0280 -0.4231 -0.1293
  191loPI   GL1 3045   6.224  17.010   9.508 -0.0860 -0.3785  0.2679
  191loPI   GL2 3046   6.354  17.160   9.396  0.1107 -0.1341 -0.0954
  191loPI   C1A 3047   6.055  16.762   9.132 -0.0029 -0.2034 -0.1302
  191loPI   C2A 3048   6.107  16.709   8.727  0.2554 -0.0347  0.3475
  191loPI   C3A 3049   5.962  16.673   8.349  0.2864 -0.1185  0.2499
  191loPI   C4A 3050   5.941  16.631   7.913 -0.0273  0.3972 -0.2753
  191loPI   C5A 3051   6.298  16.682   7.606 -0.0570 -0.1759 -0.2228
  191loPI   C6A 3052   6.744  16.715   7.641 -0.0924 -0.0914 -0.1962
  191loPI   C1B 3053   6.445  17.234   9.024 -0.0950  0.5237  0.0356
  191loPI   C2B 3054   6.379  17.187   8.521 -0.0839  0.1804 -0.0421
  191loPI   C3B 3055   6.469  17.335   8.062 -0.1701  0.0310 -0.2968
  191loPI   C4B 3056   6.401  17.191   7.650  0.1094 -0.1171  0.3070
  192loPI    C1 3057   2.680   2.509   9.526 -0.2305 -0.0754  0.2666
  192loPI    C2 3058   3.034   2.670   9.619 -0.1784  0.1507 -0.2821
  192loPI    C3 3059   2.899   2.353   9.821  0.1930  0.2483  0.1344
  192loPI   PO4 3060   2.626   2.679   9.293  0.1044  0.1179 -0.3020
  192loPI   GL1 3061   2.428   2.513   8.911 -0.2116  0.1684  0.0492
  192loPI   GL2 3062   2.348   2.801   8.860  0.0210 -0.2630  0.1312
  192loPI   C1A 3063   2.534   2.227   8.496 -0.0123  0.0303 -0.1957
  192loPI   C2A 3064   2.397   2.274   8.034  0.1101  0.0713 -0.0339
  192loPI   C3A 3065   2.393   2.587   7.694 -0.0257 -0.1980  0.0165
  192loPI   C4A 3066   2.428   2.803   7.247  0.1137 -0.0952  0.1587
  192loPI   C5A 3067   2.018   2.854   6.945  0.0321  0.2243 -0.0524
  192loPI   C6A 3068   1.608   2.955   6.632 -0.0591 -0.0166 -0.0761
  192loPI   C1B 3069   2.395   2.798   8.387  0.3632 -0.1449 -0.2122
  192loPI   C2B 3070   2.504   2.964   8.031  0.2796  0.1723  0.0561
  192loPI   C3B 3071   2.981   2.926   7.938 -0.0125 -0.0178  0.2411
  192loPI   C4B 3072   3.345   2.681   8.053  0.1057  0.0981 -0.0651
  193loPI    C1 3073   4.168   8.056  10.079 -0.1178 -0.0194 -0.1463
  193loPI    C2 3074   3.815   7.934  10.223  0.0114  0.0156  0.2125
  193loPI    C3 3075   4.147   7.885  10.440  0.2193  0.0487 -0.0909
  193loPI   PO4 3076   4.094   8.308  10.045 -0.1387 -0.0381 -0.2201
  193loPI   GL1 3077   4.014   8.470   9.620 -0.3256 -0.0228  0.1225
  193loPI   GL2 3078   4.070   8.824   9.507 -0.1022 -0.0669  0.1167
  193loPI   C1A 3079   3.984   8.524   9.157  0.0035 -0.1276 -0.0068
  193loPI   C2A 3080   3.567   8.634   8.902 -0.1085  0.1938  0.1115
  193loPI   C3A 3081   3.218   8.600   8.536 -0.1463 -0.2760 -0.0080
  193loPI   C4A 3082   3.126   8.620   8.062 -0.2487 -0.2465  0.1626
  193loPI   C5A 3083   2.989   8.430   7.737 -0.3184 -0.2835  0.2340
  193loPI   C6A 3084   3.184   8.331   7.330 -0.0192 -0.0810 -0.0018
  193loPI   C1B 3085   4.342   8.868   9.151  0.2172  0.0283  0.1222
  193loPI   C2B 3086   4.439   8.879   8.715  0.1350 -0.1036 -0.0208
  193loPI   C3B 3087   4.566   8.900   8.230 -0.0888 -0.0951  0.0446
  193loPI   C4B 3088   4.898   8.978   7.948  0.2013  0.0142  0.2516
  194loPI    C1 3089   7.847  16.196  10.090  0.1321 -0.1936 -0.0301
  194loPI    C2 3090   7.784  16.530  10.302 -0.1670 -0.0158 -0.3870
  194loPI    C3 3091   8.153  16.439  10.176 -0.0365  0.0284 -0.0473
  194loPI   PO4 3092   7.653  16.106   9.858 -0.0115  0.2828 -0.1080
  194loPI   GL1 3093   7.646  16.251   9.446 -0.1081  0.1046 -0.1994
  194loPI   GL2 3094   7.389  16.169   9.312  0.2910  0.2822  0.1870
  194loPI   C1A 3095   7.747  16.438   9.001  0.1145 -0.0255 -0.1839
  194loPI   C2A 3096   7.784  16.216   8.644  0.0484  0.1487  0.2554
  194loPI   C3A 3097   7.642  16.242   8.269  0.0893  0.1050  0.0097
  194loPI   C4A 3098   7.986  16.439   7.996  0.1433  0.0784 -0.2585
  194loPI   C5A 3099   7.840  16.268   7.607  0.0412  0.0192 -0.0750
  194loPI   C6A 3100   7.873  16.170   7.111 -0.1364  0.1289  0.1419
  194loPI   C1B 3101   7.390  15.994   8.954 -0.0687  0.1556  0.0772
  194loPI   C2B 3102   7.605  15.827   8.675  0.2065  0.1043 -0.1086
  194loPI   C3B 3103   7.791  15.728   8.293 -0.1927  0.0525 -0.1331
  194loPI   C4B 3104   7.799  15.916   7.902  0.0389 -0.1322 -0.0657
  195loPI    C1 3105  19.019  14.436   9.443 -0.0627  0.1336  0.0193
  195loPI    C2 3106  18.963  14.611   9.799  0.0864  0.1047  0.0576
  195loPI    C3 3107  18.915  14.215   9.760 -0.0675  0.1273  0.0134
  195loPI   PO4 3108  19.306  14.605   9.379  0.1150  0.1560  0.1093
  195loPI   GL1 3109  19.525  14.656   9.024 -0.0628  0.0675  0.1662
  195loPI   GL2 3110  19.818  14.635   8.924 -0.2920  0.0281 -0.0827
  195loPI   C1A 3111  19.293  14.576   8.722  0.3055 -0.1452  0.2224
  195loPI   C2A 3112  19.325  14.517   8.271  0.1005 -0.0171  0.0870
  195loPI   C3A 3113  19.508  14.242   7.903  0.1484 -0.1537  0.2386
  195loPI   C4A 3114  19.582  13.929   7.562  0.0962  0.1600 -0.0012
  195loPI   C5A 3115  19.412  13.760   7.147 -0.2868  0.0945  0.1196
  195loPI   C6A 3116  19.337  13.610   6.720  0.0339  0.3386 -0.0492
  195loPI   C1B 3117  19.765  14.752   8.546 -0.2277  0.0827  0.1643
  195loPI   C2B 3118  19.500  14.950   8.271  0.0130 -0.2290 -0.1540
  195loPI   C3B 3119  19.057  14.901   8.419 -0.4090  0.0428  0.2105
  195loPI   C4B 3120  18.694  14.660   8.506  0.1609  0.0706 -0.3547
  196loPI    C1 3121  16.644  13.152   9.646  0.0825  0.1440  0.0380
  196loPI    C2 3122  16.735  12.919   9.958 -0.1140  0.0896  0.0565
  196loPI    C3 3123  16.371  13.082   9.930  0.0011  0.3447  0.0114
  196loPI   PO4 3124  16.698  13.004   9.435  0.2255 -0.1927 -0.2371
  196loPI   GL1 3125  16.950  12.897   9.154 -0.2131  0.0760  0.1196
  196loPI   GL2 3126  17.102  12.662   9.208 -0.0992 -0.2057  0.0736
  196loPI   C1A 3127  16.924  12.982   8.741  0.2770 -0.1118  0.0932
  196loPI   C2A 3128  16.958  13.001   8.371 -0.3020  0.3433  0.0086
  196loPI   C3A 3129  16.928  13.098   7.906 -0.2250  0.5230  0.0249
  196loPI   C4A 3130  16.896  13.096   7.492  0.1747  0.0561 -0.0752
  196loPI   C5A 3131  16.966  13.153   7.129 -0.0325  0.0161 -0.1972
  196loPI   C6A 3132  16.775  13.310   6.754 -0.0190  0.2766 -0.4534
  196loPI   C1B 3133  17.355  12.672   8.909 -0.4671 -0.0953 -0.0575
  196loPI   C2B 3134  17.309  12.661   8.485 -0.2055 -0.1253  0.0600
  196loPI   C3B 3135  17.386  12.597   8.044  0.4142  0.3245 -0.2013
  196loPI   C4B 3136  17.402  12.453   7.674  0.1722 -0.0758 -0.2007
  197loPI    C1 3137  11.327   9.722   9.816 -0.2983 -0.0751 -0.0891
  197loPI    C2 3138  11.217   9.683  10.199 -0.1032  0.1362 -0.0087
  197loPI    C3 3139  11.295   9.358   9.978 -0.0484  0.0192  0.1810
  197loPI   PO4 3140  11.111   9.820   9.716 -0.1131 -0.1671 -0.1460
  197loPI   GL1 3141  10.766   9.930   9.518  0.2645  0.1149  0.4589
  197loPI   GL2 3142  10.706   9.686   9.427  0.1756  0.2485  0.2015
  197loPI   C1A 3143  10.863  10.175   9.134 -0.2064  0.2296 -0.2600
  197loPI   C2A 3144  10.719  10.144   8.704  0.1241  0.1821 -0.1750
  197loPI   C3A 3145  10.760   9.909   8.349  0.3736 -0.2746 -0.2960
  197loPI   C4A 3146  10.755   9.744   7.878  0.0656  0.3077 -0.0486
  197loPI   C5A 3147  10.996   9.839   7.565 -0.2395 -0.3898  0.0467
  197loPI   C6A 3148  11.030   9.979   7.141 -0.2667 -0.0867  0.1751
  197loPI   C1B 3149  10.532   9.700   9.029  0.0236  0.1418 -0.0958
  197loPI   C2B 3150  10.497   9.481   8.651 -0.1561 -0.2127 -0.1276
  197loPI   C3B 3151  10.859   9.428   8.348  0.2591  0.1494 -0.5611
  197loPI   C4B 3152  11.140   9.180   8.142 -0.1949  0.2786  0.1118
  198loPI    C1 3153   5.819  10.010  10.445  0.0051 -0.0540  0.0050
  198loPI    C2 3154   5.879   9.707  10.699 -0.0983 -0.0327  0.0551
  198loPI    C3 3155   5.959  10.082  10.813  0.2219 -0.0592 -0.0752
  198loPI   PO4 3156   5.749   9.872  10.239  0.1208  0.0559 -0.3565
  198loPI   GL1 3157   5.517   9.928   9.830 -0.2950 -0.0510 -0.0697
  198loPI   GL2 3158   5.437   9.625   9.932 -0.1774 -0.2503 -0.1307
  198loPI   C1A 3159   5.298   9.888   9.408 -0.0353 -0.1745 -0.0598
  198loPI   C2A 3160   5.240   9.998   8.951 -0.1935  0.2763 -0.1083
  198loPI   C3A 3161   5.307   9.933   8.563 -0.0049 -0.1047 -0.0337
  198loPI   C4A 3162   5.273   9.967   8.111  0.0892  0.0067 -0.1366
  198loPI   C5A 3163   5.341  10.376   7.904  0.2659  0.0901  0.0956
  198loPI   C6A 3164   5.460  10.808   7.742 -0.0740 -0.0814  0.0733
  198loPI   C1B 3165   5.225   9.405   9.642  0.1838  0.2321 -0.0820
  198loPI   C2B 3166   5.238   9.412   9.196 -0.3102  0.2778 -0.4024
  198loPI   C3B 3167   5.235   9.436   8.802  0.0555  0.1085 -0.0051
  198loPI   C4B 3168   5.169   9.393   8.443 -0.3224 -0.1420 -0.2147
  199loPI    C1 3169  18.401  13.524   9.754  0.0847  0.1699 -0.0426
  199loPI    C2 3170  18.617  13.855   9.814 -0.0773  0.3268 -0.3045
  199loPI    C3 3171  18.257  13.880   9.642 -0.1643  0.0313 -0.1706
  199loPI   PO4 3172  18.590  13.409   9.586 -0.0268  0.0059 -0.0525
  199loPI   GL1 3173  18.390  13.378   9.190  0.1337 -0.1446  0.3433
  199loPI   GL2 3174  18.279  13.697   9.189  0.1967 -0.1989 -0.2146
  199loPI   C1A 3175  18.397  13.117   8.787  0.3172  0.2698  0.1818
  199loPI   C2A 3176  18.262  12.870   8.381  0.1388  0.0233 -0.0935
  199loPI   C3A 3177  18.323  12.875   7.870 -0.0667 -0.1559 -0.2328
  199loPI   C4A 3178  18.283  12.863   7.426 -0.2082  0.1369  0.0373
  199loPI   C5A 3179  18.429  12.757   7.063 -0.1897 -0.0672  0.1450
  199loPI   C6A 3180  18.595  12.525   6.739  0.1556  0.1840  0.1514
  199loPI   C1B 3181  18.518  13.703   8.832 -0.0523 -0.3096 -0.1032
  199loPI   C2B 3182  18.874  13.675   8.663 -0.1517 -0.0404 -0.0967
  199loPI   C3B 3183  19.058  13.593   8.224  0.3519  0.2895 -0.0458
  199loPI   C4B 3184  19.035  13.413   7.742 -0.0086  0.0516  0.0441
  200loPI    C1 3185   2.159   1.501   9.387 -0.1549  0.1070 -0.0505
  200loPI    C2 3186   2.255   1.655   9.744 -0.1541 -0.1796  0.0764
  200loPI    C3 3187   1.923   1.777   9.556 -0.0553  0.1105  0.0847
  200loPI   PO4 3188   2.154   1.182   9.399  0.2218 -0.1305  0.0476
  200loPI   GL1 3189   2.055   0.826   9.115 -0.2196 -0.0867  0.0770
  200loPI   GL2 3190   1.760   1.030   9.060 -0.2459 -0.1626  0.0073
  200loPI   C1A 3191   2.282   0.542   8.797  0.3514  0.0791 -0.1545
  200loPI   C2A 3192   2.161   0.428   8.442 -0.2110  0.1001 -0.2327
  200loPI   C3A 3193   1.865   0.494   8.128 -0.0149  0.1717  0.1606
  200loPI   C4A 3194   1.635   0.494   7.756 -0.2301  0.2978 -0.3277
  200loPI   C5A 3195   1.262   0.328   7.693 -0.0192 -0.0659  0.0439
  200loPI   C6A 3196   0.866   0.251   7.814 -0.3168 -0.0876  0.2094
  200loPI   C1B 3197   1.956   1.234   8.737 -0.1759 -0.0343  0.1176
  200loPI   C2B 3198   2.200   1.111   8.390  0.1594  0.2989  0.0111
  200loPI   C3B 3199   2.324   0.943   7.997  0.0725 -0.2762  0.2522
  200loPI   C4B 3200   2.287   1.207   7.673  0.0898  0.2017  0.3113
  201loPI    C1 3201   7.828   2.114   9.737  0.0860  0.1504  0.0341
  201loPI    C2 3202   7.986   1.844   9.986 -0.1675  0.0007  0.0362
  201loPI    C3 3203   7.707   2.099  10.118  0.1277  0.3223  0.0552
  201loPI   PO4 3204   8.037   2.130   9.491 -0.3106  0.0353  0.0377
  201loPI   GL1 3205   8.290   2.062   9.031 -0.1578  0.3304 -0.0216
  201loPI   GL2 3206   8.626   2.083   9.121 -0.2543 -0.1559  0.1162
  201loPI   C1A 3207   8.239   2.186   8.619 -0.0100 -0.0299  0.0579
  201loPI   C2A 3208   7.994   2.075   8.290 -0.1610  0.1213 -0.0321
  201loPI   C3A 3209   7.865   1.668   8.174 -0.3838  0.1970 -0.0764
  201loPI   C4A 3210   8.010   1.331   7.909  0.0594 -0.2551 -0.0743
  201loPI   C5A 3211   8.079   1.014   7.564 -0.0822 -0.1074  0.0341
  201loPI   C6A 3212   8.276   0.940   7.109 -0.0780  0.0723 -0.0144
  201loPI   C1B 3213   8.706   1.974   8.693 -0.1305 -0.0112 -0.2089
  201loPI   C2B 3214   8.458   1.851   8.331  0.0195 -0.3302 -0.0175
  201loPI   C3B 3215   8.332   1.716   7.916  0.2828  0.3046 -0.1219
  201loPI   C4B 3216   8.018   1.805   7.538 -0.0227 -0.0081 -0.1555
  202loPI    C1 3217   6.631   2.337   9.712 -0.0493  0.0542 -0.0349
  202loPI    C2 3218   6.851   2.115   9.961  0.0752  0.0825 -0.1190
  202loPI    C3 3219   6.558   2.345  10.105  0.0763  0.0166 -0.0106
  202loPI   PO4 3220   6.846   2.369   9.567  0.0711 -0.1569 -0.0826
  202loPI   GL1 3221   6.814   2.313   9.132  0.0866 -0.1976  0.0321
  202loPI   GL2 3222   6.789   1.951   9.076  0.0986 -0.0440 -0.2114
  202loPI   C1A 3223   7.211   2.615   9.072  0.4372  0.2182  0.1793
  202loPI   C2A 3224   7.517   2.588   8.708 -0.0041 -0.1090  0.2230
  202loPI   C3A 3225   7.462   2.276   8.399 -0.0870  0.0457 -0.2507
  202loPI   C4A 3226   7.483   1.988   8.025  0.1798  0.2776 -0.1951
  202loPI   C5A 3227   7.614   1.662   7.754 -0.2089 -0.3527  0.3321
  202loPI   C6A 3228   7.426   1.352   7.488  0.0902  0.0368 -0.0907
  202loPI   C1B 3229   6.593   2.118   8.690 -0.0365 -0.1298  0.0620
  202loPI   C2B 3230   6.466   2.096   8.229 -0.0921 -0.0144  0.0771
  202loPI   C3B 3231   6.200   2.446   7.973  0.1688  0.0616 -0.0686
  202loPI   C4B 3232   6.267   2.784   7.808 -0.3551  0.1722  0.2495
  203loPI    C1 3233   2.403   4.489   9.705  0.1878 -0.0782  0.0797
  203loPI    C2 3234   2.117   4.273   9.882 -0.2139  0.0923 -0.3430
  203loPI    C3 3235   2.232   4.621  10.042 -0.0949 -0.0728 -0.0631
  203loPI   PO4 3236   2.316   4.519   9.477 -0.4046  0.2288  0.0156
  203loPI   GL1 3237   2.234   4.438   9.083  0.3058  0.2031 -0.0509
  203loPI   GL2 3238   2.466   4.707   9.036  0.2165 -0.0537  0.0018
  203loPI   C1A 3239   2.114   4.176   8.716  0.2750  0.1020 -0.1730
  203loPI   C2A 3240   2.241   4.270   8.245 -0.2298  0.0850 -0.2669
  203loPI   C3A 3241   2.477   4.555   7.937  0.0444  0.0760 -0.0497
  203loPI   C4A 3242   2.667   4.879   7.781 -0.2179  0.0995  0.0819
  203loPI   C5A 3243   2.484   5.165   7.408  0.0526  0.2519 -0.0198
  203loPI   C6A 3244   2.592   5.585   7.230  0.0797 -0.0297 -0.1556
  203loPI   C1B 3245   2.470   4.581   8.564  0.0633  0.0508  0.1630
  203loPI   C2B 3246   2.775   4.707   8.298  0.2166  0.0538 -0.0372
  203loPI   C3B 3247   2.964   4.545   7.942  0.1065  0.2348  0.1411
  203loPI   C4B 3248   3.130   4.277   7.768  0.0573  0.1083 -0.0125
  204loPI    C1 3249  17.991  12.466   9.674 -0.2933  0.0436  0.1765
  204loPI    C2 3250  18.146  12.126   9.816  0.2923  0.2347  0.0195
  204loPI    C3 3251  18.201  12.469  10.014  0.3621  0.3601 -0.2124
  204loPI   PO4 3252  18.111  12.542   9.406  0.0845 -0.0070 -0.0812
  204loPI   GL1 3253  18.251  12.705   8.994 -0.0595 -0.0362 -0.0275
  204loPI   GL2 3254  18.238  12.379   8.951  0.1756  0.1594  0.3218
  204loPI   C1A 3255  18.677  12.688   8.669  0.1612  0.1601 -0.4901
  204loPI   C2A 3256  18.814  12.587   8.264  0.0187  0.2537  0.1628
  204loPI   C3A 3257  18.718  12.623   7.878  0.0425  0.0394 -0.4135
  204loPI   C4A 3258  18.684  12.511   7.480  0.1714  0.0692 -0.0503
  204loPI   C5A 3259  18.678  12.312   7.231 -0.1001 -0.0525  0.1030
  204loPI   C6A 3260  18.984  11.944   7.162 -0.1876  0.0445  0.2463
  204loPI   C1B 3261  18.322  12.377   8.542  0.2296 -0.0208 -0.0152
  204loPI   C2B 3262  18.301  12.407   8.148 -0.0654 -0.0043  0.0044
  204loPI   C3B 3263  18.276  12.376   7.757 -0.3476 -0.2751  0.0108
  204loPI   C4B 3264  18.170  12.317   7.310  0.2989  0.0497  0.0152
  205loPI    C1 3265   2.749  12.472  10.195  0.0706 -0.1939 -0.0466
  205loPI    C2 3266   2.598  12.106  10.251 -0.0955 -0.0909  0.1972
  205loPI    C3 3267   2.765  12.301  10.557  0.1181 -0.0174  0.0356
  205loPI   PO4 3268   2.872  12.512   9.998 -0.1958 -0.0094 -0.1872
  205loPI   GL1 3269   2.676  12.405   9.608  0.0801  0.0510 -0.3554
  205loPI   GL2 3270   2.456  12.321   9.769 -0.1072 -0.0257  0.0692
  205loPI   C1A 3271   2.713  12.628   9.192  0.0888  0.0222 -0.2127
  205loPI   C2A 3272   2.693  12.864   8.746 -0.0615  0.1897 -0.2898
  205loPI   C3A 3273   2.857  12.600   8.547  0.2831 -0.0290 -0.3568
  205loPI   C4A 3274   2.860  12.173   8.376 -0.1520 -0.1469  0.3306
  205loPI   C5A 3275   3.047  12.011   7.998 -0.0325 -0.2265  0.0146
  205loPI   C6A 3276   3.116  11.962   7.631  0.2130 -0.1662 -0.2358
  205loPI   C1B 3277   2.149  12.568   9.601 -0.2645 -0.0672  0.2110
  205loPI   C2B 3278   2.210  12.780   9.083 -0.0273 -0.1430  0.0316
  205loPI   C3B 3279   1.886  12.771   8.687 -0.0846 -0.2936  0.1715
  205loPI   C4B 3280   1.587  12.922   8.474  0.1343  0.1611  0.4329
  206loPI    C1 3281  11.675   7.937   9.906  0.2143 -0.0112 -0.5092
  206loPI    C2 3282  11.657   7.572  10.067  0.3055  0.2447  0.1114
  206loPI    C3 3283  11.325   7.794  10.037  0.3116  0.2476  0.0672
  206loPI   PO4 3284  11.871   7.848   9.678  0.3389 -0.0435 -0.0246
  206loPI   GL1 3285  12.061   7.982   9.299 -0.1339 -0.2083 -0.1329
  206loPI   GL2 3286  11.735   7.900   9.219  0.0293  0.0770  0.1373
  206loPI   C1A 3287  12.329   7.910   8.917 -0.1559  0.3579 -0.1218
  206loPI   C2A 3288  12.204   7.967   8.436 -0.2262  0.0337  0.0993
  206loPI   C3A 3289  12.054   7.796   8.065 -0.0994 -0.1593  0.0684
  206loPI   C4A 3290  11.936   7.357   7.998  0.1630  0.1122  0.1772
  206loPI   C5A 3291  11.676   7.185   7.704  0.1224 -0.2029 -0.1416
  206loPI   C6A 3292  11.473   7.169   7.340  0.2103 -0.0124 -0.1172
  206loPI   C1B 3293  11.874   7.947   8.779  0.1157 -0.0651 -0.3069
  206loPI   C2B 3294  11.758   7.637   8.419 -0.0968  0.0506  0.1190
  206loPI   C3B 3295  11.551   7.631   7.963 -0.0483 -0.1710 -0.4318
  206loPI   C4B 3296  11.762   7.683   7.605 -0.2517 -0.0887  0.0311
  207loPI    C1 3297   8.847  10.679  10.225  0.0309 -0.0143  0.0997
  207loPI    C2 3298   9.113  10.437  10.401 -0.0187  0.0090  0.2074
  207loPI    C3 3299   8.747  10.477  10.555 -0.1163 -0.0957  0.0059
  207loPI   PO4 3300   8.792  10.581   9.933  0.2830 -0.2685 -0.0304
  207loPI   GL1 3301   8.850  10.634   9.528  0.0535 -0.0295  0.3026
  207loPI   GL2 3302   9.220  10.759   9.506  0.1484  0.1579 -0.0154
  207loPI   C1A 3303   8.609  10.537   9.157  0.0574 -0.2900 -0.1787
  207loPI   C2A 3304   8.607  10.595   8.771 -0.1985  0.1763  0.2096
  207loPI   C3A 3305   8.549  10.717   8.368 -0.0255  0.1735 -0.1771
  207loPI   C4A 3306   8.513  10.878   7.978  0.0798 -0.1521 -0.0458
  207loPI   C5A 3307   8.309  10.998   7.539 -0.0334 -0.3959 -0.1791
  207loPI   C6A 3308   8.050  10.885   7.202 -0.2731  0.0665  0.2985
  207loPI   C1B 3309   9.081  10.669   9.045 -0.1082  0.1366  0.1083
  207loPI   C2B 3310   9.078  10.802   8.599 -0.3876 -0.0428 -0.3819
  207loPI   C3B 3311   9.037  10.789   8.155  0.2914 -0.1307 -0.1070
  207loPI   C4B 3312   8.942  10.689   7.802 -0.0833 -0.3911  0.0112
  208loPI    C1 3313  18.918   1.067   9.813 -0.2058  0.1995  0.1373
  208loPI    C2 3314  19.171   0.966  10.106 -0.0146  0.0096 -0.0894
  208loPI    C3 3315  18.794   0.833  10.113 -0.0514  0.1217  0.1412
  208loPI   PO4 3316  19.031   1.154   9.635  0.2190  0.1879 -0.1036
  208loPI   GL1 3317  18.905   1.343   9.303  0.0419  0.4447 -0.3900
  208loPI   GL2 3318  18.623   1.065   9.049 -0.4359 -0.0738 -0.0408
  208loPI   C1A 3319  19.266   1.382   8.926 -0.2335 -0.0825 -0.0618
  208loPI   C2A 3320  19.039   1.666   8.526  0.3005  0.0672 -0.1640
  208loPI   C3A 3321  19.205   1.676   8.152  0.2013  0.0389 -0.1809
  208loPI   C4A 3322  19.294   1.692   7.717 -0.0612  0.0353  0.1121
  208loPI   C5A 3323  19.150   1.624   7.245  0.2200 -0.1664 -0.0360
  208loPI   C6A 3324  19.068   1.692   6.786  0.0288  0.0817  0.2067
  208loPI   C1B 3325  18.783   1.292   8.713  0.0145  0.2467 -0.3253
  208loPI   C2B 3326  18.738   1.402   8.232 -0.0572 -0.0409  0.0465
  208loPI   C3B 3327  18.743   1.788   7.956 -0.0873 -0.2060  0.0248
  208loPI   C4B 3328  18.830   1.889   7.456  0.0378  0.1923  0.0611
  209loPI    C1 3329   9.550   1.946   9.328  0.0792 -0.0779  0.1306
  209loPI    C2 3330   9.702   1.957   9.698  0.0747 -0.0595  0.1319
  209loPI    C3 3331   9.372   2.166   9.612 -0.1507 -0.3726  0.2195
  209loPI   PO4 3332   9.513   1.731   9.268  0.0336 -0.1381  0.2226
  209loPI   GL1 3333   9.432   1.620   8.846 -0.0799 -0.0581 -0.4463
  209loPI   GL2 3334   9.175   1.787   8.876 -0.2659  0.1463 -0.1282
  209loPI   C1A 3335   9.551   1.683   8.411  0.1370 -0.0702 -0.0110
  209loPI   C2A 3336   9.850   1.971   8.187  0.1810 -0.1451 -0.1628
  209loPI   C3A 3337   9.757   2.186   7.828  0.0726 -0.1704 -0.0223
  209loPI   C4A 3338   9.573   2.257   7.385 -0.2191 -0.2189 -0.0121
  209loPI   C5A 3339   9.307   2.578   7.288  0.0799 -0.3225  0.4623
  209loPI   C6A 3340   9.182   2.926   6.946  0.2701 -0.0258  0.0162
  209loPI   C1B 3341   9.100   1.821   8.402  0.0783 -0.1647 -0.3117
  209loPI   C2B 3342   9.235   1.863   8.028  0.1916  0.0120 -0.1833
  209loPI   C3B 3343   9.268   1.849   7.727 -0.2795 -0.2596 -0.1241
  209loPI   C4B 3344   9.400   1.748   7.320 -0.1293  0.0679  0.0127
  210loPI    C1 3345  15.464   3.889   9.827 -0.1622  0.2130 -0.3959
  210loPI    C2 3346  15.180   3.858  10.107  0.2774  0.0469  0.0466
  210loPI    C3 3347  15.229   4.202   9.909 -0.1271  0.1244  0.0728
  210loPI   PO4 3348  15.410   3.588   9.674  0.0760  0.2918 -0.0199
  210loPI   GL1 3349  15.547   3.637   9.247  0.1023 -0.1466  0.2706
  210loPI   GL2 3350  15.453   3.375   9.211  0.1831  0.0450 -0.2203
  210loPI   C1A 3351  15.647   3.785   8.906 -0.1230  0.1010  0.3030
  210loPI   C2A 3352  15.583   3.679   8.491  0.0670 -0.0717  0.2637
  210loPI   C3A 3353  15.534   3.825   7.990 -0.0623  0.1604  0.0029
  210loPI   C4A 3354  15.285   3.908   7.698  0.1646 -0.3572 -0.2446
  210loPI   C5A 3355  15.215   4.003   7.349 -0.0137 -0.1807 -0.0579
  210loPI   C6A 3356  15.043   4.316   7.244  0.0040 -0.1805  0.2829
  210loPI   C1B 3357  15.219   3.386   8.850  0.2650 -0.0381 -0.1056
  210loPI   C2B 3358  15.178   3.416   8.363  0.0554  0.1271  0.2066
  210loPI   C3B 3359  15.363   3.303   7.968  0.3962  0.2363 -0.0452
  210loPI   C4B 3360  15.712   3.524   7.621  0.0915  0.1655  0.2126
  211loPI    C1 3361  11.835  17.698   9.669  0.0634  0.1105  0.0887
  211loPI    C2 3362  11.703  17.320   9.671  0.0474  0.1160  0.0890
  211loPI    C3 3363  11.692  17.538  10.007  0.3641  0.0107  0.1714
  211loPI   PO4 3364  11.625  17.779   9.509  0.0201  0.0604 -0.1570
  211loPI   GL1 3365  11.586  17.509   9.225  0.2116 -0.1492  0.0559
  211loPI   GL2 3366  11.310  17.697   9.130 -0.3519  0.2468  0.0329
  211loPI   C1A 3367  11.662  17.444   8.761  0.1439 -0.2301 -0.1754
  211loPI   C2A 3368  11.600  17.444   8.413  0.1084  0.0667  0.4010
  211loPI   C3A 3369  11.595  17.494   7.991  0.2715 -0.0923 -0.1622
  211loPI   C4A 3370  11.655  17.326   7.652 -0.1694  0.1842 -0.0396
  211loPI   C5A 3371  11.953  17.471   7.362  0.1066  0.1366  0.1779
  211loPI   C6A 3372  12.186  17.773   7.149 -0.2012 -0.5297 -0.1970
  211loPI   C1B 3373  11.222  17.705   8.756 -0.0574 -0.5975  0.0795
  211loPI   C2B 3374  11.313  17.892   8.424 -0.0869  0.0768 -0.1224
  211loPI   C3B 3375  11.336  17.947   8.063  0.0755  0.2842 -0.2587
  211loPI   C4B 3376  11.678  18.168   7.838 -0.3914  0.1935 -0.2248
  212loPI    C1 3377  12.190   1.922   9.892  0.0517  0.1992 -0.0188
  212loPI    C2 3378  12.489   1.817  10.137 -0.0592  0.0548  0.0566
  212loPI    C3 3379  12.208   2.073  10.262 -0.0556  0.0658  0.0421
  212loPI   PO4 3380  12.168   1.722   9.642  0.0949  0.0260  0.0292
  212loPI   GL1 3381  12.162   1.548   9.263 -0.0216  0.0639 -0.1131
  212loPI   GL2 3382  12.133   1.763   9.121 -0.3005  0.0430 -0.0806
  212loPI   C1A 3383  11.914   1.343   8.980 -0.2221  0.0601 -0.0276
  212loPI   C2A 3384  11.437   1.337   8.763 -0.0228 -0.2181 -0.3019
  212loPI   C3A 3385  11.352   1.271   8.262  0.0862 -0.1031  0.2966
  212loPI   C4A 3386  11.151   1.227   7.808 -0.4983 -0.3178 -0.2361
  212loPI   C5A 3387  11.021   1.216   7.325 -0.1652 -0.1333 -0.1226
  212loPI   C6A 3388  11.121   1.575   7.001 -0.1468 -0.0783  0.0056
  212loPI   C1B 3389  12.210   1.735   8.690 -0.0231  0.0250 -0.2854
  212loPI   C2B 3390  12.276   1.602   8.302  0.0092  0.2177  0.3850
  212loPI   C3B 3391  12.137   1.470   7.887 -0.2132  0.2667  0.1070
  212loPI   C4B 3392  11.908   1.497   7.507 -0.3812  0.1049  0.2063
  213loPI    C1 3393  11.510  14.725   9.838 -0.1602  0.3697  0.6376
  213loPI    C2 3394  11.729  14.449  10.027 -0.1154  0.0280  0.1112
  213loPI    C3 3395  11.896  14.794   9.912  0.0571 -0.0852  0.0190
  213loPI   PO4 3396  11.335  14.616   9.660  0.2903 -0.1099 -0.0877
  213loPI   GL1 3397  11.238  14.515   9.183 -0.0107 -0.3817 -0.1503
  213loPI   GL2 3398  10.984  14.544   9.110 -0.1201 -0.0539 -0.0334
  213loPI   C1A 3399  11.282  14.141   8.918 -0.3971  0.0488  0.0335
  213loPI   C2A 3400  11.291  14.052   8.539  0.1654  0.0220  0.0540
  213loPI   C3A 3401  11.310  14.252   8.177 -0.0927  0.0393  0.1506
  213loPI   C4A 3402  11.276  14.193   7.699  0.1093  0.0591 -0.2145
  213loPI   C5A 3403  11.230  14.046   7.203 -0.1707  0.0320  0.0065
  213loPI   C6A 3404  11.369  13.909   6.757 -0.0299  0.0669  0.1297
  213loPI   C1B 3405  10.876  14.606   8.659  0.1039 -0.2172  0.0156
  213loPI   C2B 3406  10.753  14.411   8.261 -0.2441 -0.0595  0.1914
  213loPI   C3B 3407  10.659  14.411   7.766  0.2567  0.2677 -0.0548
  213loPI   C4B 3408  10.482  14.625   7.342  0.2735  0.0396  0.2685
  214loPI    C1 3409  11.011   2.792   9.922  0.1048  0.0932  0.1740
  214loPI    C2 3410  11.208   3.045  10.161  0.0525 -0.0658  0.3884
  214loPI    C3 3411  11.211   2.653  10.239  0.1056 -0.1299  0.0774
  214loPI   PO4 3412  11.129   2.828   9.647 -0.3194 -0.0739  0.1356
  214loPI   GL1 3413  11.239   2.837   9.279 -0.2679  0.1475 -0.2072
  214loPI   GL2 3414  11.167   2.461   9.246  0.1524  0.2024  0.0064
  214loPI   C1A 3415  10.961   3.132   8.974  0.0214 -0.3104 -0.0404
  214loPI   C2A 3416  10.850   3.131   8.533  0.3768  0.0016  0.1742
  214loPI   C3A 3417  10.901   3.227   8.060 -0.0639 -0.2053 -0.2960
  214loPI   C4A 3418  10.945   3.439   7.570  0.0495 -0.0924  0.0375
  214loPI   C5A 3419  11.126   3.627   7.149  0.4575  0.1699 -0.3435
  214loPI   C6A 3420  11.148   4.053   6.908  0.1502 -0.0828  0.2359
  214loPI   C1B 3421  11.079   2.556   8.838  0.0665 -0.1772 -0.0778
  214loPI   C2B 3422  10.800   2.638   8.627 -0.2044  0.1624  0.0907
  214loPI   C3B 3423  10.566   2.427   8.351  0.0644 -0.4808  0.0024
  214loPI   C4B 3424  10.714   2.465   8.019 -0.1657 -0.2132  0.1100
  215loPI    C1 3425  18.495   5.611  10.140  0.0841 -0.0106  0.2001
  215loPI    C2 3426  18.492   5.949  10.354  0.1129  0.1269 -0.0138
  215loPI    C3 3427  18.793   5.689  10.396  0.3094  0.3279 -0.1542
  215loPI   PO4 3428  18.475   5.612   9.934 -0.0504 -0.3207 -0.1634
  215loPI   GL1 3429  18.356   5.475   9.566  0.0169  0.2016 -0.0845
  215loPI   GL2 3430  18.680   5.330   9.362  0.1404  0.2824  0.2551
  215loPI   C1A 3431  18.325   5.670   9.227 -0.1564  0.3641 -0.2660
  215loPI   C2A 3432  18.448   5.576   8.793 -0.0418  0.2296  0.0424
  215loPI   C3A 3433  18.729   5.714   8.560 -0.1225 -0.1569  0.1599
  215loPI   C4A 3434  18.830   5.890   8.245  0.0799 -0.0848  0.2973
  215loPI   C5A 3435  19.064   5.785   7.855 -0.1255 -0.1627  0.3118
  215loPI   C6A 3436  19.230   5.746   7.560 -0.0320  0.0658  0.4126
  215loPI   C1B 3437  18.873   5.621   9.049  0.0691 -0.3961  0.1423
  215loPI   C2B 3438  19.179   5.583   8.734 -0.0257 -0.1422 -0.0824
  215loPI   C3B 3439  19.464   5.263   8.463  0.0176  0.1137 -0.0021
  215loPI   C4B 3440  19.644   4.866   8.200  0.0284  0.1340  0.1756
  216loPI    C1 3441   5.595   0.483   9.929 -0.0303 -0.1382  0.2727
  216loPI    C2 3442   5.845   0.463  10.241 -0.1650 -0.0409  0.3888
  216loPI    C3 3443   5.695   0.816  10.128 -0.0550 -0.0645  0.1625
  216loPI   PO4 3444   5.766   0.364   9.714 -0.1870  0.4415  0.0401
  216loPI   GL1 3445   5.639   0.090   9.399  0.3104  0.3299 -0.3508
  216loPI   GL2 3446   5.398   0.262   9.413 -0.0667  0.0668 -0.2222
  216loPI   C1A 3447   5.839  -0.073   8.985 -0.1543 -0.0100  0.1675
  216loPI   C2A 3448   5.840  -0.062   8.533  0.1760  0.2048  0.0681
  216loPI   C3A 3449   5.730   0.146   8.123  0.1469  0.1556 -0.1146
  216loPI   C4A 3450   5.654  -0.054   7.698  0.0280 -0.2234  0.1538
  216loPI   C5A 3451   5.489  -0.202   7.199 -0.3364 -0.1005 -0.0042
  216loPI   C6A 3452   5.312   0.232   6.916 -0.2108  0.4124 -0.1271
  216loPI   C1B 3453   5.254  -0.017   9.148  0.2636  0.2224  0.1439
  216loPI   C2B 3454   5.346   0.142   8.738  0.0223  0.2367  0.0019
  216loPI   C3B 3455   5.356   0.335   8.367 -0.0765 -0.1127 -0.2187
  216loPI   C4B 3456   5.532   0.634   8.162  0.1387 -0.2457 -0.1398
  217loPI    C1 3457   0.113  16.477   9.303 -0.0795  0.0933 -0.1285
  217loPI    C2 3458  -0.127  16.370   9.605 -0.0320  0.1139 -0.0834
  217loPI    C3 3459   0.232  16.530   9.681  0.1059 -0.1587 -0.1489
  217loPI   PO4 3460  -0.020  16.658   9.146 -0.6302 -0.0072  0.0443
  217loPI   GL1 3461   0.024  16.765   8.738 -0.0813  0.0824  0.0784
  217loPI   GL2 3462  -0.251  16.817   8.695  0.2056 -0.2995  0.0226
  217loPI   C1A 3463   0.328  16.757   8.524 -0.0953 -0.1545 -0.1395
  217loPI   C2A 3464   0.395  16.641   8.147 -0.1114 -0.1063  0.2112
  217loPI   C3A 3465   0.315  16.664   7.654 -0.2183 -0.0953 -0.2421
  217loPI   C4A 3466   0.370  16.572   7.288  0.1137 -0.1894  0.1339
  217loPI   C5A 3467   0.483  16.353   6.912 -0.0435  0.1539  0.0557
  217loPI   C6A 3468   0.671  16.421   6.435  0.4147 -0.0752 -0.1726
  217loPI   C1B 3469  -0.239  16.561   8.364 -0.3909  0.1582  0.0893
  217loPI   C2B 3470  -0.466  16.399   8.099  0.4548 -0.1200  0.1361
  217loPI   C3B 3471  -0.575  16.446   7.569 -0.0953 -0.1296  0.0533
  217loPI   C4B 3472  -0.501  16.381   7.185  0.0129  0.1907 -0.2565
  218loPI    C1 3473   2.670  17.710   9.874  0.1213 -0.0781  0.1279
  218loPI    C2 3474   2.897  17.569  10.172  0.1085 -0.1383  0.1093
  218loPI    C3 3475   2.728  17.930  10.203 -0.1652 -0.2810  0.3187
  218loPI   PO4 3476   2.770  17.536   9.667  0.0898 -0.1770 -0.0629
  218loPI   GL1 3477   2.775  17.450   9.154  0.0801  0.3480 -0.3307
  218loPI   GL2 3478   3.056  17.307   9.095  0.2577  0.3828  0.0713
  218loPI   C1A 3479   2.802  17.517   8.697 -0.0833  0.0217  0.0505
  218loPI   C2A 3480   2.700  17.924   8.559 -0.1894 -0.1984 -0.3007
  218loPI   C3A 3481   2.701  18.224   8.143 -0.1456  0.1762  0.0445
  218loPI   C4A 3482   2.616  18.405   7.749 -0.2378  0.0953  0.0051
  218loPI   C5A 3483   2.362  18.617   7.413  0.0496 -0.0382  0.1455
  218loPI   C6A 3484   2.145  18.861   7.150 -0.3538  0.1780 -0.2082
  218loPI   C1B 3485   3.252  17.423   8.678  0.4428 -0.1220  0.0103
  218loPI   C2B 3486   3.221  17.347   8.270  0.3026 -0.2499  0.0947
  218loPI   C3B 3487   3.376  17.503   7.858 -0.0121  0.0555  0.3428
  218loPI   C4B 3488   3.347  17.877   7.526 -0.1360  0.0096  0.0725
  219loPI    C1 3489  15.257  19.334   9.419  0.0384  0.0070  0.2294
  219loPI    C2 3490  14.915  19.356   9.213  0.0613  0.0803  0.1987
  219loPI    C3 3491  14.937  19.509   9.582  0.1266  0.2840  0.1120
  219loPI   PO4 3492  15.402  19.059   9.293  0.0782  0.4332 -0.0271
  219loPI   GL1 3493  15.331  18.600   9.130 -0.0621  0.1434 -0.1408
  219loPI   GL2 3494  15.130  18.452   9.025 -0.1941  0.1449  0.3903
  219loPI   C1A 3495  15.402  18.898   8.665  0.0347 -0.1187  0.1114
  219loPI   C2A 3496  15.426  18.883   8.169  0.3354 -0.2177  0.0198
  219loPI   C3A 3497  15.515  18.735   7.700  0.1847 -0.1449  0.0334
  219loPI   C4A 3498  15.380  18.531   7.282  0.2063 -0.2635  0.3751
  219loPI   C5A 3499  15.305  18.710   6.888  0.0689 -0.0670 -0.2444
  219loPI   C6A 3500  15.491  18.954   6.624  0.0053  0.0447  0.1502
  219loPI   C1B 3501  15.190  18.432   8.571 -0.0576 -0.0181 -0.0760
  219loPI   C2B 3502  15.218  18.457   8.116  0.1998  0.0295 -0.1088
  219loPI   C3B 3503  15.030  18.647   7.728  0.0777 -0.0289  0.0087
  219loPI   C4B 3504  14.838  18.908   7.343  0.2018  0.6111 -0.0001
  220loPI    C1 3505   2.333   8.638   9.755 -0.1646 -0.0458 -0.2175
  220loPI    C2 3506   2.436   8.933   9.505  0.2378  0.1036  0.1142
  220loPI    C3 3507   2.712   8.671   9.631 -0.0619 -0.2622  0.0282
  220loPI   PO4 3508   2.147   8.507   9.610  0.2530  0.4466  0.2640
  220loPI   GL1 3509   2.093   8.572   9.278  0.0958 -0.0623 -0.1506
  220loPI   GL2 3510   2.393   8.486   9.132 -0.0042 -0.0418  0.0695
  220loPI   C1A 3511   2.018   8.510   8.812  0.0208  0.1754 -0.3713
  220loPI   C2A 3512   2.020   8.506   8.455  0.1824 -0.2476  0.1356
  220loPI   C3A 3513   2.152   8.536   8.040 -0.2247  0.0239 -0.2668
  220loPI   C4A 3514   2.419   8.565   7.699 -0.2917  0.0976  0.0094
  220loPI   C5A 3515   2.511   8.534   7.238 -0.2788 -0.0610 -0.3490
  220loPI   C6A 3516   2.776   8.394   6.816 -0.0193 -0.2713 -0.2031
  220loPI   C1B 3517   2.767   8.332   8.849 -0.1116  0.0490 -0.0961
  220loPI   C2B 3518   2.838   8.228   8.531  0.0872 -0.0882  0.2566
  220loPI   C3B 3519   3.020   8.115   8.203 -0.0598  0.0413  0.1173
  220loPI   C4B 3520   3.403   8.189   7.958  0.1647  0.0408  0.0386
  221loPI    C1 3521   4.057   3.641   9.288  0.3444 -0.1216 -0.1729
  221loPI    C2 3522   4.179   3.862   9.598  0.0736  0.1367 -0.2455
  221loPI    C3 3523   4.029   3.497   9.660  0.1061  0.1503 -0.0820
  221loPI   PO4 3524   4.234   3.569   9.179  0.0489  0.2256 -0.0625
  221loPI   GL1 3525   4.527   3.853   9.083  0.0166  0.1637  0.1333
  221loPI   GL2 3526   4.350   4.114   9.161  0.1811  0.2203 -0.2285
  221loPI   C1A 3527   4.760   3.947   8.664 -0.3099 -0.3647 -0.3599
  221loPI   C2A 3528   4.921   3.983   8.306 -0.0504 -0.2492  0.1094
  221loPI   C3A 3529   4.999   4.005   7.915  0.1160  0.0128 -0.0003
  221loPI   C4A 3530   4.936   4.056   7.389  0.1537  0.0630  0.0489
  221loPI   C5A 3531   5.298   4.354   7.244  0.1857 -0.1655  0.1297
  221loPI   C6A 3532   5.772   4.272   7.241 -0.3422 -0.2149  0.2001
  221loPI   C1B 3533   4.311   4.076   8.658 -0.4229 -0.1145  0.1619
  221loPI   C2B 3534   4.421   4.157   8.210  0.1382 -0.0323 -0.1807
  221loPI   C3B 3535   4.614   4.312   7.877 -0.2239  0.1190  0.1199
  221loPI   C4B 3536   4.513   4.446   7.434 -0.2892  0.3615 -0.2043
  222loPI    C1 3537   5.890   4.779   9.942 -0.0307  0.0434  0.1584
  222loPI    C2 3538   5.593   4.511   9.949  0.0733 -0.0867 -0.1796
  222loPI    C3 3539   5.958   4.408  10.074  0.0936 -0.0770 -0.2308
  222loPI   PO4 3540   5.962   4.978   9.737 -0.0377  0.2471 -0.1517
  222loPI   GL1 3541   5.957   5.192   9.464  0.1641  0.0059  0.0317
  222loPI   GL2 3542   5.769   4.908   9.242  0.1056 -0.3607  0.0024
  222loPI   C1A 3543   5.717   5.457   9.272 -0.2030  0.0543  0.2304
  222loPI   C2A 3544   5.625   5.674   8.960 -0.3021 -0.2249  0.0467
  222loPI   C3A 3545   5.807   5.587   8.604  0.0844 -0.2793 -0.0046
  222loPI   C4A 3546   5.703   5.404   8.165  0.1060 -0.2898 -0.1994
  222loPI   C5A 3547   5.300   5.283   7.847  0.0692  0.0819 -0.0869
  222loPI   C6A 3548   5.081   5.059   7.529 -0.1300 -0.2720  0.0759
  222loPI   C1B 3549   5.832   5.124   8.879  0.2417 -0.1448 -0.0379
  222loPI   C2B 3550   6.041   5.154   8.561 -0.0935 -0.1138  0.0613
  222loPI   C3B 3551   6.086   5.170   8.126 -0.1420  0.0737 -0.3383
  222loPI   C4B 3552   5.863   5.267   7.683  0.1780  0.1988  0.1203
  223loPI    C1 3553  18.490   9.315   9.788  0.0998 -0.2007 -0.0368
  223loPI    C2 3554  18.260   9.484  10.068 -0.0087 -0.1643 -0.1469
  223loPI    C3 3555  18.529   9.207  10.171 -0.1344 -0.2420 -0.0232
  223loPI   PO4 3556  18.307   9.295   9.621  0.1560  0.5389  0.2794
  223loPI   GL1 3557  18.467   9.060   9.260  0.1131  0.1670  0.1356
  223loPI   GL2 3558  18.200   9.084   9.178  0.2151  0.1291 -0.0548
  223loPI   C1A 3559  18.759   9.213   8.937 -0.1660  0.0212 -0.3260
  223loPI   C2A 3560  18.739   9.265   8.496 -0.2367  0.5553 -0.1071
  223loPI   C3A 3561  19.010   9.297   8.164  0.1666  0.0449 -0.0309
  223loPI   C4A 3562  19.097   9.130   7.775 -0.1785  0.0983 -0.3749
  223loPI   C5A 3563  19.315   9.293   7.449 -0.2009  0.2209 -0.2779
  223loPI   C6A 3564  19.532   9.528   7.432 -0.0638 -0.0979 -0.4247
  223loPI   C1B 3565  18.369   8.945   8.734  0.3359  0.1897 -0.0119
  223loPI   C2B 3566  18.439   8.981   8.192 -0.3188  0.3815 -0.1355
  223loPI   C3B 3567  18.237   9.157   7.891  0.0187 -0.1875  0.0345
  223loPI   C4B 3568  18.247   9.312   7.411  0.2618  0.0331  0.1070
  224loPI    C1 3569  10.384   9.660   9.980  0.1846  0.1031 -0.1020
  224loPI    C2 3570  10.751   9.502   9.964  0.0524 -0.2445  0.1619
  224loPI    C3 3571  10.621   9.674  10.301  0.0301  0.0289  0.0169
  224loPI   PO4 3572  10.331   9.763   9.763  0.1180 -0.1088 -0.2557
  224loPI   GL1 3573  10.093   9.614   9.353  0.1615  0.1893  0.1017
  224loPI   GL2 3574   9.881   9.854   9.081 -0.0738  0.1190  0.2287
  224loPI   C1A 3575  10.160   9.316   9.100 -0.0414 -0.1030 -0.1520
  224loPI   C2A 3576  10.158   9.163   8.664  0.2064  0.3489 -0.0421
  224loPI   C3A 3577  10.396   9.112   8.287  0.1419  0.0377  0.1391
  224loPI   C4A 3578  10.625   9.247   7.957  0.1002 -0.1645  0.0708
  224loPI   C5A 3579  10.756   9.359   7.553 -0.1860  0.4988  0.0215
  224loPI   C6A 3580  10.548   9.235   7.177 -0.2887  0.0475 -0.0738
  224loPI   C1B 3581   9.647  10.003   8.607  0.0049  0.0187  0.2692
  224loPI   C2B 3582   9.275   9.914   8.286 -0.1027 -0.1021  0.2795
  224loPI   C3B 3583   9.081   9.740   7.821  0.1094  0.3280  0.0994
  224loPI   C4B 3584   8.648   9.798   7.855  0.1054  0.0154  0.1546
  225loPI    C1 3585   3.685  17.151   9.822 -0.0449  0.2023  0.0589
  225loPI    C2 3586   3.387  16.885   9.836 -0.0216  0.1842  0.2335
  225loPI    C3 3587   3.688  16.862  10.098  0.1728  0.1571  0.0110
  225loPI   PO4 3588   3.690  17.166   9.593  0.2296 -0.1588  0.0241
  225loPI   GL1 3589   3.658  17.306   9.208 -0.1244 -0.2165 -0.4169
  225loPI   GL2 3590   3.516  17.485   9.107 -0.0462 -0.1996 -0.2617
  225loPI   C1A 3591   3.741  17.333   8.687  0.1748  0.0733 -0.2032
  225loPI   C2A 3592   3.698  17.606   8.405 -0.0422  0.2551 -0.3416
  225loPI   C3A 3593   3.548  17.917   8.111 -0.1299  0.0979  0.2033
  225loPI   C4A 3594   3.698  18.259   7.837  0.0738  0.1187 -0.0054
  225loPI   C5A 3595   3.813  18.423   7.494 -0.1119 -0.1703 -0.3266
  225loPI   C6A 3596   3.955  18.839   7.493 -0.1470  0.1073  0.1425
  225loPI   C1B 3597   3.690  17.810   8.842  0.0460 -0.1238  0.0549
  225loPI   C2B 3598   3.627  18.164   8.615  0.0272  0.0428  0.0523
  225loPI   C3B 3599   3.257  18.267   8.396 -0.2944 -0.3608 -0.0700
  225loPI   C4B 3600   3.229  18.247   7.931  0.0736  0.0410  0.0902
  226loPI    C1 3601   0.839  14.296   9.769  0.1668 -0.1880  0.2319
  226loPI    C2 3602   0.706  14.460  10.108 -0.1796 -0.0169  0.0180
  226loPI    C3 3603   0.613  14.082  10.019  0.2180 -0.1832  0.2826
  226loPI   PO4 3604   0.789  14.383   9.531 -0.0795  0.3800  0.0195
  226loPI   GL1 3605   0.984  14.411   9.152 -0.3000 -0.1022  0.0292
  226loPI   GL2 3606   1.116  14.102   9.152  0.0236  0.1221 -0.0213
  226loPI   C1A 3607   0.799  14.547   8.686 -0.2948 -0.0964 -0.1147
  226loPI   C2A 3608   0.709  14.533   8.313  0.0826  0.2485  0.1690
  226loPI   C3A 3609   0.354  14.535   8.055  0.2046  0.2029 -0.0976
  226loPI   C4A 3610   0.008  14.736   7.806 -0.2328  0.0640  0.0820
  226loPI   C5A 3611  -0.339  14.929   7.926  0.2295 -0.1015  0.0324
  226loPI   C6A 3612  -0.748  14.838   7.988  0.3139  0.4098 -0.3213
  226loPI   C1B 3613   1.306  14.230   8.829  0.1537  0.2843  0.4165
  226loPI   C2B 3614   1.212  14.260   8.354 -0.3268  0.0402 -0.1234
  226loPI   C3B 3615   1.087  14.449   7.938  0.1119  0.2523  0.0690
  226loPI   C4B 3616   0.904  14.414   7.407 -0.2294 -0.3376  0.0524
  227loPI    C1 3617  18.017  18.994   9.456  0.2083  0.1991  0.1891
  227loPI    C2 3618  17.647  18.979   9.304  0.4166 -0.2010 -0.3079
  227loPI    C3 3619  17.707  18.905   9.693 -0.0450  0.0974 -0.1721
  227loPI   PO4 3620  18.055  19.272   9.318  0.0726  0.1634  0.2962
  227loPI   GL1 3621  18.385  19.067   9.067  0.3385  0.0414 -0.0511
  227loPI   GL2 3622  18.179  18.857   8.922 -0.0782 -0.0731  0.0400
  227loPI   C1A 3623  18.715  19.120   8.750  0.1509 -0.0954 -0.0158
  227loPI   C2A 3624  18.733  19.160   8.315 -0.0122 -0.3253  0.1629
  227loPI   C3A 3625  18.821  19.135   7.894  0.1969  0.1538 -0.0750
  227loPI   C4A 3626  18.767  19.249   7.418  0.0749 -0.2514 -0.3959
  227loPI   C5A 3627  19.071  19.298   7.066 -0.2145  0.1581 -0.0906
  227loPI   C6A 3628  19.274  19.504   6.775  0.3142 -0.0994  0.0021
  227loPI   C1B 3629  18.229  18.837   8.544  0.3576  0.0371 -0.0225
  227loPI   C2B 3630  18.417  18.858   8.173  0.1175 -0.1952  0.0975
  227loPI   C3B 3631  18.649  18.665   7.923  0.1409  0.3292 -0.4394
  227loPI   C4B 3632  19.053  18.735   7.759  0.2555 -0.0724 -0.0244
  228loPI    C1 3633  16.685   0.923   9.701  0.0371  0.0013 -0.0742
  228loPI    C2 3634  16.458   1.189   9.895 -0.0580 -0.1879  0.0775
  228loPI    C3 3635  16.549   0.840  10.067 -0.0570 -0.3161 -0.1780
  228loPI   PO4 3636  16.720   1.095   9.509  0.0448 -0.0407  0.0079
  228loPI   GL1 3637  16.701   1.106   8.970 -0.3511  0.0376  0.1234
  228loPI   GL2 3638  16.781   1.416   9.126 -0.0044 -0.0439  0.1311
  228loPI   C1A 3639  16.899   1.100   8.669  0.2488  0.0665  0.2751
  228loPI   C2A 3640  16.966   0.898   8.309 -0.1075  0.4198  0.1720
  228loPI   C3A 3641  17.091   0.657   8.078  0.3452 -0.1087 -0.2282
  228loPI   C4A 3642  16.983   0.389   7.671  0.3591  0.1471 -0.1005
  228loPI   C5A 3643  16.757   0.259   7.283  0.0836 -0.0247  0.3293
  228loPI   C6A 3644  16.782   0.452   6.956 -0.0240  0.1999 -0.1442
  228loPI   C1B 3645  16.835   1.635   8.824  0.2756 -0.1766 -0.0730
  228loPI   C2B 3646  16.952   2.050   8.708  0.0120 -0.3983 -0.0717
  228loPI   C3B 3647  16.796   2.421   8.420 -0.3571  0.0310 -0.1085
  228loPI   C4B 3648  16.586   2.548   8.160  0.2935  0.0788 -0.0964
  229loPI    C1 3649  10.527   4.270  10.120 -0.1739  0.0366 -0.0059
  229loPI    C2 3650  10.185   4.178   9.934 -0.1917 -0.0099  0.0498
  229loPI    C3 3651  10.198   4.192  10.334 -0.1691  0.1509  0.0442
  229loPI   PO4 3652  10.720   4.312   9.988  0.0921  0.1490 -0.3077
  229loPI   GL1 3653  10.577   4.151   9.544  0.0264 -0.2052  0.2949
  229loPI   GL2 3654  10.879   3.981   9.334  0.2981  0.0529  0.0916
  229loPI   C1A 3655  10.400   4.135   9.190  0.2375 -0.1187  0.1716
  229loPI   C2A 3656  10.102   4.379   8.918 -0.0997 -0.3657 -0.0309
  229loPI   C3A 3657  10.161   4.297   8.447  0.1675  0.0043 -0.0513
  229loPI   C4A 3658   9.787   4.229   8.186  0.2101  0.1988  0.2277
  229loPI   C5A 3659   9.746   4.204   7.773 -0.0888 -0.2166 -0.0651
  229loPI   C6A 3660   9.401   4.372   7.505  0.4120  0.4959  0.2304
  229loPI   C1B 3661  10.756   4.127   8.828 -0.0159  0.3618  0.2448
  229loPI   C2B 3662  10.698   4.285   8.454  0.0431  0.1697 -0.1344
  229loPI   C3B 3663  10.470   4.337   8.088  0.0564 -0.0009 -0.0571
  229loPI   C4B 3664  10.108   4.481   7.919 -0.0985 -0.3337 -0.2654
  230loPI    C1 3665  10.389  11.591  10.047  0.1275 -0.0124 -0.1175
  230loPI    C2 3666  10.313  11.237  10.217 -0.1903  0.3274  0.4814
  230loPI    C3 3667  10.064  11.383   9.941  0.1262 -0.0578 -0.0255
  230loPI   PO4 3668  10.617  11.581   9.932  0.0999  0.3023  0.1424
  230loPI   GL1 3669  10.719  11.556   9.591 -0.2710  0.0014  0.2805
  230loPI   GL2 3670  11.054  11.292   9.481 -0.1089 -0.0544  0.1441
  230loPI   C1A 3671  10.471  11.410   9.189 -0.1810 -0.0980 -0.2934
  230loPI   C2A 3672  10.345  11.514   8.792 -0.0383 -0.0001 -0.4213
  230loPI   C3A 3673  10.620  11.763   8.603 -0.0729  0.3032 -0.1202
  230loPI   C4A 3674  10.616  11.897   8.127 -0.0866  0.2764  0.2973
  230loPI   C5A 3675  10.335  11.766   7.771 -0.0269  0.0450  0.3611
  230loPI   C6A 3676  10.292  11.748   7.348  0.0318 -0.1794 -0.1933
  230loPI   C1B 3677  10.997  11.430   9.098  0.0426  0.0656 -0.0102
  230loPI   C2B 3678  11.111  11.572   8.594  0.1831 -0.0020 -0.0532
  230loPI   C3B 3679  10.917  11.517   8.099  0.2181  0.1280 -0.1653
  230loPI   C4B 3680  10.788  11.507   7.735  0.1949 -0.1536  0.3426
  231loPI    C1 3681  14.809   6.158  10.204  0.0447 -0.3410  0.0528
  231loPI    C2 3682  14.496   6.138  10.452  0.0539 -0.1524  0.0815
  231loPI    C3 3683  14.792   5.871  10.482 -0.1514 -0.3955 -0.0135
  231loPI   PO4 3684  14.772   6.199   9.934 -0.4556  0.1646 -0.0804
  231loPI   GL1 3685  14.823   6.120   9.546 -0.1768 -0.2246  0.0355
  231loPI   GL2 3686  15.117   6.056   9.522  0.1913  0.0243 -0.2048
  231loPI   C1A 3687  14.676   6.434   9.280  0.1233  0.3890  0.1662
  231loPI   C2A 3688  14.518   6.568   8.951  0.0413  0.1121  0.1822
  231loPI   C3A 3689  14.671   6.370   8.485  0.0318 -0.0186  0.1393
  231loPI   C4A 3690  14.689   6.602   7.946  0.2036 -0.3122  0.3594
  231loPI   C5A 3691  14.483   6.841   7.544  0.0588 -0.1235 -0.3093
  231loPI   C6A 3692  14.387   6.984   7.074 -0.0228 -0.0267 -0.2247
  231loPI   C1B 3693  15.005   5.723   9.237 -0.4560  0.3228 -0.2038
  231loPI   C2B 3694  15.162   5.601   8.848 -0.1934 -0.0889  0.2120
  231loPI   C3B 3695  15.521   5.597   8.621 -0.1316 -0.0041 -0.0649
  231loPI   C4B 3696  15.579   5.867   8.351 -0.2581 -0.0482 -0.3172
  232loPI    C1 3697   0.606  15.158   9.567  0.2515 -0.0751 -0.0432
  232loPI    C2 3698   0.568  14.801   9.390  0.1501 -0.1194  0.0669
  232loPI    C3 3699   0.613  14.824   9.787  0.4323 -0.0232  0.0312
  232loPI   PO4 3700   0.740  15.335   9.304 -0.3390  0.0808 -0.1336
  232loPI   GL1 3701   0.983  15.315   8.853 -0.0039  0.3108  0.0466
  232loPI   GL2 3702   0.983  14.976   8.920  0.1063 -0.2491 -0.3525
  232loPI   C1A 3703   1.133  15.293   8.415 -0.0005 -0.0378 -0.0153
  232loPI   C2A 3704   1.153  15.024   8.040 -0.2498  0.0201 -0.1374
  232loPI   C3A 3705   1.066  14.856   7.694  0.1019  0.0281 -0.0101
  232loPI   C4A 3706   1.374  14.825   7.462  0.1466 -0.1821  0.1993
  232loPI   C5A 3707   1.623  14.736   7.073 -0.3561 -0.6460  0.0010
  232loPI   C6A 3708   1.520  14.564   6.645  0.0996  0.5469  0.0164
  232loPI   C1B 3709   1.214  14.836   8.506 -0.2850  0.0492 -0.2109
  232loPI   C2B 3710   1.686  14.887   8.334  0.0302  0.3299 -0.1634
  232loPI   C3B 3711   2.098  15.078   8.108 -0.1060 -0.2916 -0.0543
  232loPI   C4B 3712   2.053  15.064   7.525 -0.3212 -0.2224  0.0025
  233loPI    C1 3713   6.406  16.230  10.261 -0.1058  0.1476 -0.3822
  233loPI    C2 3714   6.519  16.376   9.907  0.1544  0.4249 -0.1898
  233loPI    C3 3715   6.755  16.421  10.226 -0.0064  0.0423 -0.0107
  233loPI   PO4 3716   6.167  16.052  10.123  0.1731 -0.1433 -0.2756
  233loPI   GL1 3717   6.141  15.953   9.770 -0.0603 -0.1725 -0.0513
  233loPI   GL2 3718   5.812  16.069   9.723  0.1338 -0.1464  0.0870
  233loPI   C1A 3719   6.300  16.061   9.381 -0.0625  0.0829  0.1865
  233loPI   C2A 3720   6.243  16.187   8.888 -0.2472 -0.2576  0.0493
  233loPI   C3A 3721   6.167  16.218   8.383 -0.1021 -0.0363 -0.0500
  233loPI   C4A 3722   6.148  16.109   7.931  0.0236  0.1620 -0.1964
  233loPI   C5A 3723   6.284  15.752   7.615 -0.0393  0.0673 -0.2516
  233loPI   C6A 3724   6.233  15.249   7.745  0.3139 -0.1220 -0.0107
  233loPI   C1B 3725   5.845  16.225   9.286  0.2305 -0.1136  0.2472
  233loPI   C2B 3726   5.743  16.280   8.903 -0.0284  0.0314 -0.1412
  233loPI   C3B 3727   5.661  16.280   8.485  0.2450  0.0335  0.2922
  233loPI   C4B 3728   5.614  16.232   8.093  0.0088 -0.1421 -0.1570
  234loPI    C1 3729   3.607   1.111   9.822  0.1984 -0.1932 -0.1166
  234loPI    C2 3730   3.823   0.799   9.948  0.2470 -0.0983  0.0377
  234loPI    C3 3731   3.526   0.942  10.175  0.1450 -0.1085 -0.0881
  234loPI   PO4 3732   3.617   0.927   9.490  0.0281  0.1323  0.2051
  234loPI   GL1 3733   3.811   0.932   9.149  0.0105  0.0504 -0.2534
  234loPI   GL2 3734   3.928   0.599   9.072  0.0942  0.0306 -0.2215
  234loPI   C1A 3735   3.559   0.773   8.766  0.0489  0.1548 -0.2019
  234loPI   C2A 3736   3.385   0.792   8.378 -0.3218  0.3994  0.0355
  234loPI   C3A 3737   3.299   0.712   7.997  0.1981  0.1624 -0.2285
  234loPI   C4A 3738   3.325   0.768   7.530  0.0872 -0.1786  0.0945
  234loPI   C5A 3739   3.366   0.654   7.067 -0.1608 -0.0580 -0.0625
  234loPI   C6A 3740   3.440   0.510   6.545 -0.1575 -0.1398  0.0831
  234loPI   C1B 3741   4.093   0.422   8.716  0.3179 -0.0150 -0.1512
  234loPI   C2B 3742   4.228   0.547   8.317  0.2105 -0.1290 -0.2854
  234loPI   C3B 3743   4.231   0.960   8.099  0.1528  0.0591 -0.1147
  234loPI   C4B 3744   4.029   1.201   7.762 -0.0165 -0.1566 -0.0148
  235loPI    C1 3745  11.304   8.721   9.940 -0.1547 -0.1223 -0.1585
  235loPI    C2 3746  10.979   8.953   9.936 -0.1700 -0.1426 -0.1065
  235loPI    C3 3747  10.941   8.555   9.924 -0.1491 -0.1468 -0.0386
  235loPI   PO4 3748  11.483   8.816   9.679 -0.0255  0.1384 -0.2033
  235loPI   GL1 3749  11.483   8.756   9.300 -0.4103  0.0205  0.1413
  235loPI   GL2 3750  11.377   9.014   9.198  0.0761 -0.0540  0.0168
  235loPI   C1A 3751  11.762   8.406   9.030  0.2274 -0.1323  0.0673
  235loPI   C2A 3752  11.639   8.333   8.673  0.0423 -0.4440  0.2379
  235loPI   C3A 3753  11.821   8.237   8.234 -0.1458 -0.1713 -0.1647
  235loPI   C4A 3754  11.887   8.565   7.957 -0.2220  0.2703  0.1158
  235loPI   C5A 3755  11.654   8.512   7.421  0.0903 -0.0502  0.2135
  235loPI   C6A 3756  11.512   9.009   7.218  0.0784  0.3314 -0.5686
  235loPI   C1B 3757  11.562   8.854   8.772 -0.1810 -0.1241  0.2133
  235loPI   C2B 3758  11.468   8.746   8.382 -0.1588  0.0911  0.3114
  235loPI   C3B 3759  10.994   8.713   8.188 -0.0391 -0.0872 -0.3977
  235loPI   C4B 3760  10.726   8.761   7.806 -0.0796 -0.1148 -0.0852
  236loPI    C1 3761   0.849   2.644   9.584 -0.1743  0.1077 -0.0197
  236loPI    C2 3762   0.689   2.809   9.911 -0.1132  0.1168  0.0058
  236loPI    C3 3763   1.085   2.762   9.885 -0.1198  0.0962 -0.0578
  236loPI   PO4 3764   0.805   2.808   9.413 -0.0721 -0.2822  0.1269
  236loPI   GL1 3765   0.861   2.965   8.988  0.0364 -0.0519  0.2219
  236loPI   GL2 3766   0.532   3.146   9.003 -0.0174  0.1903 -0.2087
  236loPI   C1A 3767   1.040   2.808   8.682  0.1384 -0.2475 -0.0731
  236loPI   C2A 3768   1.038   2.523   8.325 -0.1127  0.0596  0.0852
  236loPI   C3A 3769   1.109   2.170   8.017  0.0955 -0.2434  0.4427
  236loPI   C4A 3770   1.013   2.016   7.586  0.0704 -0.1313 -0.0862
  236loPI   C5A 3771   0.814   1.771   7.439 -0.2639  0.2346 -0.0448
  236loPI   C6A 3772   0.664   1.398   7.175  0.1601  0.1302  0.1113
  236loPI   C1B 3773   0.482   3.335   8.576  0.2536 -0.1515 -0.1674
  236loPI   C2B 3774   0.614   3.228   8.162  0.2800  0.1220 -0.2713
  236loPI   C3B 3775   0.642   3.193   7.721 -0.2004  0.0623 -0.2078
  236loPI   C4B 3776   0.417   3.217   7.358  0.1404 -0.0168  0.2135
  237loPI    C1 3777  18.394   2.844   9.638 -0.0844  0.1108 -0.0061
  237loPI    C2 3778  18.203   3.104   9.402 -0.3555 -0.2314 -0.1736
  237loPI    C3 3779  18.593   3.152   9.478 -0.3932  0.2012 -0.2252
  237loPI   PO4 3780  18.253   2.585   9.559 -0.1355 -0.2687  0.1247
  237loPI   GL1 3781  18.167   2.467   9.163  0.0755  0.0340  0.0837
  237loPI   GL2 3782  18.368   2.744   9.107 -0.2635 -0.0842  0.2404
  237loPI   C1A 3783  18.325   2.330   8.757 -0.0548  0.0302  0.0028
  237loPI   C2A 3784  18.168   2.511   8.420 -0.2144 -0.0708  0.0966
  237loPI   C3A 3785  18.033   2.571   7.938 -0.0884  0.1962  0.2475
  237loPI   C4A 3786  18.070   2.356   7.536  0.1449 -0.2598  0.3036
  237loPI   C5A 3787  18.168   2.446   7.053 -0.1482  0.0145 -0.0299
  237loPI   C6A 3788  18.305   2.378   6.669 -0.0992  0.0503  0.1414
  237loPI   C1B 3789  18.735   2.988   9.048 -0.1783  0.1648 -0.1058
  237loPI   C2B 3790  18.725   3.361   8.709 -0.0916  0.0849 -0.2046
  237loPI   C3B 3791  18.499   3.392   8.244  0.0211 -0.1685 -0.0207
  237loPI   C4B 3792  18.007   3.463   8.126  0.0556  0.1147  0.0993
  238loPI    C1 3793  12.839   1.753   9.775  0.0247  0.0427 -0.2254
  238loPI    C2 3794  13.015   1.397   9.731  0.0264  0.0481 -0.2618
  238loPI    C3 3795  13.235   1.718   9.822 -0.0082 -0.0075  0.0274
  238loPI   PO4 3796  12.683   1.754   9.562  0.2493 -0.1100  0.0865
  238loPI   GL1 3797  12.608   1.723   9.110 -0.1727  0.0301 -0.4270
  238loPI   GL2 3798  12.595   2.012   8.957 -0.2007  0.3360  0.1680
  238loPI   C1A 3799  12.601   1.471   8.807  0.0254  0.0889  0.1557
  238loPI   C2A 3800  12.809   1.483   8.359  0.2367 -0.0285 -0.1629
  238loPI   C3A 3801  13.187   1.701   8.085 -0.2100 -0.0562  0.1573
  238loPI   C4A 3802  13.188   1.916   7.641  0.0727  0.5574 -0.0277
  238loPI   C5A 3803  13.319   1.920   7.228 -0.0204  0.1055  0.1979
  238loPI   C6A 3804  13.400   2.262   7.010  0.0301 -0.0994  0.1344
  238loPI   C1B 3805  12.764   1.910   8.550 -0.2317 -0.0034  0.0266
  238loPI   C2B 3806  12.788   2.029   8.093  0.1060  0.1619  0.0630
  238loPI   C3B 3807  12.741   2.322   7.706  0.3196 -0.0962  0.2912
  238loPI   C4B 3808  12.437   2.423   7.272 -0.1741 -0.0573  0.0855
  239loPI    C1 3809   5.410  18.972  10.053 -0.0248 -0.5125 -0.2020
  239loPI    C2 3810   5.072  18.962   9.839 -0.0817 -0.0746 -0.1421
  239loPI    C3 3811   5.096  19.194  10.164  0.2568 -0.1517 -0.1087
  239loPI   PO4 3812   5.520  18.695  10.074 -0.1310 -0.1103 -0.0283
  239loPI   GL1 3813   5.480  18.452   9.859  0.0468  0.0929 -0.1310
  239loPI   GL2 3814   5.674  18.319   9.583 -0.0400  0.0980 -0.0940
  239loPI   C1A 3815   5.108  18.380   9.518 -0.1659  0.1353 -0.1698
  239loPI   C2A 3816   5.040  18.276   9.111  0.1823 -0.1671  0.1834
  239loPI   C3A 3817   4.996  18.154   8.531 -0.2323  0.1265 -0.0021
  239loPI   C4A 3818   5.049  18.204   8.068  0.2510  0.0300 -0.0862
  239loPI   C5A 3819   5.182  18.407   7.683  0.1631 -0.2040 -0.0291
  239loPI   C6A 3820   5.077  18.840   7.455  0.4573  0.0661 -0.1500
  239loPI   C1B 3821   5.669  18.497   9.269  0.2230  0.0164  0.0209
  239loPI   C2B 3822   5.593  18.553   8.879  0.0332  0.0161  0.0143
  239loPI   C3B 3823   5.537  18.497   8.500 -0.0192  0.0296 -0.0736
  239loPI   C4B 3824   5.468  18.503   8.088 -0.2946 -0.0738  0.2089
  240loPI    C1 3825  17.460   6.567  10.143 -0.0169 -0.0355 -0.0037
  240loPI    C2 3826  17.463   6.226  10.352  0.0564 -0.0568 -0.0392
  240loPI    C3 3827  17.805   6.423  10.285  0.0522 -0.1181 -0.2488
  240loPI   PO4 3828  17.413   6.523   9.936  0.1397  0.1830  0.0284
  240loPI   GL1 3829  17.575   6.388   9.489  0.1926 -0.1156 -0.0623
  240loPI   GL2 3830  17.781   6.665   9.484  0.0024  0.2185 -0.0276
  240loPI   C1A 3831  17.625   6.379   9.094 -0.1176  0.0958 -0.1582
  240loPI   C2A 3832  17.554   6.491   8.654 -0.0405  0.1028 -0.3449
  240loPI   C3A 3833  17.459   6.525   8.218  0.2054  0.1130  0.3677
  240loPI   C4A 3834  17.159   6.621   7.796 -0.0994  0.1885  0.0643
  240loPI   C5A 3835  16.624   6.624   7.691 -0.3262 -0.2022  0.0811
  240loPI   C6A 3836  16.235   6.468   7.783  0.0966  0.0707 -0.1434
  240loPI   C1B 3837  17.969   6.763   9.083  0.2555 -0.1475  0.1903
  240loPI   C2B 3838  17.913   6.846   8.602 -0.1086  0.1498 -0.2649
  240loPI   C3B 3839  17.882   6.860   8.286  0.1697  0.1322  0.0492
  240loPI   C4B 3840  17.788   6.764   7.919 -0.3628  0.2226  0.1642
  241loPI    C1 3841  15.378  13.348   9.821  0.1490 -0.2940 -0.0809
  241loPI    C2 3842  15.680  13.576   9.950  0.0221 -0.1109 -0.1041
  241loPI    C3 3843  15.490  13.333  10.204  0.0638 -0.0837 -0.0468
  241loPI   PO4 3844  15.453  13.306   9.580  0.5358 -0.1996  0.0435
  241loPI   GL1 3845  15.392  13.157   9.226  0.0559 -0.1754  0.0111
  241loPI   GL2 3846  15.395  12.919   9.081  0.3202  0.0292  0.0718
  241loPI   C1A 3847  15.435  13.459   8.871  0.0087 -0.2628  0.0695
  241loPI   C2A 3848  15.164  13.487   8.582  0.3307  0.1894  0.1494
  241loPI   C3A 3849  14.981  13.359   8.056  0.4010  0.1256  0.0834
  241loPI   C4A 3850  14.844  13.342   7.686 -0.3920 -0.0159  0.1969
  241loPI   C5A 3851  15.083  13.369   7.239  0.0101 -0.0956  0.0833
  241loPI   C6A 3852  15.282  13.261   6.841 -0.2379  0.0266  0.0063
  241loPI   C1B 3853  15.529  12.982   8.634  0.0638 -0.2117 -0.3270
  241loPI   C2B 3854  15.670  13.254   8.297  0.0208 -0.2814 -0.0732
  241loPI   C3B 3855  15.731  13.224   7.811  0.6854 -0.1082 -0.0474
  241loPI   C4B 3856  16.065  13.306   7.625  0.3786  0.4015 -0.0691
  242loPI    C1 3857   8.692   2.280   9.872  0.0446  0.1704 -0.1034
  242loPI    C2 3858   8.496   2.014   9.647  0.3446 -0.1109 -0.0405
  242loPI    C3 3859   8.418   2.041  10.038  0.0713  0.1358 -0.1088
  242loPI   PO4 3860   8.862   2.310   9.680  0.3695 -0.1323  0.0580
  242loPI   GL1 3861   8.981   2.326   9.370  0.2381  0.0900  0.1350
  242loPI   GL2 3862   9.214   2.290   9.119  0.1233  0.1576 -0.1409
  242loPI   C1A 3863   8.965   2.778   9.143 -0.2809 -0.4681  0.1454
  242loPI   C2A 3864   8.828   2.875   8.689  0.0148 -0.0658 -0.1955
  242loPI   C3A 3865   8.832   3.068   8.320 -0.3766  0.3501 -0.1815
  242loPI   C4A 3866   8.905   3.264   7.867 -0.2583  0.2225 -0.0959
  242loPI   C5A 3867   9.139   3.606   7.619 -0.1035 -0.1079  0.3235
  242loPI   C6A 3868   9.249   3.937   7.346  0.1502  0.0598 -0.2810
  242loPI   C1B 3869   9.018   2.372   8.727  0.3867  0.1079  0.2221
  242loPI   C2B 3870   8.881   2.325   8.262 -0.1630  0.1444  0.1104
  242loPI   C3B 3871   8.763   2.086   7.872 -0.0971  0.1752  0.1189
  242loPI   C4B 3872   8.473   2.028   7.440 -0.0725 -0.3875  0.3641
  243loPI    C1 3873  15.114   6.625  10.372  0.0938  0.0254  0.0792
  243loPI    C2 3874  14.888   6.449  10.652 -0.1788  0.0978 -0.0926
  243loPI    C3 3875  15.234   6.282  10.541 -0.2298 -0.1057  0.0495
  243loPI   PO4 3876  14.983   6.691  10.128  0.0600  0.0055 -0.0086
  243loPI   GL1 3877  14.942   6.715   9.705  0.2139  0.0632 -0.0252
  243loPI   GL2 3878  15.207   6.633   9.579 -0.1537  0.2491 -0.3227
  243loPI   C1A 3879  14.900   6.853   9.265  0.2930  0.2358  0.4029
  243loPI   C2A 3880  14.973   6.699   8.928  0.2421  0.3976  0.0983
  243loPI   C3A 3881  15.047   6.673   8.443 -0.1192  0.2434 -0.0141
  243loPI   C4A 3882  15.089   6.376   8.129  0.1137  0.3120 -0.3736
  243loPI   C5A 3883  15.326   6.060   7.989  0.3170 -0.1022 -0.1168
  243loPI   C6A 3884  15.602   5.786   7.718  0.0736  0.1354 -0.1466
  243loPI   C1B 3885  15.288   6.390   9.231 -0.0485 -0.2188  0.3635
  243loPI   C2B 3886  15.402   6.478   8.815 -0.1186 -0.1567 -0.0888
  243loPI   C3B 3887  15.698   6.465   8.477  0.2108  0.0007  0.0441
  243loPI   C4B 3888  16.136   6.742   8.354  0.0750 -0.1840 -0.0890
  244loPI    C1 3889   1.230  13.847   9.922  0.0736  0.0989 -0.2965
  244loPI    C2 3890   1.383  13.920  10.284  0.2031  0.1387 -0.3589
  244loPI    C3 3891   1.217  14.216  10.074 -0.0620  0.0733 -0.2449
  244loPI   PO4 3892   1.395  13.800   9.798 -0.1366 -0.4453  0.0042
  244loPI   GL1 3893   1.406  13.814   9.423  0.1383  0.0594 -0.3301
  244loPI   GL2 3894   1.198  13.611   9.364 -0.0628  0.2239 -0.0438
  244loPI   C1A 3895   1.606  13.779   9.036 -0.0955  0.1578  0.0160
  244loPI   C2A 3896   1.690  13.893   8.628 -0.5242 -0.1884  0.1751
  244loPI   C3A 3897   1.970  13.934   8.247  0.0799 -0.1250 -0.0245
  244loPI   C4A 3898   2.414  14.036   8.022 -0.2547  0.0510 -0.0351
  244loPI   C5A 3899   2.485  13.972   7.634 -0.3946  0.1275  0.1044
  244loPI   C6A 3900   2.732  13.783   7.424 -0.0095  0.1720  0.0518
  244loPI   C1B 3901   1.065  13.314   9.002  0.1067  0.2251 -0.1229
  244loPI   C2B 3902   1.246  12.811   8.850 -0.1019 -0.3815  0.0556
  244loPI   C3B 3903   1.506  12.460   8.769 -0.1187 -0.2199 -0.0429
  244loPI   C4B 3904   1.746  12.199   8.454  0.2030  0.2383 -0.0573
  245loPI    C1 3905  15.173  11.486   9.767 -0.3788  0.0719  0.0484
  245loPI    C2 3906  14.802  11.475   9.917 -0.3548 -0.3939  0.0891
  245loPI    C3 3907  15.117  11.443  10.161 -0.2845 -0.0556  0.0484
  245loPI   PO4 3908  15.141  11.302   9.531  0.0428 -0.0603  0.1168
  245loPI   GL1 3909  14.872  11.421   9.205  0.0646  0.1661 -0.0508
  245loPI   GL2 3910  15.117  11.211   8.992  0.3424  0.2999 -0.1795
  245loPI   C1A 3911  14.723  11.436   8.775  0.2106 -0.1034 -0.1133
  245loPI   C2A 3912  14.708  11.293   8.360  0.2812 -0.1286  0.0505
  245loPI   C3A 3913  14.648  11.187   7.954 -0.0880 -0.2750  0.2089
  245loPI   C4A 3914  14.478  11.207   7.584  0.0009 -0.0271  0.3278
  245loPI   C5A 3915  14.200  11.519   7.303 -0.1219  0.0042 -0.3742
  245loPI   C6A 3916  13.854  11.790   7.065  0.1545  0.1287  0.2314
  245loPI   C1B 3917  15.099  11.050   8.529  0.1965  0.3225 -0.2902
  245loPI   C2B 3918  14.961  10.880   8.070 -0.2809 -0.2527  0.0900
  245loPI   C3B 3919  15.149  10.964   7.671 -0.1798  0.2867 -0.2877
  245loPI   C4B 3920  15.478  10.895   7.365 -0.0348 -0.1301 -0.1017
  246loPI    C1 3921  14.879   7.579   9.918  0.1349 -0.1211  0.0248
  246loPI    C2 3922  14.905   7.833  10.225  0.0437  0.0401 -0.0997
  246loPI    C3 3923  14.889   7.440  10.293 -0.2844  0.0871  0.1190
  246loPI   PO4 3924  14.989   7.595   9.655  0.0484 -0.0777 -0.1024
  246loPI   GL1 3925  14.999   7.515   9.204 -0.0722 -0.3037  0.0510
  246loPI   GL2 3926  14.732   7.341   9.062  0.2315 -0.0931 -0.0266
  246loPI   C1A 3927  15.294   7.550   8.898 -0.0416 -0.0581 -0.0308
  246loPI   C2A 3928  15.693   7.531   8.868  0.0632 -0.0793  0.0697
  246loPI   C3A 3929  15.985   7.555   8.608 -0.2441  0.0813 -0.0643
  246loPI   C4A 3930  16.219   7.662   8.187  0.1584 -0.1357  0.0033
  246loPI   C5A 3931  16.260   7.433   7.903 -0.1974  0.0650 -0.3116
  246loPI   C6A 3932  16.131   7.430   7.526  0.1079  0.0990 -0.0025
  246loPI   C1B 3933  14.694   7.111   8.829 -0.2772  0.3652 -0.0135
  246loPI   C2B 3934  14.594   6.907   8.519  0.3852 -0.1052 -0.1045
  246loPI   C3B 3935  14.417   6.969   8.143  0.0693  0.0743  0.3180
  246loPI   C4B 3936  14.181   6.624   7.853  0.2513 -0.2883  0.1474
  247loPI    C1 3937  12.690  19.212   9.219 -0.3061  0.1209  0.0234
  247loPI    C2 3938  12.535  18.925   9.451  0.0502 -0.1353 -0.0476
  247loPI    C3 3939  12.856  19.129   9.573 -0.1499  0.1784 -0.0357
  247loPI   PO4 3940  12.455  19.317   9.081  0.0483 -0.1028 -0.1165
  247loPI   GL1 3941  12.338  19.431   8.705  0.2172  0.0783  0.3362
  247loPI   GL2 3942  12.565  19.696   8.768 -0.0352  0.3183 -0.0068
  247loPI   C1A 3943  12.240  19.574   8.213 -0.4393 -0.1552  0.1382
  247loPI   C2A 3944  12.001  19.701   7.856 -0.3063 -0.0199 -0.3780
  247loPI   C3A 3945  11.885  19.590   7.423 -0.1408 -0.0721  0.3665
  247loPI   C4A 3946  11.784  19.394   7.013 -0.0677  0.1854  0.2222
  247loPI   C5A 3947  11.422  19.659   6.803  0.1999  0.0283 -0.1117
  247loPI   C6A 3948  11.255  19.623   6.446  0.0149  0.0784 -0.0181
  247loPI   C1B 3949  12.696  19.852   8.360 -0.0036  0.1367 -0.0124
  247loPI   C2B 3950  12.758  20.038   7.920  0.1038  0.0641 -0.1490
  247loPI   C3B 3951  12.958  20.094   7.492 -0.0756  0.0004 -0.0526
  247loPI   C4B 3952  13.235  19.964   7.126  0.0172 -0.0417 -0.0079
  248loPI    C1 3953  16.433  19.479   9.646  0.0817  0.1425  0.2419
  248loPI    C2 3954  16.627  19.162   9.499  0.1429  0.2462  0.0958
  248loPI    C3 3955  16.412  19.127   9.834  0.1360  0.0471  0.0720
  248loPI   PO4 3956  16.276  19.475   9.363  0.2424  0.0815  0.0556
  248loPI   GL1 3957  16.524  19.351   9.036  0.4325 -0.0140 -0.0613
  248loPI   GL2 3958  16.851  19.260   9.020 -0.0431 -0.0446  0.0529
  248loPI   C1A 3959  16.376  19.292   8.601  0.1823  0.1187 -0.1420
  248loPI   C2A 3960  16.218  19.292   8.196  0.2113 -0.4092  0.0969
  248loPI   C3A 3961  16.137  19.355   7.792 -0.2317 -0.1470  0.0790
  248loPI   C4A 3962  15.925  19.307   7.444  0.0192 -0.3559 -0.2529
  248loPI   C5A 3963  15.616  19.304   7.040 -0.2279 -0.1559 -0.3211
  248loPI   C6A 3964  15.196  19.243   6.895 -0.1332 -0.4301  0.1554
  248loPI   C1B 3965  16.877  19.159   8.545 -0.0016  0.0550 -0.3445
  248loPI   C2B 3966  16.690  19.336   8.186  0.4070 -0.1403  0.2095
  248loPI   C3B 3967  16.634  19.555   7.782 -0.1005 -0.0150  0.2664
  248loPI   C4B 3968  16.316  19.857   7.564 -0.2923 -0.0497 -0.2390
  249loPI    C1 3969   6.879   5.951  10.013 -0.0606 -0.1291 -0.0972
  249loPI    C2 3970   6.970   5.833  10.384 -0.1518 -0.1137 -0.0698
  249loPI    C3 3971   6.597   5.949  10.296 -0.1357 -0.1380 -0.1715
  249loPI   PO4 3972   7.066   6.050   9.905 -0.0410 -0.2114  0.2213
  249loPI   GL1 3973   7.333   5.896   9.614  0.0640 -0.0883 -0.0690
  249loPI   GL2 3974   7.152   6.177   9.414  0.0233  0.1321  0.2033
  249loPI   C1A 3975   7.604   5.995   9.167 -0.2583 -0.3895  0.0746
  249loPI   C2A 3976   7.888   6.288   8.832 -0.0132  0.2085 -0.1711
  249loPI   C3A 3977   7.938   6.397   8.436  0.1111  0.1102  0.1558
  249loPI   C4A 3978   7.951   6.456   7.952 -0.0945  0.1407  0.1521
  249loPI   C5A 3979   8.133   6.482   7.572  0.4411 -0.2228  0.0912
  249loPI   C6A 3980   8.459   6.264   7.515 -0.2301 -0.0291  0.2884
  249loPI   C1B 3981   7.176   6.224   9.070  0.0179  0.1533  0.0912
  249loPI   C2B 3982   7.368   6.299   8.725 -0.3416  0.2373 -0.1074
  249loPI   C3B 3983   7.229   6.468   8.310  0.0717 -0.1199 -0.1037
  249loPI   C4B 3984   7.313   6.326   7.989  0.0238  0.0814  0.0353
  250loPI    C1 3985   7.571  18.943  10.177  0.1628  0.0898 -0.1093
  250loPI    C2 3986   7.220  18.861  10.352  0.0062  0.3637 -0.2875
  250loPI    C3 3987   7.488  18.569  10.294 -0.0781  0.2044  0.0960
  250loPI   PO4 3988   7.537  19.064   9.943 -0.2662 -0.2554  0.0909
  250loPI   GL1 3989   7.385  18.967   9.410  0.0698 -0.0988 -0.3044
  250loPI   GL2 3990   7.034  18.843   9.322  0.2796 -0.1745  0.1490
  250loPI   C1A 3991   7.385  18.985   9.020 -0.0440 -0.2478  0.0533
  250loPI   C2A 3992   7.336  19.100   8.646  0.0173 -0.0645 -0.2419
  250loPI   C3A 3993   7.294  19.047   8.261  0.1241 -0.2856  0.0320
  250loPI   C4A 3994   7.308  18.972   7.795  0.1137  0.3273 -0.0494
  250loPI   C5A 3995   6.898  18.749   7.604 -0.0734  0.1450  0.1255
  250loPI   C6A 3996   6.625  18.675   7.323  0.0215  0.1353 -0.0218
  250loPI   C1B 3997   6.941  18.708   8.856  0.1501  0.0320 -0.1828
  250loPI   C2B 3998   6.894  18.642   8.377 -0.3611  0.2103  0.0943
  250loPI   C3B 3999   6.865  18.439   7.960 -0.1817  0.0015  0.0137
  250loPI   C4B 4000   6.383  18.216   7.736 -0.2038  0.4703  0.1278
  251loPI    C1 4001   6.304   8.827  10.344  0.0489  0.0030 -0.0115
  251loPI    C2 4002   6.127   8.626  10.641  0.0840  0.1401  0.1032
  251loPI    C3 4003   6.433   8.871  10.720  0.2209  0.0279 -0.0730
  251loPI   PO4 4004   6.096   8.993  10.183  0.1004 -0.0515  0.1665
  251loPI   GL1 4005   6.066   9.056   9.731  0.4161  0.2023  0.1872
  251loPI   GL2 4006   5.804   9.279   9.848 -0.0176  0.0651 -0.0427
  251loPI   C1A 4007   6.255   9.013   9.327  0.3611 -0.0460  0.2640
  251loPI   C2A 4008   6.341   8.981   8.943 -0.0534  0.0011  0.0964
  251loPI   C3A 4009   6.510   8.771   8.598 -0.1455 -0.1545 -0.1326
  251loPI   C4A 4010   6.867   8.705   8.218 -0.1409  0.0803  0.1566
  251loPI   C5A 4011   7.236   8.571   8.002 -0.1463  0.1267  0.3222
  251loPI   C6A 4012   7.470   8.334   7.780  0.1301  0.1060 -0.0822
  251loPI   C1B 4013   5.720   9.378   9.445 -0.0712  0.1084 -0.0034
  251loPI   C2B 4014   5.729   9.278   8.967 -0.0960 -0.0102 -0.3392
  251loPI   C3B 4015   6.016   9.278   8.623 -0.0008  0.1766 -0.1231
  251loPI   C4B 4016   6.003   9.235   8.161 -0.1415 -0.0428  0.3636
  252loPI    C1 4017  14.963   2.116   9.680  0.1921  0.1166  0.0813
  252loPI    C2 4018  14.915   1.750   9.833  0.2154  0.0427 -0.0865
  252loPI    C3 4019  14.722   2.060   9.995  0.0549 -0.0722 -0.0553
  252loPI   PO4 4020  14.934   2.061   9.423  0.2512 -0.0637 -0.1264
  252loPI   GL1 4021  14.937   2.225   8.980 -0.0515 -0.2493 -0.1507
  252loPI   GL2 4022  15.094   2.493   8.979 -0.1217  0.0852 -0.1467
  252loPI   C1A 4023  14.545   2.173   8.724  0.2474 -0.3138 -0.1874
  252loPI   C2A 4024  14.316   2.525   8.494 -0.2023 -0.0727  0.0576
  252loPI   C3A 4025  14.220   2.548   8.075 -0.0725  0.2610 -0.1808
  252loPI   C4A 4026  14.294   2.618   7.566 -0.3148  0.0027 -0.0185
  252loPI   C5A 4027  14.305   2.635   7.076 -0.0092 -0.2074  0.0646
  252loPI   C6A 4028  14.480   2.670   6.692  0.1497 -0.2302  0.0040
  252loPI   C1B 4029  14.861   2.624   8.631  0.0545  0.2534 -0.0547
  252loPI   C2B 4030  14.716   2.774   8.195 -0.3738 -0.1367  0.1491
  252loPI   C3B 4031  14.723   3.014   7.878 -0.2679  0.1631 -0.0542
  252loPI   C4B 4032  14.477   3.139   7.444  0.1613  0.1675 -0.1385
  253loPI    C1 4033   3.059   5.964  10.019  0.0929 -0.1328 -0.0897
  253loPI    C2 4034   3.383   5.730  10.023  0.1675 -0.0333 -0.2341
  253loPI    C3 4035   3.099   5.683  10.300  0.3121 -0.1112 -0.0978
  253loPI   PO4 4036   3.068   6.005   9.691  0.1019 -0.1025  0.0883
  253loPI   GL1 4037   3.095   6.389   9.539 -0.0492 -0.4081  0.0759
  253loPI   GL2 4038   2.989   6.633   9.401  0.4616 -0.2610 -0.2038
  253loPI   C1A 4039   3.357   6.220   9.073 -0.1881 -0.1356  0.2638
  253loPI   C2A 4040   3.467   6.348   8.659 -0.1558 -0.0119 -0.1863
  253loPI   C3A 4041   3.444   6.468   8.232  0.2205 -0.1441  0.0227
  253loPI   C4A 4042   3.548   6.583   7.840 -0.0482 -0.1561 -0.0279
  253loPI   C5A 4043   3.425   6.486   7.387 -0.1088 -0.2699  0.0109
  253loPI   C6A 4044   3.256   6.492   6.910  0.0319  0.1207 -0.1200
  253loPI   C1B 4045   2.713   6.815   9.133  0.1561  0.0199  0.0021
  253loPI   C2B 4046   2.659   6.781   8.736  0.2192 -0.1130  0.1047
  253loPI   C3B 4047   2.581   6.559   8.370  0.0518  0.3546  0.0555
  253loPI   C4B 4048   2.579   6.450   7.896 -0.2803  0.0260 -0.1833
  254loPI    C1 4049   7.749   9.460  10.525 -0.0650  0.0565 -0.0813
  254loPI    C2 4050   7.909   9.698  10.246  0.1586  0.0476  0.0369
  254loPI    C3 4051   8.128   9.405  10.408  0.0117  0.0157  0.1799
  254loPI   PO4 4052   7.576   9.360  10.448 -0.2075  0.3259 -0.0800
  254loPI   GL1 4053   7.575   9.366  10.014 -0.2032 -0.1700  0.1181
  254loPI   GL2 4054   7.892   9.314   9.877  0.1244  0.0553 -0.2592
  254loPI   C1A 4055   7.609   9.769   9.824  0.0459  0.1038  0.0083
  254loPI   C2A 4056   7.382   9.794   9.394 -0.0003 -0.1093  0.4502
  254loPI   C3A 4057   7.427   9.916   8.961 -0.2442  0.1170 -0.0861
  254loPI   C4A 4058   7.416   9.968   8.563  0.1865 -0.0655  0.0805
  254loPI   C5A 4059   7.256   9.982   8.145  0.2404 -0.0124  0.0916
  254loPI   C6A 4060   7.303   9.848   7.708  0.1372 -0.0221 -0.0034
  254loPI   C1B 4061   7.852   9.363   9.501  0.0884  0.1955  0.1476
  254loPI   C2B 4062   7.986   9.318   9.053  0.0003  0.2916 -0.2090
  254loPI   C3B 4063   8.171   9.285   8.541  0.1968  0.0040 -0.2198
  254loPI   C4B 4064   8.440   9.410   8.142  0.0471 -0.0095  0.0968
  255loPI    C1 4065  17.674   9.161   9.979  0.0491  0.2276 -0.1834
  255loPI    C2 4066  17.739   9.286  10.353  0.0715 -0.4041  0.0344
  255loPI    C3 4067  17.365   9.228  10.225  0.0643 -0.1952 -0.0423
  255loPI   PO4 4068  17.812   9.246   9.842  0.3415 -0.1694  0.1341
  255loPI   GL1 4069  17.763   9.278   9.454 -0.2940 -0.2103 -0.1017
  255loPI   GL2 4070  17.874   9.470   9.272  0.2743  0.0056  0.0487
  255loPI   C1A 4071  17.729   8.977   9.143  0.2462 -0.0757  0.0489
  255loPI   C2A 4072  17.871   9.065   8.779  0.3003  0.0582 -0.2474
  255loPI   C3A 4073  17.993   9.152   8.366 -0.1176 -0.0677  0.2783
  255loPI   C4A 4074  17.785   9.325   8.088  0.0118  0.0234 -0.0758
  255loPI   C5A 4075  17.972   9.616   7.788 -0.2266  0.1007 -0.2200
  255loPI   C6A 4076  18.176   9.844   7.372 -0.1202  0.3050  0.0855
  255loPI   C1B 4077  17.716   9.664   8.879  0.2682  0.5461 -0.1213
  255loPI   C2B 4078  17.842   9.684   8.412  0.0161  0.1621 -0.2820
  255loPI   C3B 4079  17.678   9.951   8.085 -0.0114 -0.0700  0.2459
  255loPI   C4B 4080  17.702  10.017   7.633 -0.0164  0.1418  0.0708
  256loPI    C1 4081   4.296  10.967  10.543 -0.0510  0.0376 -0.0264
  256loPI    C2 4082   4.477  10.635  10.412  0.1982  0.1911 -0.0776
  256loPI    C3 4083   4.319  10.646  10.780 -0.0900 -0.0863 -0.1889
  256loPI   PO4 4084   4.480  11.122  10.388  0.0061  0.0054 -0.2836
  256loPI   GL1 4085   4.626  10.970   9.933 -0.0943  0.1643 -0.3245
  256loPI   GL2 4086   4.682  11.306   9.993 -0.0907  0.4278 -0.0996
  256loPI   C1A 4087   4.290  11.032   9.630 -0.0666 -0.0245  0.0391
  256loPI   C2A 4088   4.317  11.134   9.099 -0.1134 -0.3012  0.0483
  256loPI   C3A 4089   4.312  11.056   8.636 -0.1069  0.1303 -0.6090
  256loPI   C4A 4090   4.313  10.798   8.325 -0.3999 -0.2655  0.4432
  256loPI   C5A 4091   4.601  10.586   8.035 -0.1724 -0.2570 -0.0481
  256loPI   C6A 4092   4.803  10.344   7.871  0.0617  0.1892  0.0137
  256loPI   C1B 4093   4.734  11.198   9.521 -0.1105 -0.2081 -0.2164
  256loPI   C2B 4094   4.829  11.327   9.094  0.1022 -0.1239 -0.0785
  256loPI   C3B 4095   5.136  11.413   8.753  0.0415  0.4425  0.0123
  256loPI   C4B 4096   5.424  11.641   8.441  0.5170  0.1351  0.1871
  257loPI    C1 4097   2.344   2.172   9.413 -0.0579  0.1356  0.0165
  257loPI    C2 4098   2.076   2.331   9.663 -0.3101 -0.2967  0.0318
  257loPI    C3 4099   2.428   2.203   9.803 -0.0984  0.2427  0.0169
  257loPI   PO4 4100   2.192   2.007   9.230  0.2757 -0.2424  0.2116
  257loPI   GL1 4101   2.408   1.704   8.918  0.1419 -0.0700  0.0987
  257loPI   GL2 4102   2.448   1.425   8.907  0.1055 -0.0976  0.1177
  257loPI   C1A 4103   2.099   1.764   8.522 -0.0733  0.0468  0.1899
  257loPI   C2A 4104   1.902   1.509   8.163  0.2614 -0.1317  0.1025
  257loPI   C3A 4105   1.849   1.460   7.710 -0.3536 -0.0356 -0.1871
  257loPI   C4A 4106   1.862   1.211   7.262  0.1765 -0.1224 -0.1427
  257loPI   C5A 4107   2.041   1.162   6.797  0.2775 -0.1443  0.0851
  257loPI   C6A 4108   2.087   1.039   6.330 -0.0143  0.0850  0.0214
  257loPI   C1B 4109   2.611   1.517   8.335  0.0692 -0.1930  0.3850
  257loPI   C2B 4110   2.403   1.713   8.018  0.0878 -0.1983 -0.0307
  257loPI   C3B 4111   2.188   1.945   7.701 -0.0310 -0.3795  0.3097
  257loPI   C4B 4112   2.167   2.308   7.351 -0.1315  0.0673  0.2229
  258loPI    C1 4113  14.255   9.274   9.922 -0.0826  0.2051 -0.0866
  258loPI    C2 4114  14.085   8.924  10.014  0.0318  0.1725  0.0031
  258loPI    C3 4115  14.253   9.146  10.301 -0.0553  0.3093 -0.0511
  258loPI   PO4 4116  14.314   9.255   9.661  0.2270  0.0531 -0.2362
  258loPI   GL1 4117  14.239   9.150   9.282 -0.1457  0.1596 -0.1698
  258loPI   GL2 4118  14.048   9.421   9.229  0.0814  0.0571  0.1512
  258loPI   C1A 4119  13.990   8.913   9.029 -0.0768 -0.2096  0.0317
  258loPI   C2A 4120  13.917   8.977   8.564 -0.1945 -0.2121  0.3540
  258loPI   C3A 4121  13.738   8.957   8.104  0.0450  0.1748 -0.1065
  258loPI   C4A 4122  13.644   9.146   7.608 -0.1262  0.1804  0.0238
  258loPI   C5A 4123  13.451   9.376   7.325  0.1770  0.0756  0.0705
  258loPI   C6A 4124  13.165   9.798   7.148 -0.0448  0.0126  0.4490
  258loPI   C1B 4125  13.844   9.422   8.809 -0.1907  0.0290  0.3872
  258loPI   C2B 4126  13.563   9.378   8.497 -0.0382 -0.2902  0.2012
  258loPI   C3B 4127  13.618   9.459   8.133 -0.0201  0.0193  0.2042
  258loPI   C4B 4128  13.997   9.599   7.862  0.0962 -0.0792 -0.2808
  259loPI    C1 4129  14.571  16.966   9.499  0.2207  0.0294 -0.1466
  259loPI    C2 4130  14.287  17.112   9.740  0.0579 -0.1288 -0.2406
  259loPI    C3 4131  14.598  16.915   9.895  0.1872  0.1597 -0.1271
  259loPI   PO4 4132  14.372  16.914   9.183  0.0967  0.0180 -0.2410
  259loPI   GL1 4133  14.242  17.152   8.859 -0.0069 -0.3915 -0.2096
  259loPI   GL2 4134  14.463  16.986   8.675  0.2597 -0.2719 -0.0846
  259loPI   C1A 4135  14.118  17.371   8.449  0.2166 -0.0547 -0.1978
  259loPI   C2A 4136  14.122  17.518   8.058  0.0579 -0.1157 -0.0866
  259loPI   C3A 4137  14.147  17.666   7.602 -0.1782  0.2344 -0.0657
  259loPI   C4A 4138  14.165  17.599   7.159  0.0416 -0.0106  0.0618
  259loPI   C5A 4139  14.201  17.222   6.780 -0.2527 -0.0710 -0.1008
  259loPI   C6A 4140  14.367  16.907   6.717  0.1121  0.0343 -0.0970
  259loPI   C1B 4141  14.421  17.001   8.237  0.1346  0.2647 -0.1156
  259loPI   C2B 4142  14.589  16.864   7.855  0.1715  0.0638 -0.2437
  259loPI   C3B 4143  14.857  16.666   7.587 -0.1707  0.0039 -0.0682
  259loPI   C4B 4144  15.209  16.363   7.771  0.0797  0.1747  0.1220
  260loPI    C1 4145   1.111   4.960   9.884  0.3136  0.1234  0.2554
  260loPI    C2 4146   1.004   4.988  10.268 -0.1145 -0.1342  0.1613
  260loPI    C3 4147   1.050   4.628  10.099 -0.0532 -0.0231 -0.0624
  260loPI   PO4 4148   0.975   5.090   9.740 -0.0250 -0.2105  0.0833
  260loPI   GL1 4149   0.879   5.074   9.281  0.0954 -0.1697  0.0377
  260loPI   GL2 4150   1.152   5.241   9.202 -0.1940  0.0662  0.2586
  260loPI   C1A 4151   0.889   4.979   8.877 -0.0982 -0.1370 -0.0174
  260loPI   C2A 4152   0.658   5.048   8.399 -0.2880 -0.1000 -0.0754
  260loPI   C3A 4153   0.544   5.286   8.000 -0.2200 -0.5205  0.2017
  260loPI   C4A 4154   0.749   5.437   7.619 -0.0235 -0.0438 -0.0561
  260loPI   C5A 4155   0.845   5.867   7.594  0.1826 -0.3079  0.0282
  260loPI   C6A 4156   0.680   6.256   7.710  0.4403 -0.0395  0.0007
  260loPI   C1B 4157   1.268   5.274   8.748 -0.1581  0.1024  0.1647
  260loPI   C2B 4158   1.235   5.109   8.343 -0.0589  0.1969  0.0198
  260loPI   C3B 4159   1.068   5.092   7.989  0.0434 -0.1646 -0.1185
  260loPI   C4B 4160   0.880   4.988   7.488  0.0644  0.0388 -0.1790
  261loPI    C1 4161  16.509  10.268   9.899  0.0206  0.0054  0.1945
  261loPI    C2 4162  16.890  10.172   9.973  0.1051  0.3848  0.2737
  261loPI    C3 4163  16.623  10.172  10.270  0.0260  0.0589  0.2067
  261loPI   PO4 4164  16.592  10.449   9.733 -0.0173 -0.2288  0.1459
  261loPI   GL1 4165  16.672  10.405   9.242 -0.2046 -0.0113  0.0240
  261loPI   GL2 4166  16.663  10.081   9.086  0.3158 -0.4014  0.1050
  261loPI   C1A 4167  16.639  10.534   8.764  0.2939  0.2479  0.3600
  261loPI   C2A 4168  16.744  10.341   8.331 -0.0500  0.1256 -0.4312
  261loPI   C3A 4169  16.844  10.196   7.973 -0.3756  0.1783 -0.2921
  261loPI   C4A 4170  16.794  10.013   7.595 -0.1369 -0.1831  0.4064
  261loPI   C5A 4171  16.629   9.989   7.121 -0.2558  0.1402 -0.0175
  261loPI   C6A 4172  16.739   9.700   6.809 -0.0933  0.3576 -0.3744
  261loPI   C1B 4173  16.625  10.017   8.640 -0.3353  0.1296 -0.2622
  261loPI   C2B 4174  16.685   9.794   8.232  0.2177 -0.1658 -0.1076
  261loPI   C3B 4175  16.549   9.469   8.138  0.3625 -0.1316 -0.1940
  261loPI   C4B 4176  16.268   9.469   7.769  0.3946  0.3343 -0.3461
  262loPI    C1 4177   0.183  13.940   9.802 -0.0021 -0.0395  0.0754
  262loPI    C2 4178   0.170  13.571   9.956 -0.1134 -0.1335 -0.1550
  262loPI    C3 4179   0.176  13.888  10.199  0.1772 -0.2903  0.0483
  262loPI   PO4 4180   0.325  13.884   9.553  0.2840 -0.0272 -0.0804
  262loPI   GL1 4181   0.150  13.778   9.103 -0.1435  0.0689  0.1353
  262loPI   GL2 4182  -0.231  13.624   9.026  0.0289 -0.7058  0.1264
  262loPI   C1A 4183   0.302  13.582   8.763  0.2023 -0.1652 -0.1709
  262loPI   C2A 4184   0.290  13.463   8.374 -0.0897 -0.0554  0.0823
  262loPI   C3A 4185   0.499  13.265   8.059 -0.0611  0.0646  0.0847
  262loPI   C4A 4186   0.666  13.158   7.675 -0.0814 -0.1262  0.1493
  262loPI   C5A 4187   1.080  13.320   7.655 -0.0073  0.0157 -0.1719
  262loPI   C6A 4188   1.525  13.670   7.825  0.0570 -0.0723 -0.2301
  262loPI   C1B 4189  -0.181  13.415   8.654  0.3293  0.0578 -0.0631
  262loPI   C2B 4190  -0.094  13.228   8.212  0.0724 -0.0098  0.0751
  262loPI   C3B 4191   0.111  13.136   7.786  0.0275  0.0353  0.1321
  262loPI   C4B 4192   0.036  13.355   7.442  0.0526  0.0953  0.0164
  263loPI    C1 4193   7.184  11.993  10.098  0.0917  0.1946 -0.3072
  263loPI    C2 4194   7.372  12.286  10.296 -0.1752  0.0960  0.1060
  263loPI    C3 4195   7.377  11.913  10.440 -0.1411 -0.0356 -0.2265
  263loPI   PO4 4196   7.209  12.107   9.862  0.0536  0.0508 -0.0378
  263loPI   GL1 4197   7.340  12.268   9.389 -0.2198  0.1325 -0.2366
  263loPI   GL2 4198   7.138  12.062   9.324 -0.2903  0.4546 -0.0304
  263loPI   C1A 4199   7.553  11.950   9.078 -0.1170 -0.0141  0.1695
  263loPI   C2A 4200   7.732  11.705   8.770  0.0306 -0.2264  0.1412
  263loPI   C3A 4201   7.473  11.320   8.911 -0.0170  0.2463  0.2938
  263loPI   C4A 4202   7.231  11.100   8.697  0.1542  0.1334  0.0148
  263loPI   C5A 4203   7.151  10.691   8.457  0.3413 -0.2109 -0.1308
  263loPI   C6A 4204   7.381  10.453   8.256 -0.0591  0.1520 -0.1713
  263loPI   C1B 4205   7.182  11.598   9.218  0.0806  0.1803  0.1212
  263loPI   C2B 4206   7.191  11.256   9.339 -0.0416  0.3800 -0.0952
  263loPI   C3B 4207   6.966  10.999   9.098 -0.1594  0.3263 -0.0109
  263loPI   C4B 4208   7.205  10.628   8.961  0.2873  0.2597  0.1651
  264loPI    C1 4209   1.073  16.490   9.641 -0.1981  0.0383 -0.1964
  264loPI    C2 4210   0.729  16.503   9.845 -0.0922 -0.0662 -0.0076
  264loPI    C3 4211   0.848  16.161   9.674 -0.0632 -0.0400 -0.0399
  264loPI   PO4 4212   1.086  16.807   9.475 -0.2282 -0.0570 -0.2174
  264loPI   GL1 4213   0.950  16.863   9.068 -0.2821  0.2603  0.2467
  264loPI   GL2 4214   1.116  16.513   9.070 -0.0244  0.0429  0.0092
  264loPI   C1A 4215   0.766  16.930   8.655  0.2975 -0.0336 -0.2515
  264loPI   C2A 4216   0.863  16.835   8.259  0.0175  0.1982 -0.1750
  264loPI   C3A 4217   0.897  16.525   7.978  0.4308 -0.2516  0.4231
  264loPI   C4A 4218   0.785  16.460   7.578  0.2322  0.0168  0.0622
  264loPI   C5A 4219   0.885  16.286   7.233 -0.0502  0.0600 -0.0758
  264loPI   C6A 4220   0.836  15.973   6.961  0.1957  0.0548 -0.1034
  264loPI   C1B 4221   0.936  16.467   8.663  0.0497 -0.0598  0.1509
  264loPI   C2B 4222   0.694  16.419   8.459  0.0881  0.2233  0.1681
  264loPI   C3B 4223   0.595  16.086   8.194 -0.1417 -0.2038  0.0896
  264loPI   C4B 4224   0.414  16.222   7.791  0.2008  0.3212  0.2146
  265loPI    C1 4225   3.587   8.948  10.298 -0.0475  0.4336 -0.0078
  265loPI    C2 4226   3.898   9.092  10.506  0.2104 -0.1574  0.0341
  265loPI    C3 4227   3.621   8.869  10.689 -0.0321  0.0399 -0.0856
  265loPI   PO4 4228   3.609   9.110  10.103  0.4360  0.3013 -0.1366
  265loPI   GL1 4229   3.602   9.079   9.790  0.2471  0.0112 -0.0298
  265loPI   GL2 4230   3.540   8.810   9.578  0.1223 -0.0368  0.3639
  265loPI   C1A 4231   3.932   9.312   9.516  0.0545 -0.0846  0.1118
  265loPI   C2A 4232   3.940   9.616   9.158  0.0726 -0.2546  0.1132
  265loPI   C3A 4233   3.929   9.569   8.751  0.0770 -0.3605 -0.0390
  265loPI   C4A 4234   3.679   9.691   8.418  0.0104 -0.0272  0.0784
  265loPI   C5A 4235   3.626   9.472   8.111 -0.0222 -0.3379  0.0283
  265loPI   C6A 4236   3.688   9.079   7.838  0.2512 -0.0832  0.2432
  265loPI   C1B 4237   3.651   8.952   9.255 -0.1800 -0.0637 -0.4232
  265loPI   C2B 4238   3.955   9.052   8.923 -0.0888 -0.1512 -0.0263
  265loPI   C3B 4239   4.068   9.217   8.463  0.0042  0.1740 -0.0197
  265loPI   C4B 4240   4.103   9.462   8.063 -0.0191 -0.0525  0.0017
  266loPI    C1 4241  13.612   8.893  10.071 -0.0569 -0.0321 -0.1504
  266loPI    C2 4242  13.408   8.946  10.410 -0.3640 -0.1446 -0.3141
  266loPI    C3 4243  13.709   9.193  10.318 -0.3126 -0.0805  0.0119
  266loPI   PO4 4244  13.549   8.746   9.915 -0.1656  0.1270 -0.0720
  266loPI   GL1 4245  13.563   8.793   9.395  0.3589  0.2494 -0.0823
  266loPI   GL2 4246  13.218   8.680   9.324 -0.4322 -0.1750 -0.0765
  266loPI   C1A 4247  13.673   8.535   9.048  0.1288 -0.1625  0.0342
  266loPI   C2A 4248  13.627   8.421   8.626  0.1742 -0.1103 -0.2438
  266loPI   C3A 4249  13.717   8.111   8.341 -0.1423  0.0198 -0.0504
  266loPI   C4A 4250  13.610   7.838   7.980  0.1224  0.1195 -0.3939
  266loPI   C5A 4251  13.958   7.565   7.752 -0.1513 -0.0154 -0.0197
  266loPI   C6A 4252  14.136   7.190   7.635 -0.0268  0.0814 -0.1621
  266loPI   C1B 4253  13.098   8.547   8.857 -0.0025  0.2177  0.0956
  266loPI   C2B 4254  13.116   8.245   8.484  0.3461 -0.2101 -0.3002
  266loPI   C3B 4255  13.190   8.144   8.130 -0.3644  0.0493 -0.0335
  266loPI   C4B 4256  13.350   8.145   7.678  0.2625 -0.2714 -0.2055
  267loPI    C1 4257   9.594  12.111  10.474 -0.0353 -0.1383 -0.2034
  267loPI    C2 4258   9.573  11.807  10.733  0.0410  0.3069  0.3443
  267loPI    C3 4259   9.904  12.031  10.714 -0.0207  0.3727 -0.0416
  267loPI   PO4 4260   9.617  12.041  10.199 -0.0950 -0.0650  0.0678
  267loPI   GL1 4261   9.427  12.264   9.791  0.1533 -0.0375  0.1567
  267loPI   GL2 4262   9.248  12.037   9.844 -0.0045  0.1390 -0.0033
  267loPI   C1A 4263   9.882  12.232   9.526 -0.0520 -0.5692  0.0595
  267loPI   C2A 4264   9.883  12.286   9.123 -0.0217  0.0095 -0.3681
  267loPI   C3A 4265   9.893  12.501   8.787 -0.1873 -0.0418 -0.2665
  267loPI   C4A 4266  10.041  12.628   8.375 -0.2508  0.1004 -0.3793
  267loPI   C5A 4267   9.833  12.604   7.929  0.0544 -0.1591  0.2748
  267loPI   C6A 4268   9.701  12.315   7.558 -0.3491 -0.0816  0.0956
  267loPI   C1B 4269   9.538  11.918   9.512  0.0563 -0.2229 -0.0155
  267loPI   C2B 4270   9.543  11.651   9.130 -0.2879 -0.1050  0.0734
  267loPI   C3B 4271   9.434  11.586   8.725  0.0951  0.0820 -0.0507
  267loPI   C4B 4272   9.468  11.712   8.334  0.1291  0.0591 -0.1506
  268loPI    C1 4273  16.075  16.735   9.026  0.0230  0.2326  0.0907
  268loPI    C2 4274  16.331  17.028   9.119  0.1823  0.1065  0.0546
  268loPI    C3 4275  16.260  16.734   9.381  0.0051  0.1882  0.1000
  268loPI   PO4 4276  15.881  16.858   8.967  0.2488  0.0863  0.3752
  268loPI   GL1 4277  15.649  16.925   8.493  0.0717 -0.0322  0.4905
  268loPI   GL2 4278  15.456  16.598   8.618  0.1231 -0.0109  0.1475
  268loPI   C1A 4279  15.600  17.251   8.182 -0.0995  0.1152 -0.1830
  268loPI   C2A 4280  15.681  17.542   7.753  0.0991 -0.0682 -0.0568
  268loPI   C3A 4281  15.437  17.515   7.365 -0.0889 -0.2744  0.2729
  268loPI   C4A 4282  15.392  17.519   6.944 -0.4665  0.0485 -0.1762
  268loPI   C5A 4283  15.093  17.470   6.641 -0.1423 -0.0410 -0.2995
  268loPI   C6A 4284  14.865  17.701   6.472 -0.4157  0.0255  0.2154
  268loPI   C1B 4285  15.338  16.305   8.259  0.4410 -0.0258  0.2344
  268loPI   C2B 4286  15.268  15.874   7.939 -0.3216  0.0427  0.0866
  268loPI   C3B 4287  15.341  15.750   7.596 -0.2038 -0.2491  0.0328
  268loPI   C4B 4288  15.381  15.625   7.197  0.2453 -0.0861 -0.0320
  269loPI    C1 4289  19.039   3.110   9.830  0.0488 -0.1308  0.0140
  269loPI    C2 4290  18.743   2.946  10.045  0.1444 -0.1289  0.1485
  269loPI    C3 4291  19.125   2.861  10.131  0.1836 -0.1389 -0.0304
  269loPI   PO4 4292  18.901   3.418   9.819  0.2013  0.2339  0.2447
  269loPI   GL1 4293  18.906   3.494   9.527 -0.2327 -0.1105 -0.0783
  269loPI   GL2 4294  19.057   3.257   9.291  0.2448 -0.1626  0.0920
  269loPI   C1A 4295  18.698   3.639   9.149  0.0714  0.1721  0.2784
  269loPI   C2A 4296  18.735   3.948   8.833  0.0740  0.2119 -0.2426
  269loPI   C3A 4297  18.714   3.902   8.390 -0.2710 -0.2450  0.1277
  269loPI   C4A 4298  18.595   3.932   7.968 -0.1215 -0.0422 -0.0454
  269loPI   C5A 4299  18.370   4.086   7.606 -0.0412  0.5331  0.0662
  269loPI   C6A 4300  18.202   4.052   7.179 -0.0817 -0.2714 -0.0883
  269loPI   C1B 4301  19.158   3.122   8.802  0.0044 -0.0781 -0.0771
  269loPI   C2B 4302  19.096   3.137   8.354 -0.0121 -0.0170 -0.2477
  269loPI   C3B 4303  18.809   3.059   7.978  0.1485 -0.0277 -0.0673
  269loPI   C4B 4304  18.907   2.719   7.609  0.1069  0.1264 -0.2498
  270loPI    C1 4305  19.122   7.185   9.791 -0.0035 -0.1469  0.0447
  270loPI    C2 4306  19.116   7.584   9.820  0.0377 -0.1291 -0.1715
  270loPI    C3 4307  19.017   7.359  10.136  0.0253  0.0514 -0.0449
  270loPI   PO4 4308  18.986   7.068   9.639 -0.0899 -0.4597  0.0556
  270loPI   GL1 4309  19.333   6.930   9.330 -0.0283 -0.1658 -0.1401
  270loPI   GL2 4310  19.665   6.903   9.207  0.2183 -0.0211 -0.0185
  270loPI   C1A 4311  19.346   7.200   8.940  0.1376  0.0392 -0.1828
  270loPI   C2A 4312  19.153   7.054   8.546  0.1956 -0.2036  0.0713
  270loPI   C3A 4313  19.095   6.819   8.099  0.2058  0.2615  0.1060
  270loPI   C4A 4314  18.953   6.682   7.733 -0.1405  0.4368  0.0364
  270loPI   C5A 4315  18.738   6.377   7.452 -0.1416 -0.1666 -0.2137
  270loPI   C6A 4316  18.778   5.949   7.498 -0.0217 -0.1244  0.2075
  270loPI   C1B 4317  19.957   6.822   8.831 -0.1565 -0.1294 -0.2618
  270loPI   C2B 4318  19.931   6.684   8.413  0.3982  0.3481  0.2113
  270loPI   C3B 4319  20.210   6.863   8.100  0.3331  0.2269 -0.0245
  270loPI   C4B 4320  20.480   7.101   7.872  0.0003  0.1033 -0.3509
  271loPI    C1 4321  14.625  13.761   9.858  0.0632  0.0048  0.2136
  271loPI    C2 4322  14.479  13.389   9.882 -0.0697  0.0652  0.3608
  271loPI    C3 4323  14.235  13.695   9.800  0.0789  0.0920  0.0017
  271loPI   PO4 4324  14.864  13.708   9.755 -0.2090 -0.0879  0.1147
  271loPI   GL1 4325  15.081  13.619   9.218 -0.1761 -0.1133 -0.1661
  271loPI   GL2 4326  14.806  13.583   8.905  0.2774 -0.0845 -0.0727
  271loPI   C1A 4327  15.182  13.905   8.959  0.2450  0.0543 -0.0617
  271loPI   C2A 4328  15.190  14.039   8.506 -0.3916  0.0957  0.0726
  271loPI   C3A 4329  15.026  13.861   8.095  0.2386  0.0680  0.1138
  271loPI   C4A 4330  14.897  13.896   7.643  0.1005  0.0092 -0.3660
  271loPI   C5A 4331  14.832  13.847   7.225  0.1493 -0.1345 -0.3596
  271loPI   C6A 4332  14.583  13.899   6.929  0.3684 -0.3604 -0.3403
  271loPI   C1B 4333  14.769  13.787   8.510 -0.0329 -0.1491  0.1388
  271loPI   C2B 4334  14.491  13.702   8.110  0.1805 -0.1736  0.2132
  271loPI   C3B 4335  14.133  13.908   7.852 -0.1014 -0.0768  0.5501
  271loPI   C4B 4336  13.836  14.220   7.611 -0.2538  0.1502  0.0425
  272loPI    C1 4337   8.179   4.187  10.017 -0.3798 -0.0700  0.2438
  272loPI    C2 4338   8.098   4.475  10.283  0.2615  0.2036  0.1612
  272loPI    C3 4339   8.422   4.245  10.330 -0.1427 -0.3952  0.1250
  272loPI   PO4 4340   8.204   4.339   9.759 -0.2193  0.0751 -0.0209
  272loPI   GL1 4341   8.215   4.286   9.445 -0.1414  0.0063  0.1909
  272loPI   GL2 4342   8.535   4.165   9.257  0.1153  0.1111 -0.2650
  272loPI   C1A 4343   8.020   4.486   9.203 -0.0423 -0.2135 -0.1041
  272loPI   C2A 4344   7.800   4.539   8.822 -0.1089 -0.2163  0.0783
  272loPI   C3A 4345   7.915   4.811   8.460 -0.1514  0.2274  0.0763
  272loPI   C4A 4346   8.078   5.044   8.124  0.2934 -0.0420 -0.0169
  272loPI   C5A 4347   8.277   5.059   7.714  0.0591 -0.2843  0.1273
  272loPI   C6A 4348   8.480   5.424   7.400  0.1284 -0.0728 -0.0018
  272loPI   C1B 4349   8.608   4.281   8.969  0.3580  0.1441 -0.1873
  272loPI   C2B 4350   8.535   4.372   8.641 -0.4064  0.2852  0.2727
  272loPI   C3B 4351   8.387   4.622   8.324  0.0439  0.0034 -0.3099
  272loPI   C4B 4352   8.470   4.594   7.891 -0.1594  0.2026  0.0931
  273loPI    C1 4353   8.891  18.937   9.545  0.0268 -0.0599  0.1712
  273loPI    C2 4354   8.626  19.164   9.740 -0.1672 -0.1111 -0.0285
  273loPI    C3 4355   9.018  19.232   9.783 -0.2167  0.0960  0.1116
  273loPI   PO4 4356   8.745  18.868   9.347 -0.0639  0.0697  0.1495
  273loPI   GL1 4357   8.715  18.670   8.902  0.1413 -0.2706  0.2077
  273loPI   GL2 4358   9.015  18.635   8.731 -0.1722 -0.0313  0.2274
  273loPI   C1A 4359   8.670  18.540   8.446  0.0975 -0.0188 -0.0461
  273loPI   C2A 4360   8.895  18.362   8.116 -0.0279  0.3830  0.0376
  273loPI   C3A 4361   9.059  18.061   7.901  0.0521 -0.1183 -0.0108
  273loPI   C4A 4362   9.002  17.640   7.618  0.0015 -0.0652  0.2063
  273loPI   C5A 4363   8.878  17.159   7.562  0.0801 -0.0725  0.1641
  273loPI   C6A 4364   8.873  16.801   7.237  0.0724 -0.1258  0.0640
  273loPI   C1B 4365   9.271  18.909   8.489 -0.1364  0.0270 -0.3523
  273loPI   C2B 4366   9.449  18.960   8.121 -0.1021  0.1200 -0.2188
  273loPI   C3B 4367   9.653  18.812   7.701  0.0042  0.1884  0.2269
  273loPI   C4B 4368   9.645  18.879   7.263  0.2091  0.1453 -0.5944
  274loPI    C1 4369   3.237   4.556   9.480 -0.0698  0.1025 -0.1628
  274loPI    C2 4370   2.935   4.346   9.637  0.1871 -0.2755 -0.1616
  274loPI    C3 4371   3.190   4.539   9.877 -0.0509  0.0495 -0.1628
  274loPI   PO4 4372   3.426   4.348   9.380  0.0715  0.1448  0.3168
  274loPI   GL1 4373   3.599   4.182   9.036 -0.3228  0.2122 -0.0559
  274loPI   GL2 4374   3.854   3.995   8.981  0.0296  0.0137  0.0614
  274loPI   C1A 4375   3.564   4.518   8.690 -0.2522 -0.0979  0.1580
  274loPI   C2A 4376   3.455   4.824   8.417 -0.2191  0.2187 -0.1933
  274loPI   C3A 4377   3.328   4.905   8.124 -0.0127 -0.1772 -0.2468
  274loPI   C4A 4378   3.211   5.217   7.883 -0.0327 -0.1933 -0.0719
  274loPI   C5A 4379   2.927   5.321   7.555  0.0382 -0.2066 -0.2431
  274loPI   C6A 4380   3.013   5.282   7.199  0.0656  0.0040  0.1369
  274loPI   C1B 4381   3.963   3.679   8.586 -0.1972 -0.0156  0.1555
  274loPI   C2B 4382   3.962   3.327   8.371 -0.2888  0.0167 -0.0302
  274loPI   C3B 4383   3.531   3.145   8.085  0.0205 -0.0787  0.1739
  274loPI   C4B 4384   3.116   3.285   8.255 -0.0518 -0.3052  0.0863
  275loPI    C1 4385   8.617  10.170  10.221  0.1473  0.1323  0.2721
  275loPI    C2 4386   8.418   9.836  10.315 -0.1816  0.2553  0.0318
  275loPI    C3 4387   8.335  10.178  10.504 -0.0481  0.2633  0.0770
  275loPI   PO4 4388   8.529  10.170   9.892  0.2825 -0.0685 -0.0486
  275loPI   GL1 4389   8.517  10.214   9.527  0.0257  0.1930  0.1775
  275loPI   GL2 4390   8.243  10.051   9.482 -0.2180 -0.0986 -0.0454
  275loPI   C1A 4391   8.623  10.043   9.156  0.2315 -0.0201 -0.0576
  275loPI   C2A 4392   8.880   9.696   8.948  0.2663  0.1066  0.1839
  275loPI   C3A 4393   9.244   9.553   8.601  0.1747  0.1297 -0.2457
  275loPI   C4A 4394   9.298   9.443   8.239 -0.0970 -0.2617  0.0688
  275loPI   C5A 4395   9.431   9.218   7.841 -0.0774 -0.1023 -0.1071
  275loPI   C6A 4396   9.702   9.187   7.562  0.3205 -0.3448  0.1402
  275loPI   C1B 4397   8.159  10.327   9.184 -0.1028  0.1345 -0.4330
  275loPI   C2B 4398   8.279  10.237   8.761  0.0847 -0.1863  0.0870
  275loPI   C3B 4399   8.451  10.217   8.398  0.0627 -0.1386 -0.0150
  275loPI   C4B 4400   8.223  10.045   8.032 -0.2198 -0.3390  0.2894
  276loPI    C1 4401   7.680   2.892  10.040  0.0334  0.4235  0.0889
  276loPI    C2 4402   7.752   3.219  10.259  0.2131  0.1211  0.4946
  276loPI    C3 4403   7.562   2.907  10.422 -0.1346  0.0915  0.0538
  276loPI   PO4 4404   7.948   3.005   9.838  0.0432 -0.0017 -0.0770
  276loPI   GL1 4405   8.030   2.984   9.432 -0.1082  0.0769  0.1007
  276loPI   GL2 4406   8.404   2.992   9.521  0.1123  0.2227 -0.3057
  276loPI   C1A 4407   7.722   3.028   9.075 -0.0916  0.0960 -0.1982
  276loPI   C2A 4408   7.776   3.065   8.626  0.0141 -0.0615  0.0490
  276loPI   C3A 4409   7.775   3.160   8.209  0.0749  0.0500  0.1081
  276loPI   C4A 4410   7.948   3.148   7.792  0.1957  0.0443 -0.0639
  276loPI   C5A 4411   7.950   3.254   7.361 -0.4537  0.3923 -0.2103
  276loPI   C6A 4412   8.249   3.031   7.037 -0.1036  0.1352  0.0767
  276loPI   C1B 4413   8.480   3.088   9.142  0.2056 -0.3993  0.2167
  276loPI   C2B 4414   8.406   3.169   8.687 -0.1195  0.1515  0.0489
  276loPI   C3B 4415   8.305   3.095   8.269  0.0622  0.2794  0.1520
  276loPI   C4B 4416   8.448   2.980   7.849  0.4257 -0.0001 -0.1179
  277loPI    C1 4417  16.810  16.698   9.351  0.2372  0.0462 -0.0491
  277loPI    C2 4418  16.663  17.047   9.480 -0.0537 -0.1277  0.0995
  277loPI    C3 4419  17.059  16.987   9.474 -0.0088  0.1357  0.2517
  277loPI   PO4 4420  16.646  16.659   9.084 -0.3699  0.0966 -0.2388
  277loPI   GL1 4421  16.608  16.645   8.706  0.2036  0.1843  0.0543
  277loPI   GL2 4422  16.409  16.358   8.640  0.0926  0.1960  0.1707
  277loPI   C1A 4423  16.337  16.903   8.447 -0.0730  0.0011  0.1216
  277loPI   C2A 4424  16.053  16.867   8.109  0.1777  0.0278  0.1122
  277loPI   C3A 4425  16.080  16.793   7.612 -0.3344  0.0395 -0.1015
  277loPI   C4A 4426  16.098  16.860   7.200  0.1445  0.2927  0.0992
  277loPI   C5A 4427  16.040  17.093   6.933  0.0709 -0.2154 -0.0227
  277loPI   C6A 4428  15.900  17.440   6.709 -0.0469 -0.1551  0.2873
  277loPI   C1B 4429  16.212  16.065   8.415  0.2490 -0.1144 -0.1785
  277loPI   C2B 4430  16.255  15.941   8.030 -0.1731  0.1550  0.0208
  277loPI   C3B 4431  16.312  15.783   7.649  0.1064 -0.1877  0.1245
  277loPI   C4B 4432  16.413  15.578   7.203 -0.0703 -0.3142 -0.3814
  278loPI    C1 4433   3.810   5.057   9.748  0.1514 -0.0572 -0.0593
  278loPI    C2 4434   3.597   4.862   9.472  0.0333 -0.2337  0.1530
  278loPI    C3 4435   3.663   4.694   9.829  0.0497  0.0570  0.2899
  278loPI   PO4 4436   3.660   5.307   9.719  0.1306 -0.3311  0.2642
  278loPI   GL1 4437   3.833   5.317   9.316  0.0217  0.0041 -0.2598
  278loPI   GL2 4438   4.123   5.205   9.314 -0.1591  0.0256  0.2867
  278loPI   C1A 4439   3.786   5.425   8.903  0.0627  0.1651 -0.1586
  278loPI   C2A 4440   3.891   5.494   8.580 -0.2641  0.1170 -0.2279
  278loPI   C3A 4441   4.071   5.364   8.277 -0.2050 -0.2862 -0.0890
  278loPI   C4A 4442   4.317   5.237   7.887  0.0085 -0.2248  0.1996
  278loPI   C5A 4443   4.232   5.175   7.445  0.1425 -0.3605 -0.1044
  278loPI   C6A 4444   3.988   5.221   7.162  0.0640 -0.2631 -0.3173
  278loPI   C1B 4445   4.228   5.199   8.906  0.0552 -0.4888  0.0588
  278loPI   C2B 4446   4.394   4.961   8.510  0.0160 -0.0440 -0.0543
  278loPI   C3B 4447   4.523   4.833   8.106  0.3153 -0.0651  0.0056
  278loPI   C4B 4448   4.612   4.917   7.622 -0.1723  0.1178  0.2239
  279loPI    C1 4449   2.037   3.184   9.257 -0.0015 -0.0568 -0.0190
  279loPI    C2 4450   1.996   3.240   9.651  0.0189  0.0121 -0.0265
  279loPI    C3 4451   1.672   3.211   9.419  0.0081  0.2440 -0.0428
  279loPI   PO4 4452   2.378   3.211   9.192 -0.0366  0.2467 -0.0417
  279loPI   GL1 4453   2.759   3.101   8.915 -0.0631  0.0190  0.0114
  279loPI   GL2 4454   2.839   2.798   8.853  0.2927 -0.0394  0.1819
  279loPI   C1A 4455   2.669   3.244   8.446  0.1213 -0.0812 -0.0348
  279loPI   C2A 4456   2.653   3.447   8.084 -0.2370 -0.1569 -0.0982
  279loPI   C3A 4457   2.735   3.544   7.681  0.1544 -0.0777  0.1963
  279loPI   C4A 4458   2.557   3.361   7.267  0.3565  0.1008 -0.0329
  279loPI   C5A 4459   2.345   3.191   6.900 -0.1488  0.1634 -0.0601
  279loPI   C6A 4460   2.086   3.208   6.538  0.0129 -0.2947  0.0714
  279loPI   C1B 4461   3.050   2.827   8.483 -0.0513  0.0489  0.1408
  279loPI   C2B 4462   2.849   2.566   8.207 -0.0759  0.0544  0.0389
  279loPI   C3B 4463   2.849   2.430   7.794 -0.1826 -0.0851  0.1516
  279loPI   C4B 4464   3.023   2.586   7.409 -0.1894  0.1020  0.0030
  280loPI    C1 4465  11.186   7.285  10.274  0.0049 -0.0657 -0.0343
  280loPI    C2 4466  11.433   7.054  10.488 -0.2555 -0.1350  0.1974
  280loPI    C3 4467  11.444   7.452  10.529 -0.0590 -0.1258  0.0703
  280loPI   PO4 4468  11.253   7.256   9.936  0.0333  0.0555  0.2431
  280loPI   GL1 4469  11.091   7.534   9.547 -0.6252 -0.0657 -0.2987
  280loPI   GL2 4470  11.308   7.703   9.564 -0.2389 -0.3290  0.0683
  280loPI   C1A 4471  11.206   7.515   9.151  0.1347  0.2692  0.0479
  280loPI   C2A 4472  11.360   7.931   8.830  0.1646  0.0495  0.2880
  280loPI   C3A 4473  11.411   7.969   8.363  0.1390  0.1872  0.0342
  280loPI   C4A 4474  11.285   8.258   8.065 -0.0590 -0.0260  0.0630
  280loPI   C5A 4475  11.357   8.645   7.862 -0.2476  0.1095  0.1871
  280loPI   C6A 4476  11.624   8.973   7.864 -0.0647 -0.2493  0.3862
  280loPI   C1B 4477  11.208   7.998   9.310 -0.0517  0.2084 -0.0401
  280loPI   C2B 4478  11.229   8.414   9.080  0.0925 -0.0930 -0.1681
  280loPI   C3B 4479  11.098   8.715   8.734 -0.2012 -0.0212  0.1307
  280loPI   C4B 4480  11.183   9.142   8.642  0.2873 -0.1338  0.1457
  281loPI    C1 4481  11.948  12.341   9.666  0.0020 -0.0435  0.0974
  281loPI    C2 4482  11.755  12.683   9.745  0.0761  0.0003  0.0901
  281loPI    C3 4483  11.828  12.422  10.039 -0.0781 -0.0603  0.0755
  281loPI   PO4 4484  12.176  12.337   9.515  0.0206  0.1356  0.1532
  281loPI   GL1 4485  12.011  12.340   9.142  0.4330  0.2074  0.3421
  281loPI   GL2 4486  11.687  12.412   9.269 -0.0909 -0.0324 -0.3792
  281loPI   C1A 4487  11.937  12.334   8.710 -0.2886 -0.1520 -0.1396
  281loPI   C2A 4488  11.700  12.356   8.318  0.1252  0.2281  0.0849
  281loPI   C3A 4489  11.664  12.527   7.932  0.2850  0.0228 -0.2877
  281loPI   C4A 4490  11.889  12.770   7.645  0.0354  0.3129  0.1193
  281loPI   C5A 4491  12.010  12.679   7.274  0.1610  0.0343  0.0998
  281loPI   C6A 4492  12.307  12.480   7.215 -0.0447 -0.0568  0.0582
  281loPI   C1B 4493  11.420  12.445   8.923  0.3380  0.2041  0.0568
  281loPI   C2B 4494  11.360  12.620   8.529  0.1502  0.2557  0.2081
  281loPI   C3B 4495  11.401  12.786   8.228 -0.0697  0.0293 -0.1734
  281loPI   C4B 4496  11.540  13.026   7.943 -0.2517 -0.3352  0.2088
  282loPI    C1 4497  18.866   4.222   9.944  0.3404  0.0650  0.1252
  282loPI    C2 4498  19.118   4.494  10.094  0.2646  0.1617  0.0791
  282loPI    C3 4499  18.825   4.345  10.322  0.2728  0.1591  0.0878
  282loPI   PO4 4500  18.941   4.146   9.769  0.2040  0.1082  0.2652
  282loPI   GL1 4501  18.603   4.064   9.351  0.0122  0.2565 -0.0241
  282loPI   GL2 4502  18.787   4.309   9.299  0.2748  0.1569  0.0568
  282loPI   C1A 4503  18.361   4.325   9.033 -0.2097  0.1073  0.1565
  282loPI   C2A 4504  18.375   4.347   8.637 -0.0420  0.2217 -0.0990
  282loPI   C3A 4505  18.244   4.419   8.140 -0.2814  0.0345  0.0715
  282loPI   C4A 4506  18.052   4.550   7.702 -0.0755  0.0756  0.0962
  282loPI   C5A 4507  17.858   4.489   7.274  0.0231 -0.0644  0.1578
  282loPI   C6A 4508  17.603   4.682   6.914 -0.0694  0.0713  0.2559
  282loPI   C1B 4509  18.814   4.485   8.852 -0.0565  0.2305 -0.1214
  282loPI   C2B 4510  18.851   4.422   8.285 -0.1822 -0.0620 -0.1675
  282loPI   C3B 4511  19.050   4.331   7.910  0.0359 -0.2603 -0.3616
  282loPI   C4B 4512  18.944   3.986   7.621  0.0439 -0.1409 -0.1178
  283loPI    C1 4513   0.592  16.932   9.620 -0.1354  0.0095 -0.0001
  283loPI    C2 4514   0.358  17.043   9.924 -0.0012 -0.1035  0.1457
  283loPI    C3 4515   0.754  17.092   9.949 -0.0046  0.0555 -0.0862
  283loPI   PO4 4516   0.579  17.110   9.391 -0.0692  0.0547 -0.3737
  283loPI   GL1 4517   0.787  17.356   9.036 -0.1674  0.1545 -0.1994
  283loPI   GL2 4518   0.699  17.572   9.172  0.0669  0.2164  0.2055
  283loPI   C1A 4519   0.921  17.413   8.577 -0.1001 -0.3049 -0.0770
  283loPI   C2A 4520   1.204  17.227   8.238  0.1640 -0.0697  0.1397
  283loPI   C3A 4521   1.131  17.252   7.834  0.0870  0.2081  0.0759
  283loPI   C4A 4522   1.038  16.881   7.629  0.3205 -0.1197  0.1016
  283loPI   C5A 4523   0.953  16.840   7.157 -0.1540 -0.1841  0.0777
  283loPI   C6A 4524   0.995  16.611   6.778  0.0519  0.1218 -0.0011
  283loPI   C1B 4525   0.558  17.710   8.788 -0.0640 -0.1805 -0.1104
  283loPI   C2B 4526   0.604  17.754   8.358  0.0306 -0.0919 -0.1369
  283loPI   C3B 4527   0.769  17.517   8.023  0.1582 -0.0499  0.1603
  283loPI   C4B 4528   0.778  17.415   7.535 -0.1591 -0.1093  0.1131
  284loPI    C1 4529  15.416   5.276  10.265  0.0877 -0.1622  0.0159
  284loPI    C2 4530  15.125   5.002  10.278 -0.0620 -0.0049  0.0104
  284loPI    C3 4531  15.201   5.229  10.599  0.3616 -0.3566  0.1692
  284loPI   PO4 4532  15.334   5.392  10.022  0.0921 -0.3996 -0.2050
  284loPI   GL1 4533  15.280   5.378   9.528  0.0298 -0.0252  0.2171
  284loPI   GL2 4534  15.434   5.202   9.319  0.1651  0.0214  0.1062
  284loPI   C1A 4535  15.519   5.667   9.319 -0.0042 -0.0667  0.1062
  284loPI   C2A 4536  15.456   5.955   9.103 -0.0468  0.1952 -0.3339
  284loPI   C3A 4537  15.716   6.087   8.810 -0.0970  0.0934 -0.0851
  284loPI   C4A 4538  16.028   6.120   8.452  0.0953 -0.2275 -0.2692
  284loPI   C5A 4539  15.896   6.185   8.040  0.1309  0.0109  0.0308
  284loPI   C6A 4540  15.855   6.206   7.540 -0.1594 -0.0718  0.3214
  284loPI   C1B 4541  15.663   5.186   9.003  0.0200  0.1122 -0.2004
  284loPI   C2B 4542  15.921   5.105   8.737  0.0866 -0.0334  0.2390
  284loPI   C3B 4543  15.880   5.147   8.297  0.0409  0.1536 -0.3870
  284loPI   C4B 4544  15.600   4.936   7.946  0.0525 -0.0790  0.0335
  285loPI    C1 4545   5.148  16.287  10.390  0.1558 -0.0606  0.2260
  285loPI    C2 4546   5.098  16.589  10.648  0.0399 -0.1292  0.2845
  285loPI    C3 4547   5.354  16.294  10.732  0.0784 -0.0989  0.2737
  285loPI   PO4 4548   5.083  16.531  10.041 -0.1352  0.0204 -0.0510
  285loPI   GL1 4549   5.059  16.582   9.608 -0.1332 -0.0020 -0.1181
  285loPI   GL2 4550   4.815  16.589   9.418 -0.0776  0.0587  0.0559
  285loPI   C1A 4551   5.317  16.455   9.202 -0.0095  0.0145 -0.3783
  285loPI   C2A 4552   5.166  16.423   8.713 -0.1189 -0.2071 -0.3515
  285loPI   C3A 4553   5.165  16.325   8.243  0.0515  0.2101 -0.2868
  285loPI   C4A 4554   5.137  16.063   7.897 -0.4833 -0.0704  0.0764
  285loPI   C5A 4555   4.817  15.977   7.627 -0.2391 -0.3087 -0.2176
  285loPI   C6A 4556   4.836  15.734   7.303  0.3501  0.3676  0.1660
  285loPI   C1B 4557   4.694  16.524   8.932  0.2974  0.0187  0.1063
  285loPI   C2B 4558   4.710  16.408   8.469 -0.0180  0.0772  0.2081
  285loPI   C3B 4559   4.614  16.321   7.993 -0.1734 -0.0987  0.0997
  285loPI   C4B 4560   4.527  16.437   7.591  0.2745 -0.1600  0.2077
  286loPI    C1 4561  15.929   3.643   9.610 -0.0512  0.0997  0.0025
  286loPI    C2 4562  15.803   3.512   9.966  0.0173  0.1015  0.0274
  286loPI    C3 4563  16.146   3.375   9.812 -0.1567 -0.1195 -0.1709
  286loPI   PO4 4564  15.932   3.900   9.626 -0.0274 -0.2282  0.1541
  286loPI   GL1 4565  15.937   4.051   9.246 -0.1612  0.2497 -0.0137
  286loPI   GL2 4566  15.982   4.374   9.284  0.0767  0.2025  0.3598
  286loPI   C1A 4567  15.993   4.111   8.738  0.0130  0.0158 -0.0399
  286loPI   C2A 4568  15.823   4.107   8.343  0.0057 -0.2033  0.0900
  286loPI   C3A 4569  15.736   4.451   8.060 -0.0293 -0.3830 -0.0325
  286loPI   C4A 4570  15.783   4.563   7.639 -0.1508 -0.1939  0.1386
  286loPI   C5A 4571  15.646   4.335   7.320 -0.0520  0.2614 -0.1315
  286loPI   C6A 4572  15.775   4.217   6.885  0.0202 -0.1077 -0.0112
  286loPI   C1B 4573  16.167   4.645   8.949 -0.0889 -0.2565  0.1721
  286loPI   C2B 4574  16.353   4.915   8.576  0.0748 -0.0089  0.2435
  286loPI   C3B 4575  16.731   5.032   8.357  0.0258 -0.1968  0.3494
  286loPI   C4B 4576  16.715   5.068   7.827 -0.2288  0.0977  0.1264
  287loPI    C1 4577   9.475   5.276  10.256  0.0983 -0.0140  0.1156
  287loPI    C2 4578   9.853   5.345  10.144  0.0151  0.0718 -0.1183
  287loPI    C3 4579   9.623   5.647  10.270 -0.0198  0.0437 -0.1143
  287loPI   PO4 4580   9.410   5.022  10.046 -0.2327 -0.1545  0.0691
  287loPI   GL1 4581   9.470   4.986   9.582 -0.0038 -0.0367 -0.0423
  287loPI   GL2 4582   9.704   5.029   9.329 -0.3384  0.0337 -0.0590
  287loPI   C1A 4583   9.227   4.789   9.253 -0.0675 -0.2993  0.1244
  287loPI   C2A 4584   8.908   4.738   8.898 -0.1095 -0.1194 -0.1522
  287loPI   C3A 4585   8.838   4.754   8.500  0.4741  0.1581 -0.0355
  287loPI   C4A 4586   8.858   4.889   8.087  0.1359 -0.1827 -0.7665
  287loPI   C5A 4587   8.914   5.168   7.691 -0.0723 -0.0560 -0.1064
  287loPI   C6A 4588   8.941   5.299   7.217  0.1590 -0.0785 -0.1538
  287loPI   C1B 4589   9.692   4.697   8.970  0.3043 -0.1177  0.1582
  287loPI   C2B 4590   9.546   4.520   8.589  0.0830  0.1070  0.0077
  287loPI   C3B 4591   9.332   4.514   8.111  0.1555  0.2526  0.2866
  287loPI   C4B 4592   9.078   4.615   7.787  0.1187  0.1822  0.1508
  288loPI    C1 4593   3.972  17.998  10.039 -0.0059  0.0571 -0.0751
  288loPI    C2 4594   3.713  17.737  10.195  0.2704 -0.1118  0.1105
  288loPI    C3 4595   4.079  17.773  10.352  0.3609  0.1245 -0.1471
  288loPI   PO4 4596   3.951  18.012   9.831  0.2686  0.0316 -0.2221
  288loPI   GL1 4597   4.168  18.192   9.501  0.4503  0.2528  0.1755
  288loPI   GL2 4598   4.489  18.134   9.486  0.2448 -0.0285 -0.0657
  288loPI   C1A 4599   4.197  18.019   9.057 -0.1866 -0.3651 -0.0315
  288loPI   C2A 4600   4.613  17.852   8.798  0.1674 -0.0779 -0.1491
  288loPI   C3A 4601   4.717  17.750   8.400 -0.1537 -0.1332 -0.1825
  288loPI   C4A 4602   4.687  17.806   7.948  0.0114 -0.1599 -0.2363
  288loPI   C5A 4603   4.760  17.930   7.511  0.1034  0.0627  0.0543
  288loPI   C6A 4604   4.536  17.929   7.074  0.0565 -0.1829 -0.1146
  288loPI   C1B 4605   4.727  17.794   9.310 -0.2805  0.1617  0.1897
  288loPI   C2B 4606   5.033  17.770   9.015 -0.2969 -0.1074 -0.1457
  288loPI   C3B 4607   5.202  17.663   8.599 -0.0022  0.1099 -0.3140
  288loPI   C4B 4608   5.177  17.642   8.168 -0.1226 -0.0332  0.0710
  289loPI    C1 4609   9.420  18.152   9.720 -0.1693  0.1776 -0.1329
  289loPI    C2 4610   9.192  18.478   9.757 -0.1130  0.2052 -0.0257
  289loPI    C3 4611   9.576  18.489   9.869 -0.0970  0.1172 -0.0709
  289loPI   PO4 4612   9.334  18.067   9.431 -0.0648  0.0332 -0.0419
  289loPI   GL1 4613   9.187  18.147   9.039  0.1414 -0.1062 -0.2077
  289loPI   GL2 4614   9.387  18.285   8.844  0.2598  0.1110 -0.3261
  289loPI   C1A 4615   9.024  17.740   8.830 -0.0441  0.2497  0.3358
  289loPI   C2A 4616   9.254  17.424   8.605 -0.0708  0.1658 -0.1392
  289loPI   C3A 4617   9.508  17.192   8.245 -0.0638  0.1283  0.0376
  289loPI   C4A 4618   9.645  16.841   8.129 -0.2235  0.1801 -0.1328
  289loPI   C5A 4619   9.638  16.469   8.068  0.1563 -0.1587  0.4252
  289loPI   C6A 4620   9.566  16.016   7.722 -0.4088  0.1386 -0.1318
  289loPI   C1B 4621   9.218  18.310   8.449  0.0709 -0.1675  0.1311
  289loPI   C2B 4622   9.400  18.476   8.135 -0.4551  0.4618  0.0231
  289loPI   C3B 4623   9.632  18.392   7.892 -0.0550  0.2418  0.0387
  289loPI   C4B 4624   9.802  18.414   7.449  0.5067  0.1932 -0.0291
  290loPI    C1 4625   7.179  16.238   9.876 -0.1038 -0.0133  0.1917
  290loPI    C2 4626   7.419  16.538   9.766  0.1235 -0.2323  0.0801
  290loPI    C3 4627   7.295  16.510  10.145  0.3135 -0.1434  0.1499
  290loPI   PO4 4628   6.996  16.187   9.623  0.2422  0.0785  0.0866
  290loPI   GL1 4629   6.765  15.892   9.487 -0.2243 -0.0094 -0.1074
  290loPI   GL2 4630   6.550  15.705   9.633 -0.0277  0.1544 -0.2816
  290loPI   C1A 4631   6.848  15.679   9.114  0.0301  0.1785 -0.2723
  290loPI   C2A 4632   7.013  15.741   8.694 -0.0674 -0.0213  0.0203
  290loPI   C3A 4633   7.114  15.988   8.524  0.1128  0.3562  0.3680
  290loPI   C4A 4634   7.183  15.949   8.125 -0.0922 -0.0033  0.3040
  290loPI   C5A 4635   7.246  16.100   7.720 -0.0781  0.1834 -0.1201
  290loPI   C6A 4636   7.500  15.902   7.418  0.0968 -0.0859 -0.2130
  290loPI   C1B 4637   6.389  15.552   9.320  0.0566  0.1584 -0.0175
  290loPI   C2B 4638   6.400  15.535   9.005  0.0060  0.0250  0.2465
  290loPI   C3B 4639   6.420  15.602   8.670 -0.2947  0.0526  0.3584
  290loPI   C4B 4640   6.277  15.613   8.199  0.1661 -0.3145 -0.1684
  291loPI    C1 4641  13.917  17.555   9.658  0.1154 -0.0797  0.0530
  291loPI    C2 4642  13.959  17.898   9.860 -0.0661 -0.0604  0.0597
  291loPI    C3 4643  14.096  17.555  10.016  0.0189 -0.0077  0.1017
  291loPI   PO4 4644  14.093  17.662   9.364  0.0579  0.0830 -0.2764
  291loPI   GL1 4645  14.064  17.898   8.954  0.2234  0.0323 -0.0462
  291loPI   GL2 4646  14.228  18.150   8.906 -0.0275  0.1923  0.0225
  291loPI   C1A 4647  13.990  17.883   8.396 -0.0992 -0.3775 -0.2830
  291loPI   C2A 4648  13.953  18.051   7.974  0.1126  0.1075 -0.1395
  291loPI   C3A 4649  13.701  17.947   7.577 -0.1629  0.1317 -0.1220
  291loPI   C4A 4650  13.765  17.984   7.202 -0.0959 -0.0796 -0.2789
  291loPI   C5A 4651  13.964  17.958   6.809 -0.0329  0.0855  0.2007
  291loPI   C6A 4652  14.081  18.165   6.519  0.1828  0.2596 -0.2376
  291loPI   C1B 4653  14.195  18.346   8.520 -0.2666 -0.4655 -0.0466
  291loPI   C2B 4654  14.167  18.636   8.199  0.2032  0.2511 -0.2743
  291loPI   C3B 4655  14.130  18.499   7.808  0.1722  0.3438  0.2045
  291loPI   C4B 4656  14.158  18.161   7.515 -0.0568  0.1228 -0.3019
  292loPI    C1 4657   8.953  16.012   9.671  0.2438  0.0939  0.1398
  292loPI    C2 4658   8.694  16.174   9.929  0.1702 -0.1066  0.1940
  292loPI    C3 4659   8.721  15.776   9.897  0.0887 -0.0844 -0.1980
  292loPI   PO4 4660   9.150  16.254   9.608  0.0138 -0.0654 -0.1925
  292loPI   GL1 4661   9.111  16.398   9.176 -0.2025 -0.1859  0.0300
  292loPI   GL2 4662   9.060  16.040   9.173 -0.3173  0.0742  0.2801
  292loPI   C1A 4663   9.373  16.707   9.014  0.0291  0.4583  0.0935
  292loPI   C2A 4664   9.617  16.985   8.817 -0.3232 -0.1687  0.1444
  292loPI   C3A 4665   9.905  17.101   8.507 -0.2671  0.0048 -0.0946
  292loPI   C4A 4666   9.981  17.162   8.065  0.0716 -0.2668 -0.3688
  292loPI   C5A 4667  10.306  17.060   7.771  0.1123  0.0109 -0.0893
  292loPI   C6A 4668  10.725  16.884   7.673  0.1126 -0.2062  0.1267
  292loPI   C1B 4669   9.021  16.098   8.704 -0.0412  0.0377 -0.0322
  292loPI   C2B 4670   8.653  16.140   8.407 -0.0311  0.0374 -0.5448
  292loPI   C3B 4671   8.480  16.454   8.103  0.0908 -0.0785 -0.0460
  292loPI   C4B 4672   8.725  16.708   7.806 -0.1776  0.1221  0.0945
  293loPI    C1 4673  16.287  17.585   9.177 -0.1536 -0.0972 -0.0220
  293loPI    C2 4674  16.609  17.514   9.405 -0.1324  0.0059 -0.0191
  293loPI    C3 4675  16.242  17.437   9.546 -0.1373  0.3577  0.1692
  293loPI   PO4 4676  16.418  17.485   8.876  0.2722 -0.4395  0.0073
  293loPI   GL1 4677  16.701  17.349   8.519  0.2232  0.1857 -0.0935
  293loPI   GL2 4678  16.891  17.694   8.541 -0.1592  0.0720 -0.2246
  293loPI   C1A 4679  16.677  17.209   8.047 -0.0132 -0.2313 -0.2289
  293loPI   C2A 4680  16.443  17.131   7.761  0.2196  0.0654  0.1531
  293loPI   C3A 4681  16.126  17.449   7.443 -0.0188  0.2163  0.0954
  293loPI   C4A 4682  15.868  17.613   7.182  0.0248  0.1471  0.0820
  293loPI   C5A 4683  15.758  17.906   6.889  0.0462  0.0445 -0.0118
  293loPI   C6A 4684  15.408  17.886   6.473 -0.1940  0.0688 -0.2765
  293loPI   C1B 4685  16.890  17.731   8.127  0.1469  0.1373  0.4501
  293loPI   C2B 4686  16.920  17.701   7.715 -0.2511 -0.2130  0.1641
  293loPI   C3B 4687  17.049  17.721   7.264  0.0384 -0.1145 -0.2672
  293loPI   C4B 4688  17.111  17.805   6.860 -0.0428  0.0521 -0.1752
  294loPI    C1 4689  13.992   6.575   9.963  0.0342  0.1527  0.0562
  294loPI    C2 4690  14.150   6.247  10.127  0.0541  0.2314  0.1965
  294loPI    C3 4691  13.958   6.512  10.356 -0.0454  0.2708  0.0686
  294loPI   PO4 4692  13.976   6.504   9.744 -0.2361  0.0127 -0.0732
  294loPI   GL1 4693  13.649   6.355   9.490  0.1214 -0.5364 -0.1527
  294loPI   GL2 4694  13.749   6.146   9.354  0.1465  0.1568  0.0265
  294loPI   C1A 4695  13.473   6.521   9.060 -0.2527  0.0328  0.1572
  294loPI   C2A 4696  13.526   6.596   8.631  0.1003 -0.1908  0.0727
  294loPI   C3A 4697  13.709   6.403   8.249 -0.0695  0.0246  0.1391
  294loPI   C4A 4698  14.024   6.188   7.982  0.0435 -0.3300  0.2264
  294loPI   C5A 4699  14.408   5.921   7.801 -0.0072  0.0633 -0.1361
  294loPI   C6A 4700  14.754   5.883   7.904  0.1525  0.0486 -0.3475
  294loPI   C1B 4701  14.110   6.047   9.174  0.1109 -0.2264 -0.0861
  294loPI   C2B 4702  14.455   6.101   8.938 -0.1998 -0.0204 -0.1815
  294loPI   C3B 4703  14.870   6.114   8.901 -0.1240  0.2629  0.2131
  294loPI   C4B 4704  15.183   6.061   8.543  0.2371  0.0160  0.0119
  295loPI    C1 4705  17.350   0.589   9.547 -0.1198 -0.3698  0.0930
  295loPI    C2 4706  17.031   0.528   9.781 -0.1470  0.0512  0.1727
  295loPI    C3 4707  17.357   0.707   9.929 -0.0078 -0.0509 -0.0049
  295loPI   PO4 4708  17.263   0.414   9.337  0.1607  0.3361  0.1271
  295loPI   GL1 4709  17.391   0.387   9.027 -0.1504  0.1982 -0.0236
  295loPI   GL2 4710  17.186   0.647   8.867  0.0788  0.2253 -0.0024
  295loPI   C1A 4711  17.703   0.399   8.673  0.0966  0.1059  0.1736
  295loPI   C2A 4712  17.703   0.389   8.229  0.1178 -0.3154 -0.1269
  295loPI   C3A 4713  17.446   0.344   7.916 -0.2986 -0.0730  0.1444
  295loPI   C4A 4714  17.476   0.278   7.473  0.0200  0.0056  0.3598
  295loPI   C5A 4715  17.338   0.105   7.062 -0.1434 -0.0882  0.0866
  295loPI   C6A 4716  17.109   0.091   6.728  0.1665  0.1759  0.0519
  295loPI   C1B 4717  17.276   0.416   8.485  0.0352 -0.2457  0.0494
  295loPI   C2B 4718  17.205   0.050   8.283  0.1490 -0.1209  0.1338
  295loPI   C3B 4719  17.156  -0.092   7.868  0.3799  0.0491 -0.4460
  295loPI   C4B 4720  17.005  -0.138   7.479  0.1032 -0.1405 -0.0438
  296loPI    C1 4721  10.374  12.480  10.283  0.1616 -0.1383  0.0479
  296loPI    C2 4722  10.497  12.364  10.645  0.1832  0.0291  0.0949
  296loPI    C3 4723  10.411  12.749  10.577  0.2648  0.0132 -0.1018
  296loPI   PO4 4724  10.582  12.395  10.087  0.1424  0.0394  0.1852
  296loPI   GL1 4725  10.364  12.340   9.683  0.1846  0.1600  0.0527
  296loPI   GL2 4726  10.552  12.020   9.778 -0.2085  0.3236 -0.0544
  296loPI   C1A 4727  10.452  12.402   9.214  0.0250  0.0629  0.2135
  296loPI   C2A 4728  10.385  12.583   8.789  0.2390  0.3282 -0.2301
  296loPI   C3A 4729  10.539  12.483   8.398 -0.0982 -0.0935 -0.1036
  296loPI   C4A 4730  10.590  12.509   7.856 -0.0535 -0.2193 -0.0186
  296loPI   C5A 4731  10.677  12.108   7.642 -0.0229 -0.1710  0.2046
  296loPI   C6A 4732  10.875  11.811   7.376  0.1858 -0.3183  0.1103
  296loPI   C1B 4733  10.211  11.741   9.554 -0.0504  0.0061 -0.0100
  296loPI   C2B 4734   9.986  11.803   9.184  0.1139 -0.0704  0.1716
  296loPI   C3B 4735   9.884  11.813   8.753  0.0236 -0.0096 -0.0866
  296loPI   C4B 4736  10.010  11.703   8.369  0.2336 -0.3088  0.1209
  297loPI    C1 4737  10.528   3.770   9.995  0.0950 -0.2629  0.1329
  297loPI    C2 4738  10.434   3.455  10.223  0.0900 -0.1995  0.2188
  297loPI    C3 4739  10.540   3.801  10.394 -0.0720 -0.1033  0.1270
  297loPI   PO4 4740  10.458   3.688   9.756  0.0310  0.0005  0.1291
  297loPI   GL1 4741  10.408   3.449   9.460  0.2555 -0.0550  0.0669
  297loPI   GL2 4742  10.355   3.268   9.091  0.1046 -0.1328  0.2393
  297loPI   C1A 4743  10.598   3.661   9.046  0.0997  0.1145 -0.0085
  297loPI   C2A 4744  10.745   3.619   8.739 -0.1070 -0.1648 -0.2321
  297loPI   C3A 4745  10.979   3.668   8.292  0.0194  0.5094  0.1657
  297loPI   C4A 4746  11.280   3.611   7.906  0.0680 -0.0129  0.0103
  297loPI   C5A 4747  11.519   3.492   7.600  0.3438  0.0845 -0.1929
  297loPI   C6A 4748  11.639   3.846   7.368 -0.0367  0.0410  0.2526
  297loPI   C1B 4749  10.331   3.334   8.668 -0.0319  0.0684  0.0607
  297loPI   C2B 4750  10.413   3.330   8.258 -0.1554  0.0742 -0.0874
  297loPI   C3B 4751  10.412   3.449   7.820 -0.0340  0.1623 -0.0416
  297loPI   C4B 4752  10.474   3.633   7.415  0.0140 -0.2414  0.1848
  298loPI    C1 4753  12.949  10.154   9.873  0.2623  0.2935 -0.0496
  298loPI    C2 4754  13.161   9.901  10.099  0.1080  0.1024 -0.1162
  298loPI    C3 4755  12.943  10.189  10.271 -0.1121 -0.1235 -0.0115
  298loPI   PO4 4756  12.808   9.934   9.702 -0.1781  0.1747  0.2078
  298loPI   GL1 4757  12.692   9.726   9.321  0.2759 -0.0881  0.1738
  298loPI   GL2 4758  12.759   9.453   9.100  0.1600  0.0824  0.0120
  298loPI   C1A 4759  12.545   9.885   8.909  0.2630 -0.0182 -0.0665
  298loPI   C2A 4760  12.158  10.005   8.641 -0.1780 -0.1788  0.0112
  298loPI   C3A 4761  12.266  10.046   8.180 -0.0169  0.1303  0.0402
  298loPI   C4A 4762  12.272  10.205   7.807 -0.0371 -0.1654  0.0106
  298loPI   C5A 4763  12.119  10.301   7.385 -0.2437  0.0903  0.2410
  298loPI   C6A 4764  12.122  10.130   6.940 -0.1186 -0.3050 -0.0678
  298loPI   C1B 4765  12.535   9.332   8.718  0.0883 -0.0253 -0.1624
  298loPI   C2B 4766  12.557   9.675   8.355 -0.2000  0.0632 -0.1858
  298loPI   C3B 4767  12.697   9.617   7.933  0.1178  0.1505 -0.0720
  298loPI   C4B 4768  12.918   9.923   7.628 -0.1975  0.1014 -0.0389
  299loPI    C1 4769   7.371   9.855  10.398 -0.3332 -0.0886 -0.0292
  299loPI    C2 4770   7.218  10.072  10.697  0.0369  0.1854 -0.0303
  299loPI    C3 4771   7.518   9.818  10.768 -0.0925  0.0068 -0.1132
  299loPI   PO4 4772   7.030   9.969  10.231 -0.0489 -0.2085 -0.0453
  299loPI   GL1 4773   6.717  10.096   9.882 -0.1723 -0.0977 -0.1488
  299loPI   GL2 4774   7.030  10.204   9.718  0.1200  0.1011  0.0089
  299loPI   C1A 4775   6.551  10.095   9.483 -0.0421 -0.0702  0.1228
  299loPI   C2A 4776   6.478  10.075   9.135  0.0002  0.1997 -0.3562
  299loPI   C3A 4777   6.484  10.102   8.639  0.1142  0.1425 -0.2496
  299loPI   C4A 4778   6.477  10.077   8.189  0.0764 -0.3127  0.0529
  299loPI   C5A 4779   6.237  10.337   8.040  0.0044  0.1218 -0.0966
  299loPI   C6A 4780   6.106  10.596   7.864  0.3014  0.2352 -0.0719
  299loPI   C1B 4781   6.927  10.272   9.197 -0.0542  0.0366 -0.0122
  299loPI   C2B 4782   7.027  10.155   8.812  0.1817 -0.1742 -0.0970
  299loPI   C3B 4783   6.910  10.268   8.332  0.1599 -0.0080  0.2319
  299loPI   C4B 4784   6.872  10.405   7.913 -0.1531 -0.2227  0.1661
  300loPI    C1 4785   9.759  10.083  10.240  0.1124  0.1770  0.1575
  300loPI    C2 4786   9.851   9.848  10.551  0.0868 -0.1234 -0.0580
  300loPI    C3 4787  10.134   9.953  10.288  0.0870  0.0468  0.0085
  300loPI   PO4 4788   9.549  10.017  10.074 -0.1691  0.1096 -0.1007
  300loPI   GL1 4789   9.346  10.062   9.574  0.3525 -0.3891  0.0949
  300loPI   GL2 4790   9.061  10.146   9.510 -0.2389 -0.2231 -0.2607
  300loPI   C1A 4791   9.503  10.301   9.203  0.2230 -0.3763  0.3129
  300loPI   C2A 4792   9.441  10.463   8.723 -0.0180 -0.0644  0.2058
  300loPI   C3A 4793   9.403  10.400   8.289 -0.1342 -0.2981  0.0961
  300loPI   C4A 4794   9.459  10.225   7.891 -0.0386 -0.1407  0.2284
  300loPI   C5A 4795   9.454  10.079   7.365 -0.0105  0.1058  0.0133
  300loPI   C6A 4796   9.294   9.898   7.022  0.1519 -0.0392  0.2498
  300loPI   C1B 4797   8.990   9.728   9.445 -0.0306  0.2600  0.0770
  300loPI   C2B 4798   8.748   9.340   9.283  0.0070  0.0516  0.1453
  300loPI   C3B 4799   8.691   9.197   8.929  0.2899 -0.0259  0.0293
  300loPI   C4B 4800   8.719   9.367   8.517 -0.2852  0.0795 -0.0840
  301loPI    C1 4801   1.360   8.814   9.590  0.0574  0.0126  0.0865
  301loPI    C2 4802   1.123   8.507   9.492  0.0980 -0.0232  0.1008
  301loPI    C3 4803   1.151   8.625   9.873 -0.1609  0.2001  0.0535
  301loPI   PO4 4804   1.319   9.017   9.418 -0.0859 -0.0263 -0.1133
  301loPI   GL1 4805   1.270   9.196   9.044  0.1738 -0.1093 -0.0573
  301loPI   GL2 4806   0.962   9.433   9.209 -0.1004  0.0305  0.2392
  301loPI   C1A 4807   1.368   9.093   8.596 -0.2247 -0.0195  0.1399
  301loPI   C2A 4808   1.291   8.944   8.161  0.0237 -0.1790 -0.1081
  301loPI   C3A 4809   1.179   8.954   7.711  0.0554  0.1625 -0.2276
  301loPI   C4A 4810   0.984   8.984   7.383 -0.0774  0.0576 -0.0158
  301loPI   C5A 4811   1.098   8.611   7.107  0.0479  0.1618 -0.5055
  301loPI   C6A 4812   1.248   8.461   6.718 -0.2532  0.3194 -0.0212
  301loPI   C1B 4813   1.023   9.453   8.693 -0.3379 -0.0295 -0.0675
  301loPI   C2B 4814   0.927   9.500   8.337  0.1056  0.1266 -0.1107
  301loPI   C3B 4815   0.940   9.349   7.911  0.1340  0.4262  0.0392
  301loPI   C4B 4816   1.127   9.441   7.446 -0.0402 -0.0233  0.3327
  302loPI    C1 4817  16.377  14.925   9.619 -0.0886 -0.0109 -0.1363
  302loPI    C2 4818  16.473  14.566   9.766 -0.0566 -0.0016 -0.1344
  302loPI    C3 4819  16.119  14.730   9.854  0.0536  0.1057  0.1199
  302loPI   PO4 4820  16.484  14.848   9.344 -0.1000  0.0282  0.1018
  302loPI   GL1 4821  16.499  14.703   9.004 -0.1540  0.3568 -0.0911
  302loPI   GL2 4822  16.238  14.521   8.878 -0.1543  0.0197 -0.1283
  302loPI   C1A 4823  16.699  14.899   8.605  0.0882 -0.0140 -0.1891
  302loPI   C2A 4824  16.722  14.866   8.225  0.1300  0.0386  0.1371
  302loPI   C3A 4825  16.840  14.787   7.796  0.3188  0.0697 -0.4066
  302loPI   C4A 4826  16.933  14.649   7.329  0.1183  0.1131  0.0158
  302loPI   C5A 4827  16.780  14.659   6.932  0.2824 -0.1446  0.0322
  302loPI   C6A 4828  16.545  14.786   6.668 -0.2995 -0.0845 -0.1943
  302loPI   C1B 4829  16.357  14.547   8.414  0.1556 -0.0699 -0.4477
  302loPI   C2B 4830  16.599  14.442   8.022 -0.0534  0.0125 -0.1317
  302loPI   C3B 4831  16.877  14.230   7.852  0.3165  0.3257 -0.0064
  302loPI   C4B 4832  17.023  13.991   7.498  0.2272  0.0915  0.0436
  303loPI    C1 4833   3.501  15.484   9.912 -0.0814 -0.1011 -0.2780
  303loPI    C2 4834   3.787  15.217   9.825 -0.1581 -0.2563 -0.0627
  303loPI    C3 4835   3.629  15.229  10.192 -0.1078  0.1333 -0.0493
  303loPI   PO4 4836   3.292  15.472   9.720 -0.2400  0.3036  0.1721
  303loPI   GL1 4837   3.196  15.587   9.338  0.1237  0.2935 -0.3283
  303loPI   GL2 4838   3.392  15.808   9.109  0.3067  0.2728 -0.2620
  303loPI   C1A 4839   2.931  15.686   8.935 -0.3183 -0.2680 -0.0549
  303loPI   C2A 4840   2.953  15.837   8.483  0.4272  0.0411  0.1790
  303loPI   C3A 4841   2.926  15.997   8.130 -0.1497 -0.0153  0.0222
  303loPI   C4A 4842   3.114  16.012   7.763 -0.1359  0.0555 -0.1096
  303loPI   C5A 4843   3.554  16.004   7.713 -0.0010 -0.1373 -0.1218
  303loPI   C6A 4844   3.887  15.766   7.910  0.0331 -0.2331 -0.1158
  303loPI   C1B 4845   3.538  15.761   8.741 -0.0364 -0.0962  0.2306
  303loPI   C2B 4846   3.441  15.732   8.329  0.1755  0.1445 -0.2050
  303loPI   C3B 4847   3.385  15.573   7.988 -0.2599 -0.1319 -0.1606
  303loPI   C4B 4848   3.642  15.365   7.707 -0.1206  0.0612  0.1564
  304loPI    C1 4849  18.301   6.579  10.122  0.0276  0.0197 -0.0035
  304loPI    C2 4850  18.314   6.419  10.489 -0.2966 -0.2661 -0.1103
  304loPI    C3 4851  18.195   6.798  10.439 -0.1486 -0.1920  0.0867
  304loPI   PO4 4852  18.471   6.278   9.918 -0.0536 -0.1481 -0.1144
  304loPI   GL1 4853  18.451   6.160   9.620 -0.2135  0.0720 -0.0487
  304loPI   GL2 4854  18.638   5.884   9.553  0.3843  0.3820 -0.1025
  304loPI   C1A 4855  18.096   6.256   9.305  0.3237 -0.1359 -0.0273
  304loPI   C2A 4856  17.988   6.264   8.844  0.1580  0.4851  0.2106
  304loPI   C3A 4857  17.954   6.287   8.409 -0.1695  0.0218 -0.2487
  304loPI   C4A 4858  17.961   6.274   7.926 -0.1865  0.0124 -0.0679
  304loPI   C5A 4859  17.852   6.400   7.599 -0.0966 -0.2222 -0.1651
  304loPI   C6A 4860  17.735   6.705   7.389  0.2275  0.1105 -0.0926
  304loPI   C1B 4861  18.615   6.041   9.148 -0.3269 -0.0260  0.1574
  304loPI   C2B 4862  18.436   6.122   8.724 -0.2433  0.2160 -0.0932
  304loPI   C3B 4863  18.305   5.898   8.359 -0.1724 -0.2736  0.0899
  304loPI   C4B 4864  18.296   5.672   8.030 -0.0599  0.2740  0.1746
  305loPI    C1 4865   1.486  16.211   9.580 -0.1405 -0.0292 -0.0502
  305loPI    C2 4866   1.370  16.024   9.914 -0.0224 -0.0925 -0.0443
  305loPI    C3 4867   1.670  16.289   9.926 -0.1930  0.1037 -0.0512
  305loPI   PO4 4868   1.297  16.120   9.411 -0.0648 -0.0785 -0.0763
  305loPI   GL1 4869   1.236  15.860   9.004  0.0119 -0.0515  0.2460
  305loPI   GL2 4870   1.565  16.009   9.005 -0.1345 -0.1396 -0.2061
  305loPI   C1A 4871   1.473  15.653   8.569 -0.1038  0.1602  0.4841
  305loPI   C2A 4872   1.586  15.337   8.156  0.0642 -0.0849 -0.0588
  305loPI   C3A 4873   1.681  14.940   7.850  0.1183 -0.0840 -0.1517
  305loPI   C4A 4874   1.864  14.598   7.613 -0.0831  0.3220 -0.1232
  305loPI   C5A 4875   1.928  14.073   7.720 -0.0986 -0.0585 -0.1871
  305loPI   C6A 4876   2.027  13.736   7.511  0.1401 -0.1787 -0.1077
  305loPI   C1B 4877   1.431  16.262   8.634  0.1414  0.1800  0.0362
  305loPI   C2B 4878   1.282  16.298   8.287  0.0323 -0.2206 -0.4621
  305loPI   C3B 4879   1.432  16.311   7.881  0.1929  0.0204  0.2506
  305loPI   C4B 4880   1.295  16.412   7.491  0.1194 -0.0467  0.1370
  306loPI    C1 4881   3.091  15.958   9.786 -0.1194  0.0766 -0.0973
  306loPI    C2 4882   3.021  16.244  10.057 -0.1252  0.0605 -0.0819
  306loPI    C3 4883   3.090  15.868  10.175  0.1725  0.1116 -0.0862
  306loPI   PO4 4884   2.852  15.966   9.641  0.1819 -0.1221  0.1129
  306loPI   GL1 4885   2.965  16.087   9.309 -0.1305  0.0027 -0.1571
  306loPI   GL2 4886   2.659  16.310   9.288 -0.0693 -0.2850  0.0906
  306loPI   C1A 4887   2.939  16.192   8.900 -0.3207  0.0799  0.1008
  306loPI   C2A 4888   2.875  16.393   8.559 -0.0754  0.1298  0.1733
  306loPI   C3A 4889   2.916  16.501   8.161 -0.0029  0.0874 -0.2509
  306loPI   C4A 4890   2.821  16.483   7.778 -0.0768 -0.3848 -0.2111
  306loPI   C5A 4891   2.764  16.286   7.335 -0.1573 -0.0890  0.0936
  306loPI   C6A 4892   3.110  16.065   7.275  0.0198 -0.0298  0.2104
  306loPI   C1B 4893   2.518  16.526   8.913  0.3494 -0.1624  0.0244
  306loPI   C2B 4894   2.380  16.398   8.435  0.0616 -0.0292  0.0256
  306loPI   C3B 4895   2.450  16.165   8.015 -0.0186 -0.1298  0.2541
  306loPI   C4B 4896   2.590  15.845   7.684  0.1126 -0.0481  0.2903
  307loPI    C1 4897  12.112  10.741   9.887  0.2040 -0.1307  0.1005
  307loPI    C2 4898  12.026  10.932  10.227  0.1081  0.0819 -0.0409
  307loPI    C3 4899  12.404  10.831  10.145  0.1258 -0.0097  0.1473
  307loPI   PO4 4900  11.994  10.916   9.728  0.2018 -0.0528  0.1577
  307loPI   GL1 4901  11.900  11.001   9.302 -0.2499  0.0106 -0.2377
  307loPI   GL2 4902  11.976  10.766   9.048  0.0050  0.2844 -0.1448
  307loPI   C1A 4903  11.620  11.139   8.904  0.0749 -0.1661  0.0031
  307loPI   C2A 4904  11.181  11.090   8.562  0.2208 -0.0897  0.2856
  307loPI   C3A 4905  10.994  11.039   8.215 -0.1535 -0.2403 -0.1637
  307loPI   C4A 4906  10.571  10.899   8.060  0.4198  0.3272 -0.1918
  307loPI   C5A 4907  10.341  10.580   7.733  0.0808 -0.0761 -0.1977
  307loPI   C6A 4908  10.169  10.690   7.290 -0.1150  0.3418 -0.1286
  307loPI   C1B 4909  11.899  10.718   8.699 -0.1203  0.1736  0.1364
  307loPI   C2B 4910  11.970  10.849   8.259  0.1008 -0.1504  0.2369
  307loPI   C3B 4911  11.608  11.026   7.962  0.0312 -0.5776  0.1265
  307loPI   C4B 4912  11.674  11.432   7.776 -0.0663  0.0999 -0.0488
  308loPI    C1 4913   2.465  14.699   9.907  0.2890 -0.0601  0.3651
  308loPI    C2 4914   2.350  14.914  10.224 -0.0052  0.1147  0.1447
  308loPI    C3 4915   2.078  14.789   9.958  0.2223 -0.1428  0.0293
  308loPI   PO4 4916   2.749  14.882   9.791 -0.0991 -0.2954 -0.1520
  308loPI   GL1 4917   2.995  15.045   9.412 -0.0832  0.0267  0.0074
  308loPI   GL2 4918   2.665  15.175   9.270  0.0082 -0.1022  0.1045
  308loPI   C1A 4919   3.136  15.185   8.969  0.0014 -0.0848 -0.0349
  308loPI   C2A 4920   2.929  15.309   8.593  0.1164  0.2051  0.1573
  308loPI   C3A 4921   2.929  15.355   8.209  0.0401  0.2357 -0.0415
  308loPI   C4A 4922   2.907  15.501   7.818  0.0029  0.0979  0.3212
  308loPI   C5A 4923   3.285  15.642   7.503 -0.2619  0.2261  0.3703
  308loPI   C6A 4924   3.601  15.727   7.317  0.1317 -0.1954 -0.1456
  308loPI   C1B 4925   2.619  14.982   8.997 -0.0796 -0.0834 -0.1323
  308loPI   C2B 4926   2.910  14.835   8.679  0.2127 -0.0185 -0.0456
  308loPI   C3B 4927   3.069  14.722   8.265  0.1224  0.0033  0.0909
  308loPI   C4B 4928   3.565  14.628   8.215  0.2440  0.0286 -0.2372
  309loPI    C1 4929   8.128   1.388   9.407  0.2066  0.2231 -0.2440
  309loPI    C2 4930   7.877   1.658   9.561  0.1183  0.0742 -0.1233
  309loPI    C3 4931   8.031   1.713   9.196 -0.0047  0.2197 -0.1544
  309loPI   PO4 4932   8.075   1.112   9.388 -0.1174 -0.1626 -0.0259
  309loPI   GL1 4933   8.105   0.784   9.140  0.0636  0.2306  0.1194
  309loPI   GL2 4934   7.845   0.783   9.042  0.1217  0.1511  0.0319
  309loPI   C1A 4935   8.343   0.913   8.716  0.2114  0.2039 -0.0867
  309loPI   C2A 4936   8.489   0.763   8.339  0.1644  0.1519 -0.1999
  309loPI   C3A 4937   8.358   0.731   7.806  0.0119  0.0061  0.0790
  309loPI   C4A 4938   8.351   0.596   7.425  0.1040  0.0051 -0.1051
  309loPI   C5A 4939   8.553   0.278   7.237 -0.3406  0.1119 -0.1537
  309loPI   C6A 4940   8.988   0.141   7.379  0.0901 -0.1851  0.0136
  309loPI   C1B 4941   7.788   1.023   8.614  0.2061 -0.0005  0.0242
  309loPI   C2B 4942   7.618   1.252   8.354  0.1126 -0.3522 -0.0375
  309loPI   C3B 4943   7.398   1.124   7.933 -0.0126 -0.0561 -0.2112
  309loPI   C4B 4944   7.161   0.877   7.530 -0.1192  0.2554  0.5724
  310loPI    C1 4945   3.584  10.338  10.258 -0.1382  0.3197 -0.0833
  310loPI    C2 4946   3.326  10.418  10.553 -0.1318 -0.1260  0.0504
  310loPI    C3 4947   3.621  10.154  10.612 -0.0703 -0.1464 -0.3245
  310loPI   PO4 4948   3.680  10.491  10.111 -0.1860 -0.0267  0.0480
  310loPI   GL1 4949   3.876  10.329   9.769 -0.0419  0.1258 -0.0324
  310loPI   GL2 4950   3.858  10.651   9.670  0.1561 -0.2726  0.1084
  310loPI   C1A 4951   3.949  10.284   9.334  0.1135 -0.1367  0.0086
  310loPI   C2A 4952   3.950  10.093   8.945  0.2994 -0.1136 -0.2427
  310loPI   C3A 4953   3.978  10.191   8.567 -0.0064  0.2394 -0.3276
  310loPI   C4A 4954   3.948  10.031   8.158 -0.0309 -0.2911 -0.0357
  310loPI   C5A 4955   3.791   9.943   7.752 -0.0249  0.1963 -0.0570
  310loPI   C6A 4956   3.866   9.455   7.583  0.0418  0.3213 -0.0651
  310loPI   C1B 4957   3.902  10.921   9.257 -0.0066  0.0960 -0.0683
  310loPI   C2B 4958   3.867  11.100   8.863  0.3660  0.3345  0.4372
  310loPI   C3B 4959   3.860  11.122   8.374  0.0585  0.1162 -0.6239
  310loPI   C4B 4960   3.657  11.060   7.956  0.1382  0.0228  0.0614
  311loPI    C1 4961   8.201  14.207  10.202  0.2621 -0.1760 -0.1322
  311loPI    C2 4962   8.427  14.245   9.874  0.2845 -0.1787 -0.1171
  311loPI    C3 4963   8.350  14.565  10.101  0.0208 -0.1173 -0.2884
  311loPI   PO4 4964   8.043  13.928  10.015  0.1047  0.0265 -0.0349
  311loPI   GL1 4965   7.847  13.709   9.636  0.1300  0.1225 -0.0043
  311loPI   GL2 4966   7.970  13.426   9.541 -0.0993 -0.0776 -0.3213
  311loPI   C1A 4967   7.571  13.853   9.247 -0.0969 -0.0236  0.2697
  311loPI   C2A 4968   7.421  13.896   8.839  0.1083 -0.0323 -0.1583
  311loPI   C3A 4969   7.366  14.132   8.490  0.0152 -0.2040  0.2280
  311loPI   C4A 4970   7.283  14.451   8.243  0.1003 -0.0572 -0.1008
  311loPI   C5A 4971   7.507  14.598   7.901  0.1344  0.0956 -0.1014
  311loPI   C6A 4972   7.885  14.648   7.771 -0.1391  0.1314 -0.0269
  311loPI   C1B 4973   8.010  13.530   9.177  0.1685  0.2045 -0.0540
  311loPI   C2B 4974   7.850  13.565   8.671  0.1457  0.0393 -0.1800
  311loPI   C3B 4975   7.635  13.765   8.340 -0.3613 -0.1525  0.1580
  311loPI   C4B 4976   7.514  14.042   7.982  0.0262 -0.0302 -0.2578
  312loPI    C1 4977   4.161   4.837  10.007 -0.1197  0.1538  0.0120
  312loPI    C2 4978   4.449   5.115   9.987  0.0837 -0.0338  0.2680
  312loPI    C3 4979   4.352   4.951  10.339 -0.4210  0.1097  0.2042
  312loPI   PO4 4980   4.235   4.762   9.672  0.0865 -0.3359  0.2023
  312loPI   GL1 4981   4.378   4.684   9.273  0.0500 -0.1350  0.0870
  312loPI   GL2 4982   4.051   4.672   9.228 -0.1056 -0.0127 -0.1798
  312loPI   C1A 4983   4.638   4.835   8.934  0.2147  0.0827 -0.1046
  312loPI   C2A 4984   5.019   4.803   8.745 -0.0257  0.0242  0.0093
  312loPI   C3A 4985   5.124   4.343   8.668  0.0307  0.1333 -0.0489
  312loPI   C4A 4986   5.617   4.359   8.572 -0.0311 -0.0033  0.2004
  312loPI   C5A 4987   5.839   4.453   8.132  0.3313  0.1584 -0.1112
  312loPI   C6A 4988   5.856   4.309   7.711  0.0288  0.1283 -0.0448
  312loPI   C1B 4989   4.099   4.582   8.776 -0.2004 -0.3789  0.2050
  312loPI   C2B 4990   4.033   4.494   8.388 -0.0022 -0.2089  0.0318
  312loPI   C3B 4991   3.709   4.473   8.144  0.0508  0.0581  0.1994
  312loPI   C4B 4992   3.643   4.551   7.753 -0.1498 -0.1574 -0.1480
  313loPI    C1 4993  12.963   3.494   9.577 -0.0029 -0.0715  0.0624
  313loPI    C2 4994  13.235   3.627   9.839 -0.0060  0.0704 -0.0053
  313loPI    C3 4995  12.846   3.645   9.929  0.0013 -0.0368  0.0490
  313loPI   PO4 4996  13.099   3.628   9.328  0.1155 -0.3830 -0.2792
  313loPI   GL1 4997  12.934   3.870   9.049 -0.0896  0.2721 -0.0004
  313loPI   GL2 4998  12.926   4.153   9.059 -0.3155  0.3212  0.2868
  313loPI   C1A 4999  12.758   3.556   8.743 -0.1036 -0.1348  0.3018
  313loPI   C2A 5000  12.462   3.788   8.381 -0.0623  0.4971  0.0844
  313loPI   C3A 5001  12.525   3.841   7.990 -0.3910  0.3529 -0.1745
  313loPI   C4A 5002  12.585   4.129   7.648  0.0685  0.0761  0.1510
  313loPI   C5A 5003  12.414   4.100   7.251  0.2902  0.4074 -0.0439
  313loPI   C6A 5004  12.484   4.156   6.860  0.0075 -0.0164  0.1681
  313loPI   C1B 5005  12.837   4.231   8.662  0.1665  0.3178 -0.4260
  313loPI   C2B 5006  12.755   4.222   8.234  0.2899 -0.0083  0.2357
  313loPI   C3B 5007  13.013   4.102   7.921  0.0827  0.2082  0.0176
  313loPI   C4B 5008  13.229   4.156   7.585  0.3138 -0.2028  0.0088
  314loPI    C1 5009   1.683   5.624   9.874  0.2864  0.2299 -0.3217
  314loPI    C2 5010   2.034   5.638  10.064  0.1036 -0.1257  0.0582
  314loPI    C3 5011   1.694   5.650  10.273 -0.1094 -0.0990 -0.2832
  314loPI   PO4 5012   1.726   5.876   9.724  0.3287  0.1101  0.0822
  314loPI   GL1 5013   1.546   5.816   9.289  0.0291 -0.1911  0.0511
  314loPI   GL2 5014   1.160   5.756   9.144  0.1466 -0.3993  0.0632
  314loPI   C1A 5015   1.651   5.670   8.882  0.1577 -0.0280  0.2071
  314loPI   C2A 5016   1.545   5.654   8.497  0.4779 -0.0009  0.2288
  314loPI   C3A 5017   1.677   5.759   8.097  0.0743 -0.4583  0.0418
  314loPI   C4A 5018   1.978   5.990   7.890  0.4780 -0.2330 -0.1083
  314loPI   C5A 5019   2.374   6.176   7.561  0.1611 -0.1084 -0.0845
  314loPI   C6A 5020   2.604   6.123   7.126 -0.1084  0.2078  0.1692
  314loPI   C1B 5021   1.137   5.803   8.733 -0.0965  0.0753  0.3220
  314loPI   C2B 5022   1.219   5.980   8.336 -0.1150  0.1664  0.2547
  314loPI   C3B 5023   1.083   6.147   7.910 -0.4267  0.0549 -0.0792
  314loPI   C4B 5024   1.097   6.285   7.487  0.0616 -0.0413 -0.1469
  315loPI    C1 5025  18.966  11.036   9.966 -0.0416 -0.0746 -0.0742
  315loPI    C2 5026  19.112  11.381   9.825 -0.2338  0.0273 -0.0271
  315loPI    C3 5027  19.213  11.256  10.191 -0.2475  0.0866 -0.0030
  315loPI   PO4 5028  18.913  10.876   9.714 -0.2424 -0.2424  0.1842
  315loPI   GL1 5029  18.845  10.858   9.220 -0.2511 -0.4231 -0.2931
  315loPI   GL2 5030  19.132  10.594   9.132 -0.0001  0.0108 -0.2455
  315loPI   C1A 5031  19.237  11.050   8.978  0.2228 -0.3400 -0.1797
  315loPI   C2A 5032  19.064  11.136   8.607 -0.1896 -0.0742  0.0274
  315loPI   C3A 5033  19.056  10.854   8.306 -0.2181 -0.2046  0.0081
  315loPI   C4A 5034  19.302  10.831   7.932  0.0226 -0.0190 -0.0671
  315loPI   C5A 5035  19.551  10.825   7.545 -0.1628 -0.0790  0.0055
  315loPI   C6A 5036  20.022  10.848   7.518  0.1680 -0.6112 -0.3434
  315loPI   C1B 5037  18.891  10.656   8.788  0.1180  0.1347  0.2307
  315loPI   C2B 5038  18.545  10.916   8.504  0.0372  0.0512 -0.2799
  315loPI   C3B 5039  18.160  11.089   8.260 -0.4399 -0.2147  0.0725
  315loPI   C4B 5040  17.821  10.982   7.975 -0.0962 -0.3163  0.0065
  316loPI    C1 5041  19.470  15.096   9.309 -0.2542 -0.0541  0.0355
  316loPI    C2 5042  19.630  14.894   9.615 -0.0256  0.0297 -0.0271
  316loPI    C3 5043  19.277  15.076   9.659  0.1207  0.2510  0.2677
  316loPI   PO4 5044  19.733  15.074   9.184 -0.1584  0.0214 -0.1821
  316loPI   GL1 5045  20.029  15.172   8.833  0.1929  0.2381 -0.1937
  316loPI   GL2 5046  20.012  15.380   8.791 -0.0162  0.1674  0.2997
  316loPI   C1A 5047  20.230  15.041   8.477 -0.0895  0.0432 -0.3095
  316loPI   C2A 5048  20.160  14.952   8.063 -0.0827 -0.1927  0.2051
  316loPI   C3A 5049  20.142  15.138   7.608 -0.0020 -0.2184  0.0814
  316loPI   C4A 5050  20.297  15.043   7.245  0.3241  0.0875  0.1363
  316loPI   C5A 5051  20.215  15.045   6.804  0.1232 -0.1207 -0.2463
  316loPI   C6A 5052  20.213  15.141   6.377  0.0376  0.1172  0.1402
  316loPI   C1B 5053  19.877  15.298   8.364  0.0337 -0.0413 -0.0434
  316loPI   C2B 5054  19.766  15.243   7.903  0.0199  0.0154 -0.1594
  316loPI   C3B 5055  19.497  15.062   7.505  0.3855 -0.1769  0.0442
  316loPI   C4B 5056  19.156  14.789   7.423  0.1704  0.3461 -0.0937
  317loPI    C1 5057   0.721  11.053  10.202  0.0780  0.0038  0.2979
  317loPI    C2 5058   0.607  10.670  10.231 -0.2310  0.0425 -0.2550
  317loPI    C3 5059   0.575  10.913  10.548 -0.1474 -0.3532  0.0662
  317loPI   PO4 5060   0.666  11.065   9.938 -0.1835 -0.1660  0.0888
  317loPI   GL1 5061   0.724  10.955   9.512 -0.0240  0.0066 -0.2548
  317loPI   GL2 5062   0.740  11.215   9.403 -0.1012  0.1096  0.2704
  317loPI   C1A 5063   0.558  10.842   9.168  0.1325  0.4057 -0.3803
  317loPI   C2A 5064   0.610  10.869   8.702 -0.2182 -0.3793  0.3139
  317loPI   C3A 5065   0.705  10.714   8.265 -0.0520 -0.0348 -0.1023
  317loPI   C4A 5066   0.576  10.440   7.921  0.2066 -0.2632  0.2413
  317loPI   C5A 5067   0.800  10.281   7.518 -0.1984 -0.0490 -0.4397
  317loPI   C6A 5068   1.070   9.938   7.300 -0.0121 -0.0996  0.2753
  317loPI   C1B 5069   0.681  11.347   8.962 -0.0099  0.0159  0.0579
  317loPI   C2B 5070   0.593  11.376   8.484 -0.2535  0.0720  0.0534
  317loPI   C3B 5071   0.287  11.377   8.136 -0.3146  0.0427 -0.2111
  317loPI   C4B 5072   0.243  11.628   7.778 -0.0660 -0.4806 -0.0551
  318loPI    C1 5073  10.740  16.355   9.881  0.1131  0.1957  0.2456
  318loPI    C2 5074  10.793  16.222  10.254 -0.1352  0.2712  0.3095
  318loPI    C3 5075  10.423  16.270  10.110 -0.0413 -0.0202 -0.0416
  318loPI   PO4 5076  10.931  16.172   9.772 -0.0901  0.3910  0.0373
  318loPI   GL1 5077  10.983  15.869   9.530  0.0915 -0.1011 -0.0453
  318loPI   GL2 5078  10.837  15.548   9.480 -0.0067 -0.2291 -0.0237
  318loPI   C1A 5079  10.991  15.979   9.170 -0.1710  0.1904  0.0516
  318loPI   C2A 5080  10.904  15.810   8.759 -0.1979  0.0071 -0.0766
  318loPI   C3A 5081  10.837  15.597   8.370  0.1681  0.0780 -0.1788
  318loPI   C4A 5082  10.928  15.702   7.999  0.0113  0.0273 -0.0330
  318loPI   C5A 5083  10.873  15.571   7.633 -0.0155  0.2570 -0.1248
  318loPI   C6A 5084  11.100  15.346   7.342  0.0460 -0.1345 -0.1306
  318loPI   C1B 5085  10.840  15.500   9.126 -0.0620 -0.0931 -0.1861
  318loPI   C2B 5086  10.760  15.269   8.732 -0.1953 -0.1314  0.0850
  318loPI   C3B 5087  10.740  14.999   8.390 -0.2105 -0.0185 -0.0041
  318loPI   C4B 5088  10.583  14.859   8.013 -0.1725 -0.2559  0.2379
  319loPI    C1 5089  19.001  13.681   9.563  0.3566  0.0213 -0.2682
  319loPI    C2 5090  18.858  13.656   9.190  0.1354  0.0462 -0.1861
  319loPI    C3 5091  19.043  13.342   9.354 -0.0056 -0.0565 -0.2215
  319loPI   PO4 5092  19.209  13.884   9.495  0.2215 -0.1505 -0.3195
  319loPI   GL1 5093  19.339  14.145   9.132 -0.0487  0.0289 -0.3108
  319loPI   GL2 5094  19.019  14.114   9.044 -0.2000  0.1299 -0.1572
  319loPI   C1A 5095  19.413  13.985   8.697  0.2945 -0.2016  0.0046
  319loPI   C2A 5096  19.472  13.816   8.323 -0.3496  0.0506  0.1006
  319loPI   C3A 5097  19.527  13.621   7.934 -0.5032 -0.0110  0.2035
  319loPI   C4A 5098  19.905  13.571   7.653  0.3384 -0.1180 -0.1050
  319loPI   C5A 5099  20.303  13.725   7.620 -0.2206 -0.2457  0.1359
  319loPI   C6A 5100  20.722  13.892   7.382  0.0046  0.0614  0.1194
  319loPI   C1B 5101  18.960  14.224   8.633  0.0420  0.1485  0.0402
  319loPI   C2B 5102  19.027  14.115   8.173  0.0177 -0.1180 -0.1180
  319loPI   C3B 5103  19.140  13.990   7.732  0.3937  0.1487 -0.0570
  319loPI   C4B 5104  19.088  14.144   7.420  0.0968 -0.0023  0.0535
  320loPI    C1 5105   7.898  12.517   9.824  0.0210  0.0116 -0.1246
  320loPI    C2 5106   7.842  12.397  10.201  0.2335 -0.1791 -0.1513
  320loPI    C3 5107   8.000  12.757  10.127  0.1200 -0.1101 -0.0603
  320loPI   PO4 5108   7.616  12.522   9.752 -0.1878 -0.2826 -0.1724
  320loPI   GL1 5109   7.318  12.976   9.643 -0.1110 -0.0959 -0.1407
  320loPI   GL2 5110   7.017  13.082   9.608  0.0593  0.1640  0.2639
  320loPI   C1A 5111   7.144  12.789   9.221  0.0670  0.3370  0.0572
  320loPI   C2A 5112   7.292  12.597   8.951 -0.0642 -0.1987 -0.1573
  320loPI   C3A 5113   7.579  12.270   8.684  0.0850 -0.3220 -0.1229
  320loPI   C4A 5114   7.527  11.946   8.249 -0.2356 -0.0115  0.0554
  320loPI   C5A 5115   7.170  11.972   7.942  0.2284 -0.1630 -0.0150
  320loPI   C6A 5116   7.187  12.135   7.562 -0.1968 -0.2937  0.1155
  320loPI   C1B 5117   6.940  13.221   9.214  0.1731  0.1710  0.0697
  320loPI   C2B 5118   7.010  13.049   8.797 -0.0877  0.0604 -0.0344
  320loPI   C3B 5119   7.219  12.802   8.475 -0.1807 -0.1132  0.1012
  320loPI   C4B 5120   7.539  12.672   8.416 -0.3621 -0.0281 -0.0666
  321loPI    C1 5121   6.300   8.318  10.231 -0.1625  0.4158 -0.0155
  321loPI    C2 5122   6.588   8.473  10.461  0.0063  0.0422  0.0317
  321loPI    C3 5123   6.379   8.157  10.588 -0.1721  0.0802 -0.1613
  321loPI   PO4 5124   6.282   8.503  10.004 -0.0710  0.2828 -0.1507
  321loPI   GL1 5125   6.174   8.448   9.660  0.0917 -0.0713 -0.1711
  321loPI   GL2 5126   6.554   8.538   9.563  0.1572  0.3325  0.2986
  321loPI   C1A 5127   6.206   8.535   9.214 -0.0756  0.1926  0.3896
  321loPI   C2A 5128   6.081   8.303   8.795 -0.2869 -0.1435 -0.3361
  321loPI   C3A 5129   6.158   8.210   8.418 -0.0588 -0.1532 -0.0096
  321loPI   C4A 5130   6.021   8.254   7.942 -0.1120 -0.1140  0.0257
  321loPI   C5A 5131   6.004   8.705   7.683 -0.0006 -0.3406 -0.0979
  321loPI   C6A 5132   6.213   9.026   7.763 -0.1315 -0.3326  0.1731
  321loPI   C1B 5133   6.730   8.744   9.189  0.1548  0.2663 -0.0731
  321loPI   C2B 5134   6.984   8.699   8.765 -0.0197 -0.3498  0.0961
  321loPI   C3B 5135   7.228   8.573   8.521  0.2267  0.2288 -0.3011
  321loPI   C4B 5136   7.565   8.628   8.370 -0.1737  0.0187  0.1768
  322loPI    C1 5137   3.028   1.644   9.450 -0.0708  0.1172 -0.0405
  322loPI    C2 5138   2.641   1.645   9.350 -0.2081 -0.1439  0.4553
  322loPI    C3 5139   2.780   1.910   9.615  0.0509  0.2295 -0.0362
  322loPI   PO4 5140   3.186   1.573   9.229 -0.1314  0.1600  0.2152
  322loPI   GL1 5141   2.937   1.664   8.906 -0.0538  0.2175  0.0137
  322loPI   GL2 5142   2.857   1.888   8.658  0.1674  0.0029  0.0091
  322loPI   C1A 5143   3.073   1.429   8.605  0.2056 -0.2949  0.0990
  322loPI   C2A 5144   3.111   1.189   8.208 -0.1096  0.0311 -0.1233
  322loPI   C3A 5145   3.562   1.138   7.932  0.1263 -0.0890 -0.0445
  322loPI   C4A 5146   3.601   1.376   7.522  0.1704  0.0810  0.0248
  322loPI   C5A 5147   3.492   1.163   7.153 -0.0068  0.0981  0.0754
  322loPI   C6A 5148   3.483   1.021   6.746 -0.1051  0.0279 -0.0998
  322loPI   C1B 5149   2.954   1.871   8.221  0.0653  0.2206 -0.0257
  322loPI   C2B 5150   2.950   1.936   7.764  0.0993 -0.3205 -0.3198
  322loPI   C3B 5151   2.917   2.023   7.347  0.2072  0.2278 -0.2026
  322loPI   C4B 5152   2.937   1.986   7.009 -0.0844  0.5009 -0.0586
  323loPI    C1 5153   6.242   5.064  10.182 -0.1566 -0.0295  0.0461
  323loPI    C2 5154   6.476   5.111  10.503 -0.0462  0.0709 -0.0481
  323loPI    C3 5155   6.078   5.103  10.545 -0.0242 -0.2179  0.1276
  323loPI   PO4 5156   6.394   5.113  10.004  0.1535  0.0740  0.2782
  323loPI   GL1 5157   6.474   5.257   9.531 -0.1831  0.1231  0.2120
  323loPI   GL2 5158   6.629   5.011   9.545 -0.1452  0.4479 -0.3062
  323loPI   C1A 5159   6.691   5.291   9.188  0.2189 -0.0280  0.1186
  323loPI   C2A 5160   6.819   5.371   8.882  0.3680  0.0839 -0.0473
  323loPI   C3A 5161   6.856   5.348   8.503 -0.2313  0.0705  0.0424
  323loPI   C4A 5162   6.993   5.349   8.142  0.0629 -0.3209  0.0175
  323loPI   C5A 5163   7.213   5.465   7.814  0.0224  0.0251 -0.0820
  323loPI   C6A 5164   6.850   5.356   7.495 -0.0296  0.1427 -0.0077
  323loPI   C1B 5165   6.972   4.809   9.241  0.3389  0.0496 -0.1924
  323loPI   C2B 5166   7.030   4.852   8.758 -0.1802 -0.4863  0.0769
  323loPI   C3B 5167   7.028   4.879   8.321  0.3929  0.1115  0.0889
  323loPI   C4B 5168   7.337   5.005   7.962 -0.2308 -0.0642  0.0972
  324loPI    C1 5169   2.265  19.442   9.565  0.1520 -0.0460  0.0482
  324loPI    C2 5170   1.939  19.390   9.338  0.1769 -0.0713  0.0182
  324loPI    C3 5171   1.903  19.537   9.709  0.1298 -0.0890  0.0207
  324loPI   PO4 5172   2.387  19.177   9.505 -0.4126 -0.3865  0.0140
  324loPI   GL1 5173   2.412  18.944   9.061 -0.2966 -0.0911 -0.0948
  324loPI   GL2 5174   2.666  19.122   9.064 -0.3354 -0.0765 -0.3049
  324loPI   C1A 5175   2.029  18.828   8.831  0.2435  0.0419  0.2052
  324loPI   C2A 5176   2.017  18.972   8.344 -0.2504  0.0417  0.2282
  324loPI   C3A 5177   1.906  18.986   7.941 -0.0026  0.1315  0.3152
  324loPI   C4A 5178   1.820  18.930   7.527 -0.0566  0.3194 -0.3246
  324loPI   C5A 5179   1.598  18.938   7.088 -0.0920 -0.0398 -0.1875
  324loPI   C6A 5180   1.402  18.556   6.882 -0.0330 -0.1862 -0.1018
  324loPI   C1B 5181   2.974  19.053   8.641 -0.0724  0.0736 -0.2384
  324loPI   C2B 5182   3.090  19.171   8.318 -0.1257  0.0529  0.2862
  324loPI   C3B 5183   3.187  19.378   7.928 -0.2725  0.0428 -0.1306
  324loPI   C4B 5184   3.013  19.404   7.577  0.0650 -0.0334 -0.1276
  325loPI    C1 5185  19.467   5.870  10.144 -0.0259 -0.0477 -0.0781
  325loPI    C2 5186  19.190   5.994  10.404  0.0411  0.1702 -0.1081
  325loPI    C3 5187  19.574   6.092  10.459  0.1485 -0.3154  0.0548
  325loPI   PO4 5188  19.358   5.881   9.848 -0.0650  0.1355 -0.1223
  325loPI   GL1 5189  19.236   6.244   9.656 -0.0332 -0.0003 -0.2558
  325loPI   GL2 5190  19.046   6.428   9.594 -0.1200  0.0530  0.1049
  325loPI   C1A 5191  19.071   6.039   9.287  0.0943 -0.1893  0.0740
  325loPI   C2A 5192  18.994   6.072   8.854  0.0399  0.1139  0.1223
  325loPI   C3A 5193  18.910   6.420   8.597 -0.2581  0.1595  0.1094
  325loPI   C4A 5194  18.771   6.457   8.212  0.1977 -0.0153  0.0725
  325loPI   C5A 5195  18.527   6.174   7.889  0.0954  0.1775  0.1197
  325loPI   C6A 5196  18.297   5.822   7.566  0.3411 -0.0103  0.3037
  325loPI   C1B 5197  18.887   6.507   9.162 -0.1391  0.1439  0.1371
  325loPI   C2B 5198  18.886   6.808   8.882 -0.2076 -0.0489  0.0408
  325loPI   C3B 5199  18.664   6.939   8.499  0.0858  0.0840  0.0052
  325loPI   C4B 5200  18.618   6.964   8.058  0.0168  0.0063  0.0030
  326loPI    C1 5201   7.988   0.340   9.665 -0.2455  0.0457 -0.1908
  326loPI    C2 5202   8.083   0.728   9.692  0.0218 -0.0241 -0.0925
  326loPI    C3 5203   7.985   0.523  10.021 -0.2785 -0.0032 -0.1660
  326loPI   PO4 5204   8.014   0.332   9.407  0.3688  0.1163  0.0595
  326loPI   GL1 5205   7.924   0.290   9.092  0.3090  0.1965  0.0759
  326loPI   GL2 5206   7.815  -0.028   9.126  0.1453  0.0315  0.1407
  326loPI   C1A 5207   8.023   0.523   8.599  0.1090 -0.0824  0.3372
  326loPI   C2A 5208   8.257   0.321   8.254  0.0291  0.1333  0.0729
  326loPI   C3A 5209   8.027   0.359   7.851  0.0490  0.1942 -0.1543
  326loPI   C4A 5210   7.639   0.209   7.685 -0.3064  0.0433 -0.1467
  326loPI   C5A 5211   7.440  -0.062   7.959  0.2820 -0.0798 -0.0975
  326loPI   C6A 5212   7.033  -0.036   7.950 -0.2799 -0.1782 -0.0416
  326loPI   C1B 5213   8.098   0.024   8.666  0.6077  0.1253  0.0096
  326loPI   C2B 5214   8.294  -0.220   8.372 -0.0055 -0.0525 -0.0593
  326loPI   C3B 5215   8.446  -0.340   7.958  0.0898  0.0517  0.0144
  326loPI   C4B 5216   8.751  -0.293   7.742 -0.0379 -0.2338 -0.5136
  327loPI    C1 5217   2.823   0.625   9.571  0.0567  0.0672 -0.0973
  327loPI    C2 5218   2.753   0.433   9.915 -0.0373  0.2621 -0.0064
  327loPI    C3 5219   2.532   0.350   9.592  0.2749 -0.1695 -0.1185
  327loPI   PO4 5220   3.048   0.536   9.517 -0.2716  0.0476 -0.0727
  327loPI   GL1 5221   3.148   0.348   9.093  0.2004 -0.5920 -0.1340
  327loPI   GL2 5222   3.230   0.634   9.088  0.1219 -0.1856 -0.2899
  327loPI   C1A 5223   3.220   0.308   8.640  0.0268  0.0729 -0.0628
  327loPI   C2A 5224   3.249   0.245   8.248 -0.0169  0.0546  0.1198
  327loPI   C3A 5225   3.002   0.328   7.919 -0.0029  0.3996  0.0875
  327loPI   C4A 5226   2.881   0.484   7.514  0.0791 -0.1071 -0.0186
  327loPI   C5A 5227   2.521   0.374   7.226  0.3698  0.2186  0.1127
  327loPI   C6A 5228   2.057   0.298   7.319  0.1698 -0.1341  0.2548
  327loPI   C1B 5229   3.049   0.781   8.718  0.1171  0.2046 -0.1791
  327loPI   C2B 5230   2.813   0.526   8.313  0.1706  0.1001 -0.1515
  327loPI   C3B 5231   2.533   0.410   8.068  0.1762 -0.4508 -0.2049
  327loPI   C4B 5232   2.232   0.451   7.780  0.0639 -0.1302  0.0334
  328loPI    C1 5233  12.162   4.262  10.069 -0.0161  0.0431 -0.0954
  328loPI    C2 5234  12.481   4.086  10.233  0.0379  0.1112 -0.1267
  328loPI    C3 5235  12.314   4.403  10.411 -0.0856  0.0028 -0.0477
  328loPI   PO4 5236  12.239   4.320   9.823 -0.1085  0.3033 -0.0427
  328loPI   GL1 5237  12.218   4.259   9.364  0.1775 -0.0965 -0.2442
  328loPI   GL2 5238  11.993   4.604   9.265  0.0583 -0.0200  0.1550
  328loPI   C1A 5239  12.434   4.362   9.028  0.1169 -0.0999 -0.1410
  328loPI   C2A 5240  12.657   4.738   8.861  0.0520 -0.0894 -0.1915
  328loPI   C3A 5241  12.513   4.853   8.448 -0.1923  0.3425 -0.2950
  328loPI   C4A 5242  12.704   4.663   8.001  0.0685  0.0174 -0.0386
  328loPI   C5A 5243  12.941   4.585   7.589 -0.0504  0.1170 -0.0449
  328loPI   C6A 5244  12.953   4.259   7.183  0.4027  0.0112 -0.1744
  328loPI   C1B 5245  11.769   4.346   9.016 -0.1163 -0.1762  0.0218
  328loPI   C2B 5246  11.997   4.043   8.947  0.1093 -0.1148  0.0804
  328loPI   C3B 5247  11.970   3.836   8.552 -0.0722  0.2219  0.0504
  328loPI   C4B 5248  12.007   3.561   8.199 -0.3063  0.4022  0.3935
  329loPI    C1 5249   4.850   4.003   9.887  0.0531  0.2385  0.0910
  329loPI    C2 5250   4.495   3.972  10.069  0.0847  0.0143  0.1174
  329loPI    C3 5251   4.806   4.130  10.264  0.0707 -0.0515  0.1937
  329loPI   PO4 5252   4.857   4.043   9.670 -0.4596 -0.0366  0.1827
  329loPI   GL1 5253   4.999   4.179   9.315  0.2342  0.2178 -0.1820
  329loPI   GL2 5254   4.831   4.438   9.400 -0.0476  0.0674 -0.0518
  329loPI   C1A 5255   5.347   4.164   9.115 -0.0886 -0.1866 -0.0006
  329loPI   C2A 5256   5.410   3.913   8.762  0.0554  0.0963 -0.1466
  329loPI   C3A 5257   5.503   3.871   8.407  0.0213 -0.0901  0.1420
  329loPI   C4A 5258   5.573   4.017   7.989  0.2304 -0.0428  0.0445
  329loPI   C5A 5259   5.357   4.334   7.712  0.2190 -0.2554  0.1511
  329loPI   C6A 5260   5.051   4.543   7.752  0.0244  0.1001 -0.0147
  329loPI   C1B 5261   4.700   4.325   8.962 -0.0012  0.0557  0.1739
  329loPI   C2B 5262   4.649   4.514   8.567  0.0043  0.1614  0.0034
  329loPI   C3B 5263   4.920   4.535   8.264 -0.1494  0.2446  0.2016
  329loPI   C4B 5264   5.285   4.511   8.210 -0.1062  0.0536 -0.2484
  330loPI    C1 5265  13.295  18.147   9.423  0.0175 -0.0060 -0.0319
  330loPI    C2 5266  13.115  18.109   9.778  0.3920  0.2778  0.1963
  330loPI    C3 5267  13.451  17.906   9.701  0.2415  0.1168 -0.0485
  330loPI   PO4 5268  13.173  18.131   9.164 -0.0875 -0.0550 -0.1228
  330loPI   GL1 5269  13.079  18.186   8.721  0.3598 -0.2326 -0.2162
  330loPI   GL2 5270  12.681  18.328   8.875  0.1735 -0.1205  0.0087
  330loPI   C1A 5271  13.256  18.090   8.299 -0.1084 -0.2552 -0.2853
  330loPI   C2A 5272  13.321  18.055   7.847 -0.1028 -0.0449 -0.1915
  330loPI   C3A 5273  13.283  18.135   7.443 -0.0350 -0.0861  0.0326
  330loPI   C4A 5274  13.030  18.029   7.091 -0.5087 -0.1368 -0.1641
  330loPI   C5A 5275  12.941  17.683   6.804 -0.1856  0.0574 -0.2159
  330loPI   C6A 5276  12.874  17.429   6.405  0.1700 -0.1819  0.1745
  330loPI   C1B 5277  12.734  18.461   8.412  0.3477 -0.1762  0.2138
  330loPI   C2B 5278  12.795  18.153   8.042 -0.0725  0.2027  0.1006
  330loPI   C3B 5279  12.796  18.015   7.670  0.1515 -0.1855  0.0991
  330loPI   C4B 5280  12.575  18.110   7.306 -0.3372  0.1616  0.2733
  331loPI    C1 5281   8.968   6.028   9.876 -0.0639 -0.0063  0.2574
  331loPI    C2 5282   9.138   6.280   9.616 -0.1951  0.0357  0.2119
  331loPI    C3 5283   9.187   6.335  10.009  0.1446 -0.1257  0.1958
  331loPI   PO4 5284   9.085   5.789   9.800  0.3436 -0.4327 -0.0492
  331loPI   GL1 5285   9.272   5.712   9.470 -0.0985  0.0681  0.0118
  331loPI   GL2 5286   9.058   5.518   9.363 -0.6322 -0.1228  0.3078
  331loPI   C1A 5287   9.411   5.896   9.113 -0.1339  0.0998  0.0919
  331loPI   C2A 5288   9.571   5.969   8.713  0.2389 -0.1992  0.0258
  331loPI   C3A 5289   9.661   5.887   8.262 -0.0302  0.2970  0.2158
  331loPI   C4A 5290  10.001   5.832   7.991  0.0738  0.1156  0.0750
  331loPI   C5A 5291  10.293   5.718   7.716 -0.1824 -0.3448 -0.1284
  331loPI   C6A 5292  10.473   5.433   7.488 -0.2137 -0.2346 -0.0647
  331loPI   C1B 5293   8.924   5.232   9.112  0.0118 -0.2554  0.1464
  331loPI   C2B 5294   8.881   5.176   8.713 -0.0837  0.0182  0.0272
  331loPI   C3B 5295   8.924   5.343   8.347  0.1483  0.1691  0.1063
  331loPI   C4B 5296   9.201   5.558   8.081  0.3044 -0.1184 -0.0177
  332loPI    C1 5297   3.791   5.570  10.217  0.1817 -0.0342  0.0298
  332loPI    C2 5298   4.170   5.441  10.223  0.0933 -0.3045 -0.0399
  332loPI    C3 5299   3.869   5.178  10.236 -0.0934 -0.1137 -0.3582
  332loPI   PO4 5300   3.843   5.839   9.961  0.2151 -0.0629  0.0634
  332loPI   GL1 5301   3.546   5.795   9.512  0.0580 -0.0064 -0.2185
  332loPI   GL2 5302   3.881   5.762   9.421 -0.1562  0.0057 -0.3730
  332loPI   C1A 5303   3.459   5.699   9.109 -0.0669  0.1854 -0.0452
  332loPI   C2A 5304   3.401   5.826   8.714  0.0402  0.0757  0.3475
  332loPI   C3A 5305   3.433   5.982   8.297  0.0160  0.0079 -0.0141
  332loPI   C4A 5306   3.716   6.087   8.011  0.0246  0.1727  0.0995
  332loPI   C5A 5307   3.704   6.121   7.605  0.0497  0.1261 -0.0971
  332loPI   C6A 5308   3.955   6.159   7.169  0.1161 -0.3726 -0.2984
  332loPI   C1B 5309   3.900   5.894   9.037 -0.0027 -0.0047  0.0447
  332loPI   C2B 5310   3.889   6.144   8.668 -0.1080 -0.1559  0.0860
  332loPI   C3B 5311   4.036   6.379   8.418  0.0909  0.2755  0.1128
  332loPI   C4B 5312   4.202   6.415   7.987  0.2455 -0.5171  0.1032
  333loPI    C1 5313  10.797  10.453  10.038 -0.1785 -0.0242 -0.0698
  333loPI    C2 5314  10.795  10.054  10.011  0.0742 -0.0361  0.0551
  333loPI    C3 5315  11.110  10.242  10.170 -0.0305  0.2162 -0.0300
  333loPI   PO4 5316  10.704  10.546   9.840  0.3116  0.1534  0.5778
  333loPI   GL1 5317  10.469  10.570   9.501  0.4670 -0.0576  0.3666
  333loPI   GL2 5318  10.899  10.634   9.342 -0.3333 -0.1764 -0.5782
  333loPI   C1A 5319  10.524  10.517   9.085 -0.1914  0.0622 -0.1792
  333loPI   C2A 5320  10.422  10.571   8.754  0.4069  0.0463  0.0279
  333loPI   C3A 5321  10.336  10.462   8.301  0.1215 -0.1301  0.0154
  333loPI   C4A 5322  10.210  10.123   7.934 -0.0919 -0.2981  0.0573
  333loPI   C5A 5323  10.365   9.939   7.603 -0.2419  0.3228 -0.2706
  333loPI   C6A 5324  10.544   9.777   7.228 -0.0932 -0.1494  0.1998
  333loPI   C1B 5325  10.721  10.993   9.156 -0.2642 -0.1268 -0.0944
  333loPI   C2B 5326  10.629  11.110   8.782  0.2215  0.0301 -0.1937
  333loPI   C3B 5327  10.603  11.256   8.423  0.1407  0.1940 -0.2579
  333loPI   C4B 5328  10.360  11.356   8.144 -0.2721  0.0851  0.0927
  334loPI    C1 5329   5.527   7.712   9.928  0.0187  0.1665 -0.0098
  334loPI    C2 5330   5.473   8.010  10.189 -0.2083  0.1004  0.0211
  334loPI    C3 5331   5.566   7.643  10.320 -0.2024  0.0946  0.0009
  334loPI   PO4 5332   5.290   7.907   9.737 -0.0824  0.0873  0.1260
  334loPI   GL1 5333   5.408   8.328   9.500 -0.0491 -0.1602  0.2614
  334loPI   GL2 5334   5.723   8.299   9.295  0.0743  0.1027  0.1221
  334loPI   C1A 5335   5.213   8.224   9.047  0.2740 -0.0426  0.1777
  334loPI   C2A 5336   5.006   8.084   8.620  0.1226 -0.4042  0.0680
  334loPI   C3A 5337   5.091   8.031   8.206  0.1082 -0.2700  0.2729
  334loPI   C4A 5338   5.387   7.704   7.938 -0.1123  0.1317  0.2172
  334loPI   C5A 5339   5.375   7.225   7.888 -0.2957  0.0790  0.1847
  334loPI   C6A 5340   5.468   6.781   7.896  0.0511 -0.0225  0.2398
  334loPI   C1B 5341   5.787   7.972   8.959 -0.2519 -0.0532  0.0373
  334loPI   C2B 5342   5.587   7.928   8.609  0.0888 -0.0253 -0.0656
  334loPI   C3B 5343   5.669   8.171   8.247 -0.1474 -0.1167 -0.1293
  334loPI   C4B 5344   5.599   8.535   7.987 -0.0201  0.1439 -0.4202
  335loPI    C1 5345  19.400  11.746   9.801 -0.0470 -0.0219 -0.1407
  335loPI    C2 5346  19.370  12.119   9.943  0.0536 -0.1206  0.1464
  335loPI    C3 5347  19.061  11.866   9.978 -0.0006 -0.0777 -0.0134
  335loPI   PO4 5348  19.468  11.683   9.579  0.1579  0.1010  0.0264
  335loPI   GL1 5349  19.439  11.727   9.126 -0.0786 -0.2388 -0.3722
  335loPI   GL2 5350  19.760  11.827   9.137  0.1029  0.0419 -0.1129
  335loPI   C1A 5351  19.377  11.495   8.799 -0.2957  0.1638  0.3394
  335loPI   C2A 5352  19.479  11.402   8.485  0.5379 -0.0179  0.2601
  335loPI   C3A 5353  19.235  11.320   8.128  0.0433 -0.1635  0.0361
  335loPI   C4A 5354  18.735  11.048   7.950  0.1531  0.0101 -0.3014
  335loPI   C5A 5355  18.611  11.065   7.477  0.1690 -0.0462 -0.2948
  335loPI   C6A 5356  18.775  11.145   7.096 -0.0849 -0.4613  0.0956
  335loPI   C1B 5357  19.834  11.627   8.768 -0.1429  0.1498  0.1071
  335loPI   C2B 5358  19.879  11.810   8.385  0.1350 -0.0209  0.1109
  335loPI   C3B 5359  19.650  12.016   8.011  0.3505  0.1364 -0.0266
  335loPI   C4B 5360  19.501  12.121   7.669 -0.0056 -0.1286 -0.2182
  336loPI    C1 5361   9.024  17.411   9.877  0.0100  0.0808  0.0677
  336loPI    C2 5362   9.331  17.654   9.790  0.0417  0.0451  0.0795
  336loPI    C3 5363   9.006  17.799   9.973  0.1361  0.0430  0.2506
  336loPI   PO4 5364   9.016  17.210   9.623  0.1914 -0.0283  0.1642
  336loPI   GL1 5365   9.011  16.910   9.287  0.0133 -0.3774  0.1618
  336loPI   GL2 5366   9.137  17.125   9.061  0.1061  0.0130  0.0370
  336loPI   C1A 5367   8.697  16.645   9.056 -0.1498  0.0672 -0.5457
  336loPI   C2A 5368   8.846  16.549   8.694 -0.1007 -0.0439 -0.2059
  336loPI   C3A 5369   9.006  16.624   8.226  0.0070  0.1494  0.0758
  336loPI   C4A 5370   9.148  16.954   7.967 -0.4426 -0.1542  0.1030
  336loPI   C5A 5371   9.492  17.191   7.727  0.0758 -0.1677  0.0933
  336loPI   C6A 5372   9.950  17.138   7.433 -0.1303 -0.2226  0.2136
  336loPI   C1B 5373   9.091  16.970   8.611  0.4722 -0.0260  0.2528
  336loPI   C2B 5374   9.366  16.596   8.533  0.2208  0.0256  0.0054
  336loPI   C3B 5375   9.259  16.186   8.262  0.1824  0.0224 -0.2693
  336loPI   C4B 5376   9.153  16.310   7.846 -0.2628  0.0672 -0.1116
  337loPI    C1 5377   8.910   1.467   9.716 -0.0563 -0.0517 -0.0285
  337loPI    C2 5378   9.229   1.696   9.790 -0.0491 -0.0874  0.0520
  337loPI    C3 5379   8.866   1.817   9.905 -0.0849  0.0225 -0.1710
  337loPI   PO4 5380   8.965   1.365   9.434  0.3795  0.0200  0.2578
  337loPI   GL1 5381   9.092   1.249   8.939 -0.0671  0.2963  0.3706
  337loPI   GL2 5382   8.770   1.515   8.915  0.1210 -0.0945  0.3886
  337loPI   C1A 5383   9.228   1.307   8.568 -0.0918  0.1271 -0.0193
  337loPI   C2A 5384   9.154   1.392   8.145 -0.0325  0.4553  0.0072
  337loPI   C3A 5385   8.857   1.594   7.913 -0.1303 -0.1675  0.1785
  337loPI   C4A 5386   8.872   1.593   7.499 -0.2573  0.2685 -0.0680
  337loPI   C5A 5387   8.830   1.811   7.153 -0.0076  0.1635 -0.0736
  337loPI   C6A 5388   8.523   1.975   6.884 -0.3341 -0.0291 -0.0137
  337loPI   C1B 5389   8.721   1.427   8.557 -0.1612 -0.1083  0.0798
  337loPI   C2B 5390   8.582   1.266   8.177  0.0767 -0.2189 -0.2615
  337loPI   C3B 5391   8.498   1.266   7.737 -0.0658  0.1074  0.4185
  337loPI   C4B 5392   8.363   1.542   7.339 -0.1116 -0.0280 -0.0734
  338loPI    C1 5393  11.982   6.860   9.870 -0.0472  0.3201 -0.1069
  338loPI    C2 5394  11.708   7.079  10.063 -0.1572 -0.0301  0.1440
  338loPI    C3 5395  12.049   6.979  10.246  0.0965  0.3113 -0.1292
  338loPI   PO4 5396  11.977   6.997   9.644  0.0636  0.0546 -0.3194
  338loPI   GL1 5397  11.809   6.897   9.249  0.2161  0.0008  0.1463
  338loPI   GL2 5398  12.301   7.008   9.238  0.2003 -0.2059 -0.1947
  338loPI   C1A 5399  11.865   6.981   8.744 -0.1698 -0.1133 -0.0986
  338loPI   C2A 5400  11.575   7.091   8.332 -0.3069  0.2882  0.2504
  338loPI   C3A 5401  11.352   6.935   7.975  0.0131  0.0709  0.1335
  338loPI   C4A 5402  11.572   6.512   7.760 -0.1491  0.1526 -0.0332
  338loPI   C5A 5403  11.569   6.187   7.396  0.0683 -0.0265  0.1933
  338loPI   C6A 5404  11.942   5.924   7.142 -0.1356  0.0346  0.0442
  338loPI   C1B 5405  12.344   6.944   8.806 -0.2007 -0.2464  0.1288
  338loPI   C2B 5406  12.286   7.013   8.329  0.0465  0.0886 -0.1196
  338loPI   C3B 5407  12.324   6.993   7.837 -0.1376 -0.1418 -0.2435
  338loPI   C4B 5408  12.482   7.176   7.457  0.0478 -0.2607 -0.2214
  339loPI    C1 5409  14.915   8.512   9.918  0.0922 -0.3232 -0.0017
  339loPI    C2 5410  15.093   8.274  10.185  0.3892 -0.0524  0.0472
  339loPI    C3 5411  14.963   8.635  10.296 -0.0796 -0.1942 -0.0205
  339loPI   PO4 5412  15.046   8.557   9.704  0.3552  0.0461 -0.0793
  339loPI   GL1 5413  14.952   8.480   9.339 -0.0523 -0.0749  0.2206
  339loPI   GL2 5414  15.155   8.680   9.170  0.2503  0.0229 -0.1692
  339loPI   C1A 5415  14.996   8.402   8.821  0.2249  0.2707  0.0017
  339loPI   C2A 5416  15.020   8.309   8.505 -0.0891 -0.1959 -0.1419
  339loPI   C3A 5417  14.926   8.271   8.179  0.2984 -0.0702 -0.2463
  339loPI   C4A 5418  14.711   8.194   7.717  0.1463  0.4820 -0.1077
  339loPI   C5A 5419  14.577   8.464   7.371 -0.2578  0.1653  0.3741
  339loPI   C6A 5420  14.331   8.855   7.321  0.0597  0.1104  0.1997
  339loPI   C1B 5421  15.107   8.871   8.728  0.1920 -0.0028  0.0634
  339loPI   C2B 5422  15.175   8.720   8.228  0.3443  0.1734 -0.3080
  339loPI   C3B 5423  15.155   8.594   7.915 -0.5110  0.1578  0.1134
  339loPI   C4B 5424  15.456   8.826   7.628  0.1700  0.1732 -0.2007
  340loPI    C1 5425  15.774  10.896   9.470 -0.0801 -0.3001  0.3756
  340loPI    C2 5426  15.405  10.905   9.316  0.0542  0.0358  0.0598
  340loPI    C3 5427  15.461  10.975   9.706 -0.1873  0.3022  0.0496
  340loPI   PO4 5428  15.882  11.010   9.213 -0.0306  0.0480  0.3418
  340loPI   GL1 5429  16.080  11.231   8.899  0.1583  0.0097 -0.0564
  340loPI   GL2 5430  16.150  11.443   9.052  0.2400  0.1363  0.2492
  340loPI   C1A 5431  16.008  11.073   8.510 -0.2561  0.0852 -0.1613
  340loPI   C2A 5432  15.951  11.164   8.102  0.0483  0.0540 -0.3097
  340loPI   C3A 5433  15.571  11.226   7.783 -0.1033 -0.1603  0.2668
  340loPI   C4A 5434  15.358  11.331   7.410 -0.3458  0.0311 -0.0553
  340loPI   C5A 5435  14.947  11.196   7.157 -0.2429 -0.2065 -0.0139
  340loPI   C6A 5436  14.896  10.996   6.806 -0.2790  0.0097  0.3819
  340loPI   C1B 5437  16.055  11.556   8.520  0.1774  0.2269 -0.1513
  340loPI   C2B 5438  15.807  11.613   8.061 -0.1848 -0.2621  0.2942
  340loPI   C3B 5439  15.450  11.718   7.792  0.0158 -0.0403  0.1488
  340loPI   C4B 5440  15.116  11.963   7.735 -0.0323 -0.1245 -0.2008
  341loPI    C1 5441  12.881  18.503   9.517  0.0437 -0.2067  0.0579
  341loPI    C2 5442  13.217  18.628   9.694  0.1248 -0.1136 -0.1576
  341loPI    C3 5443  12.861  18.718   9.853  0.2013 -0.2931  0.1234
  341loPI   PO4 5444  12.920  18.572   9.279 -0.3574 -0.0654 -0.0472
  341loPI   GL1 5445  12.989  18.845   8.992  0.0575 -0.3135  0.2811
  341loPI   GL2 5446  13.200  18.724   8.765 -0.0834  0.3361  0.0436
  341loPI   C1A 5447  12.808  18.934   8.644  0.1163 -0.2628  0.0653
  341loPI   C2A 5448  12.720  18.905   8.171 -0.0774  0.2196 -0.1541
  341loPI   C3A 5449  12.646  18.561   7.865  0.2282 -0.0857  0.0491
  341loPI   C4A 5450  12.455  18.507   7.526 -0.0137  0.3456 -0.0496
  341loPI   C5A 5451  12.229  18.570   7.139 -0.0636  0.1500  0.3320
  341loPI   C6A 5452  12.059  18.998   7.216 -0.1198  0.0218  0.0549
  341loPI   C1B 5453  13.205  18.629   8.274  0.0413  0.0878 -0.4439
  341loPI   C2B 5454  13.195  18.514   7.854 -0.2800  0.1307  0.1040
  341loPI   C3B 5455  12.983  18.525   7.512 -0.0932 -0.2086  0.2714
  341loPI   C4B 5456  12.744  18.532   7.081  0.2448 -0.1025  0.0123
  342loPI    C1 5457  10.138  18.735   9.931 -0.1600 -0.1705 -0.0612
  342loPI    C2 5458   9.799  18.878  10.089 -0.0024 -0.0996  0.2213
  342loPI    C3 5459  10.094  18.754  10.328  0.1647 -0.1805 -0.0220
  342loPI   PO4 5460  10.031  18.748   9.644 -0.0708  0.0568 -0.1912
  342loPI   GL1 5461   9.935  18.928   9.239  0.2136 -0.1993 -0.2126
  342loPI   GL2 5462  10.198  18.742   9.170  0.2213  0.0512 -0.2478
  342loPI   C1A 5463  10.096  19.190   8.963  0.1909  0.0717  0.0841
  342loPI   C2A 5464  10.214  19.393   8.678  0.4638 -0.0282  0.0562
  342loPI   C3A 5465  10.073  19.621   8.304 -0.0198  0.1371 -0.1146
  342loPI   C4A 5466   9.972  19.774   7.974 -0.1164  0.1831 -0.0291
  342loPI   C5A 5467  10.004  19.860   7.528 -0.1401 -0.0766  0.0524
  342loPI   C6A 5468   9.972  20.004   7.121 -0.1183 -0.1445  0.2354
  342loPI   C1B 5469  10.004  18.630   8.856 -0.0582 -0.0830 -0.1892
  342loPI   C2B 5470   9.675  18.565   8.580 -0.0304  0.3185 -0.0570
  342loPI   C3B 5471   9.941  18.579   8.209  0.1051 -0.3176 -0.1080
  342loPI   C4B 5472  10.128  18.659   7.805  0.2453 -0.0090  0.0039
  343loPI    C1 5473  15.716  12.807   9.562  0.1401  0.2002  0.0811
  343loPI    C2 5474  15.829  12.625   9.900  0.3361 -0.1011 -0.1415
  343loPI    C3 5475  15.848  13.024   9.872  0.1627 -0.0602  0.2570
  343loPI   PO4 5476  15.611  12.577   9.395 -0.1914  0.3588 -0.1117
  343loPI   GL1 5477  15.748  12.664   8.922  0.0842 -0.1388  0.2270
  343loPI   GL2 5478  15.820  12.376   8.989 -0.0644  0.0478  0.0807
  343loPI   C1A 5479  15.984  12.928   8.537  0.0462 -0.0075 -0.1713
  343loPI   C2A 5480  16.222  12.927   8.121  0.4419 -0.3424  0.0030
  343loPI   C3A 5481  16.326  12.931   7.671 -0.1346 -0.1407  0.2672
  343loPI   C4A 5482  16.555  12.806   7.325  0.0722  0.1609 -0.3659
  343loPI   C5A 5483  16.661  12.696   6.871 -0.0433 -0.2221 -0.1738
  343loPI   C6A 5484  17.038  12.735   6.611 -0.0651 -0.4102 -0.1332
  343loPI   C1B 5485  16.163  12.458   8.710 -0.3025 -0.3639 -0.0722
  343loPI   C2B 5486  16.204  12.461   8.309 -0.1890 -0.4265  0.2359
  343loPI   C3B 5487  16.210  12.496   7.862 -0.1805 -0.1559 -0.0013
  343loPI   C4B 5488  16.472  12.420   7.637 -0.2486 -0.1376 -0.1198
  344loPI    C1 5489  11.922   3.563   9.673 -0.2292  0.0855 -0.1657
  344loPI    C2 5490  11.976   3.173   9.745 -0.0160  0.1393 -0.0273
  344loPI    C3 5491  11.695   3.376   9.944  0.0127  0.1017  0.0520
  344loPI   PO4 5492  11.848   3.516   9.422  0.3254 -0.0453 -0.0321
  344loPI   GL1 5493  11.671   3.485   8.976  0.0049 -0.2833  0.1121
  344loPI   GL2 5494  11.467   3.206   8.986  0.0842  0.1825  0.2788
  344loPI   C1A 5495  11.846   3.205   8.647 -0.0763  0.1956  0.0589
  344loPI   C2A 5496  11.992   3.081   8.241 -0.1867 -0.2370  0.0290
  344loPI   C3A 5497  11.982   3.198   7.761 -0.4092  0.4407 -0.1113
  344loPI   C4A 5498  12.104   3.318   7.374 -0.2282 -0.1133  0.2273
  344loPI   C5A 5499  11.935   3.570   7.146 -0.1258  0.1915  0.1734
  344loPI   C6A 5500  12.011   3.941   7.051 -0.1032 -0.1108 -0.0276
  344loPI   C1B 5501  11.320   3.005   8.613  0.0834  0.0389 -0.0716
  344loPI   C2B 5502  11.485   3.201   8.186  0.1816  0.1616  0.3212
  344loPI   C3B 5503  11.334   3.107   7.816  0.1020 -0.2615 -0.0324
  344loPI   C4B 5504  11.200   3.105   7.387  0.0601 -0.1465 -0.1985
  345loPI    C1 5505   5.116  12.905  10.234  0.0416  0.0430 -0.1608
  345loPI    C2 5506   5.207  13.267  10.378 -0.2410  0.0326  0.0511
  345loPI    C3 5507   5.016  13.002  10.608 -0.0595 -0.2445 -0.1114
  345loPI   PO4 5508   5.105  12.891   9.988  0.1258  0.1306 -0.2620
  345loPI   GL1 5509   4.904  12.959   9.599 -0.2986 -0.0587 -0.0846
  345loPI   GL2 5510   5.047  12.612   9.598  0.3333 -0.0893 -0.1914
  345loPI   C1A 5511   5.020  13.425   9.391  0.0279  0.0598  0.3373
  345loPI   C2A 5512   5.177  13.654   9.042 -0.2496  0.0010  0.1520
  345loPI   C3A 5513   5.311  13.596   8.633  0.1619 -0.2831 -0.1128
  345loPI   C4A 5514   5.235  13.715   8.183 -0.0459  0.2144  0.0473
  345loPI   C5A 5515   5.205  13.674   7.635 -0.5287  0.1423 -0.3059
  345loPI   C6A 5516   5.225  13.916   7.342  0.0561 -0.1453 -0.3695
  345loPI   C1B 5517   4.741  12.739   9.240  0.2794 -0.0143  0.0392
  345loPI   C2B 5518   4.739  12.609   8.766  0.0710  0.2119  0.0806
  345loPI   C3B 5519   4.788  12.636   8.301 -0.0218  0.1307 -0.3510
  345loPI   C4B 5520   5.074  12.440   8.010 -0.0098 -0.3857  0.2147
  346loPI    C1 5521   8.884   3.417  10.066 -0.0926  0.1863  0.0508
  346loPI    C2 5522   9.046   3.654  10.345 -0.1278 -0.0868  0.3084
  346loPI    C3 5523   8.775   3.378  10.449 -0.1659 -0.1710 -0.0022
  346loPI   PO4 5524   8.959   3.617   9.835  0.0221 -0.3634 -0.5061
  346loPI   GL1 5525   9.232   3.930   9.677 -0.0723 -0.0108 -0.2176
  346loPI   GL2 5526   9.099   3.918   9.387  0.0117  0.0788 -0.0230
  346loPI   C1A 5527   9.602   3.944   9.319  0.2296  0.2534  0.0606
  346loPI   C2A 5528   9.718   4.112   8.909 -0.0295  0.3099  0.0356
  346loPI   C3A 5529   9.778   3.888   8.501 -0.0285 -0.0322  0.1935
  346loPI   C4A 5530  10.024   3.754   8.177 -0.2445  0.2196  0.0961
  346loPI   C5A 5531  10.237   4.009   7.859  0.3376 -0.2129  0.0878
  346loPI   C6A 5532  10.514   4.242   7.626  0.0390  0.2749  0.1953
  346loPI   C1B 5533   8.909   3.888   8.900  0.0815  0.0974  0.0366
  346loPI   C2B 5534   8.695   3.922   8.466  0.0097  0.2645  0.2627
  346loPI   C3B 5535   8.578   3.469   8.121 -0.0486 -0.0687  0.1860
  346loPI   C4B 5536   8.422   3.485   7.679 -0.0645 -0.0114  0.0532
  347loPI    C1 5537  16.696   4.183  10.027 -0.4334 -0.1468 -0.3890
  347loPI    C2 5538  16.511   4.517  10.143  0.2469  0.0809  0.1027
  347loPI    C3 5539  16.437   4.172  10.331 -0.0368  0.0647 -0.0335
  347loPI   PO4 5540  16.705   4.215   9.696 -0.0032 -0.3020  0.0095
  347loPI   GL1 5541  16.544   3.870   9.523 -0.2861  0.2375 -0.1877
  347loPI   GL2 5542  16.363   3.775   9.407  0.1679  0.1017 -0.1867
  347loPI   C1A 5543  16.435   4.056   9.061  0.0758 -0.1853  0.1053
  347loPI   C2A 5544  16.468   3.997   8.673 -0.3891  0.0183  0.0161
  347loPI   C3A 5545  16.643   3.588   8.486 -0.2326 -0.1740 -0.1256
  347loPI   C4A 5546  16.466   3.423   8.125  0.1703 -0.5089  0.0809
  347loPI   C5A 5547  16.587   3.246   7.639 -0.0562  0.1260 -0.4165
  347loPI   C6A 5548  16.583   3.097   7.301  0.3868  0.3782 -0.4265
  347loPI   C1B 5549  16.648   3.622   9.100  0.3477 -0.2117  0.0108
  347loPI   C2B 5550  17.022   3.670   8.841 -0.1129  0.2905  0.2789
  347loPI   C3B 5551  17.077   3.750   8.399 -0.1878  0.1397 -0.1593
  347loPI   C4B 5552  17.365   4.129   8.131 -0.0623 -0.4108 -0.2719
  348loPI    C1 5553   6.181  14.950  10.144  0.1775  0.0828  0.0489
  348loPI    C2 5554   5.885  15.161  10.310  0.1316 -0.1644  0.2898
  348loPI    C3 5555   6.256  15.185  10.459  0.2195  0.0785  0.0424
  348loPI   PO4 5556   6.163  14.994   9.868 -0.1941 -0.0529  0.3599
  348loPI   GL1 5557   6.261  15.135   9.575 -0.2181  0.2997  0.0219
  348loPI   GL2 5558   6.646  15.136   9.624  0.1544  0.2897 -0.1266
  348loPI   C1A 5559   6.481  15.077   9.168 -0.1883  0.1415 -0.2028
  348loPI   C2A 5560   6.600  14.914   8.818 -0.1606 -0.1100 -0.5150
  348loPI   C3A 5561   6.367  15.058   8.473 -0.3367  0.1894 -0.1687
  348loPI   C4A 5562   6.026  15.242   8.326 -0.0162  0.0201 -0.0367
  348loPI   C5A 5563   5.813  15.149   8.098  0.0487  0.3064 -0.1297
  348loPI   C6A 5564   5.812  14.837   7.727  0.2956  0.1715  0.2788
  348loPI   C1B 5565   6.971  15.044   9.367 -0.1302 -0.1119 -0.0912
  348loPI   C2B 5566   6.980  15.177   9.001  0.1559 -0.2069 -0.1013
  348loPI   C3B 5567   6.848  15.279   8.564 -0.2494 -0.0313 -0.4367
  348loPI   C4B 5568   6.661  15.243   8.090  0.3735  0.0008 -0.0950
  349loPI    C1 5569   5.812  12.157  10.145  0.1153 -0.1979 -0.1298
  349loPI    C2 5570   5.759  12.206  10.539 -0.2569  0.1103 -0.2125
  349loPI    C3 5571   5.857  11.847  10.394  0.3498  0.0935  0.2024
  349loPI   PO4 5572   5.768  12.272  10.041  0.1527 -0.0049  0.2805
  349loPI   GL1 5573   5.840  12.214   9.635  0.1184 -0.0271 -0.0879
  349loPI   GL2 5574   5.941  11.981   9.506  0.0586 -0.0058  0.1317
  349loPI   C1A 5575   5.575  12.209   9.270 -0.0920 -0.4556 -0.1562
  349loPI   C2A 5576   5.586  12.472   8.928 -0.2214 -0.2769 -0.2848
  349loPI   C3A 5577   5.685  12.529   8.557  0.1406  0.0107 -0.0846
  349loPI   C4A 5578   5.921  12.390   8.215 -0.1833 -0.1071  0.3483
  349loPI   C5A 5579   6.338  12.154   8.175 -0.2446  0.0301  0.1607
  349loPI   C6A 5580   6.758  12.277   7.888  0.0595 -0.0956 -0.0755
  349loPI   C1B 5581   5.922  11.960   9.104 -0.1232  0.2206 -0.0582
  349loPI   C2B 5582   6.011  12.194   8.676  0.1453  0.0136 -0.0534
  349loPI   C3B 5583   5.955  11.877   8.451 -0.1992 -0.3006 -0.0253
  349loPI   C4B 5584   6.146  11.633   8.020  0.1315 -0.2596  0.2984
  350loPI    C1 5585  10.548   5.252   9.711 -0.1817 -0.2099  0.0220
  350loPI    C2 5586  10.723   5.292  10.069  0.2086 -0.1834 -0.1662
  350loPI    C3 5587  10.391   5.499   9.984 -0.1415 -0.5176  0.3313
  350loPI   PO4 5588  10.527   5.057   9.636  0.2028  0.3244 -0.1152
  350loPI   GL1 5589  10.434   5.195   9.200  0.2440 -0.0797  0.0086
  350loPI   GL2 5590  10.713   5.413   9.282 -0.2414 -0.0228  0.0049
  350loPI   C1A 5591  10.481   5.536   8.935  0.3255 -0.1301  0.3121
  350loPI   C2A 5592  10.643   5.440   8.553 -0.2186  0.0526  0.0371
  350loPI   C3A 5593  11.025   5.371   8.219 -0.3056 -0.3039 -0.0308
  350loPI   C4A 5594  11.301   5.514   7.827  0.1350  0.0574 -0.0545
  350loPI   C5A 5595  11.421   5.673   7.391 -0.0035 -0.0047 -0.3479
  350loPI   C6A 5596  11.458   5.500   6.891 -0.1773  0.2579  0.1550
  350loPI   C1B 5597  11.046   5.658   8.948  0.4295  0.2739 -0.1525
  350loPI   C2B 5598  11.030   5.805   8.622  0.0184 -0.0743  0.1333
  350loPI   C3B 5599  11.177   5.849   8.121  0.1075 -0.2648 -0.2891
  350loPI   C4B 5600  11.234   6.044   7.727  0.0908 -0.1466  0.0655
  351loPI    C1 5601  10.331  10.736  10.049  0.1724 -0.2279 -0.1311
  351loPI    C2 5602  10.114  10.499  10.288  0.0101  0.0509  0.0035
  351loPI    C3 5603  10.381  10.751  10.446 -0.0347  0.1739 -0.1152
  351loPI   PO4 5604  10.144  10.846   9.922  0.1875 -0.0710  0.4170
  351loPI   GL1 5605  10.196  11.009   9.439  0.0663 -0.1448 -0.2517
  351loPI   GL2 5606   9.972  11.286   9.372 -0.1156  0.0651 -0.2546
  351loPI   C1A 5607  10.187  10.937   8.997 -0.0563 -0.2470  0.0340
  351loPI   C2A 5608  10.193  10.991   8.544  0.0122 -0.0702  0.1755
  351loPI   C3A 5609  10.066  10.811   8.110 -0.2674 -0.2043 -0.2170
  351loPI   C4A 5610   9.906  11.024   7.753  0.2549  0.0852 -0.3068
  351loPI   C5A 5611   9.933  11.446   7.741  0.4689  0.3005  0.2888
  351loPI   C6A 5612   9.794  11.829   7.842  0.1581  0.0045 -0.0214
  351loPI   C1B 5613   9.914  11.306   8.965  0.0910  0.0718  0.0574
  351loPI   C2B 5614   9.784  11.326   8.558 -0.0416  0.0469 -0.0848
  351loPI   C3B 5615   9.684  11.292   8.181 -0.1288  0.2144  0.0512
  351loPI   C4B 5616   9.416  11.540   7.846 -0.0453 -0.0321 -0.3545
  352loPI    C1 5617  12.633  17.565   9.655  0.2184  0.0091 -0.0343
  352loPI    C2 5618  13.001  17.630   9.798  0.1141 -0.2387  0.3647
  352loPI    C3 5619  12.695  17.858   9.920  0.1247 -0.0570  0.0618
  352loPI   PO4 5620  12.661  17.565   9.437 -0.1084  0.2219  0.0317
  352loPI   GL1 5621  12.519  17.566   9.076 -0.0205  0.0790 -0.0186
  352loPI   GL2 5622  12.804  17.766   8.977  0.2303 -0.1039  0.0039
  352loPI   C1A 5623  12.588  17.468   8.608 -0.0280  0.0547  0.0160
  352loPI   C2A 5624  12.562  17.230   8.181 -0.0418  0.0965 -0.2096
  352loPI   C3A 5625  12.712  17.201   7.875 -0.1810 -0.1332 -0.1233
  352loPI   C4A 5626  12.769  17.125   7.491 -0.0051 -0.1661 -0.1421
  352loPI   C5A 5627  13.014  17.188   7.160 -0.2766  0.0151 -0.2974
  352loPI   C6A 5628  13.295  17.250   6.815  0.3452 -0.3284 -0.1002
  352loPI   C1B 5629  12.917  17.790   8.444 -0.0248  0.0471 -0.1506
  352loPI   C2B 5630  12.956  17.608   8.056 -0.2865 -0.4554  0.4889
  352loPI   C3B 5631  13.024  17.574   7.631  0.0980 -0.2735  0.0638
  352loPI   C4B 5632  13.335  17.571   7.265 -0.1513  0.0686 -0.0776
  353loPI    C1 5633  10.441  15.821  10.003  0.0144 -0.1277 -0.0323
  353loPI    C2 5634  10.096  15.641  10.094 -0.0711 -0.0174 -0.1355
  353loPI    C3 5635  10.326  15.792  10.385 -0.1061 -0.0976 -0.0658
  353loPI   PO4 5636  10.448  15.912   9.771 -0.3063 -0.2004  0.0536
  353loPI   GL1 5637  10.495  16.038   9.372  0.1355  0.1481  0.1523
  353loPI   GL2 5638  10.609  16.320   9.398 -0.0702  0.0307  0.0890
  353loPI   C1A 5639  10.510  15.843   9.046 -0.1407  0.0237  0.1187
  353loPI   C2A 5640  10.341  15.829   8.672 -0.3347  0.0488  0.1766
  353loPI   C3A 5641  10.386  15.799   8.224 -0.1677 -0.1451 -0.1109
  353loPI   C4A 5642  10.487  15.853   7.758  0.3636 -0.2892 -0.0549
  353loPI   C5A 5643  10.890  16.082   7.601 -0.0035  0.0672 -0.1395
  353loPI   C6A 5644  11.257  15.897   7.374 -0.1526 -0.0169 -0.1354
  353loPI   C1B 5645  10.412  16.381   8.943  0.0628 -0.0053  0.1423
  353loPI   C2B 5646  10.287  16.285   8.469 -0.2469 -0.0370  0.0313
  353loPI   C3B 5647  10.188  16.253   8.051  0.1681  0.3695 -0.0544
  353loPI   C4B 5648  10.075  16.057   7.529 -0.2165 -0.0443  0.0643
  354loPI    C1 5649   1.113   0.633   9.752 -0.1311  0.1500 -0.1076
  354loPI    C2 5650   0.762   0.557   9.928 -0.0124 -0.1026  0.0245
  354loPI    C3 5651   0.937   0.914   9.976 -0.1092 -0.0775  0.2001
  354loPI   PO4 5652   1.102   0.492   9.543 -0.2145  0.0266 -0.1497
  354loPI   GL1 5653   1.193   0.436   9.282 -0.1374  0.1722  0.2602
  354loPI   GL2 5654   1.606   0.510   9.251 -0.3380 -0.0149  0.1980
  354loPI   C1A 5655   0.935   0.486   8.879 -0.2716 -0.1537  0.0711
  354loPI   C2A 5656   1.173   0.755   8.569  0.0622 -0.0421  0.1053
  354loPI   C3A 5657   0.966   1.087   8.347  0.0837  0.1724 -0.0297
  354loPI   C4A 5658   0.597   1.486   8.106  0.2101  0.0986 -0.1055
  354loPI   C5A 5659   0.318   1.848   8.193  0.1250 -0.2548 -0.0789
  354loPI   C6A 5660  -0.005   2.076   7.894 -0.1108 -0.3078  0.0613
  354loPI   C1B 5661   1.487   0.580   8.889  0.0689  0.2251 -0.1645
  354loPI   C2B 5662   1.763   0.783   8.493 -0.0164 -0.3282  0.2356
  354loPI   C3B 5663   1.789   0.987   8.032  0.0767 -0.1559  0.4295
  354loPI   C4B 5664   1.493   1.040   7.648 -0.3325 -0.1371 -0.0396
  355loPI    C1 5665   0.494   6.979   9.954 -0.0007  0.0724 -0.0858
  355loPI    C2 5666   0.413   7.355  10.064 -0.0579  0.0482 -0.0445
  355loPI    C3 5667   0.523   7.086  10.338  0.2458  0.1008 -0.1104
  355loPI   PO4 5668   0.348   6.825   9.769 -0.1513 -0.0984  0.5955
  355loPI   GL1 5669   0.634   6.707   9.460  0.4491 -0.0043 -0.0277
  355loPI   GL2 5670   0.681   7.035   9.384  0.1599  0.0521  0.0528
  355loPI   C1A 5671   0.440   6.448   9.185 -0.0605  0.3582  0.0926
  355loPI   C2A 5672   0.364   6.324   8.794  0.2761  0.0155  0.0516
  355loPI   C3A 5673   0.252   6.191   8.437 -0.1287 -0.0108  0.4543
  355loPI   C4A 5674   0.256   6.226   7.985  0.1642 -0.0745 -0.1938
  355loPI   C5A 5675   0.203   6.055   7.569 -0.1097  0.1527 -0.1139
  355loPI   C6A 5676   0.208   5.577   7.474 -0.1997  0.0196  0.1278
  355loPI   C1B 5677   0.911   6.819   9.085  0.0493 -0.2262 -0.1748
  355loPI   C2B 5678   1.349   6.691   8.891  0.1668 -0.0897 -0.0861
  355loPI   C3B 5679   1.452   6.755   8.511 -0.0576  0.1191  0.1227
  355loPI   C4B 5680   1.706   6.704   8.099 -0.4219 -0.1267 -0.1376
  356loPI    C1 5681  19.146   0.522   9.867  0.0773 -0.0324  0.0935
  356loPI    C2 5682  19.273   0.166   9.999  0.0548 -0.1039 -0.0756
  356loPI    C3 5683  19.078   0.413  10.246 -0.0307 -0.2567  0.0114
  356loPI   PO4 5684  19.051   0.582   9.653 -0.0260  0.1286  0.0162
  356loPI   GL1 5685  19.028   0.485   9.222  0.0200  0.2020  0.1798
  356loPI   GL2 5686  19.098   0.799   9.241  0.0702  0.0979  0.1914
  356loPI   C1A 5687  19.022   0.338   8.788 -0.0296 -0.0401  0.1808
  356loPI   C2A 5688  19.144   0.467   8.369 -0.3044 -0.1003 -0.0747
  356loPI   C3A 5689  19.346   0.384   7.871  0.1263 -0.0340 -0.0172
  356loPI   C4A 5690  19.591   0.400   7.533  0.2101  0.1925  0.0536
  356loPI   C5A 5691  19.365   0.274   7.111 -0.4211  0.0891  0.1095
  356loPI   C6A 5692  19.192   0.558   6.786 -0.3245 -0.1963  0.0458
  356loPI   C1B 5693  19.089   0.843   8.858  0.0980 -0.0671  0.1464
  356loPI   C2B 5694  19.132   1.018   8.511  0.2972  0.0182 -0.1816
  356loPI   C3B 5695  19.179   1.104   8.060 -0.2292  0.0988  0.0298
  356loPI   C4B 5696  18.875   1.283   7.800  0.0567 -0.0923  0.2937
  357loPI    C1 5697  15.902   9.353  10.014  0.3957 -0.1625 -0.0402
  357loPI    C2 5698  15.712   9.459  10.350  0.2067 -0.0573 -0.1783
  357loPI    C3 5699  15.953   9.140  10.349  0.0040 -0.2143 -0.0077
  357loPI   PO4 5700  15.652   9.319   9.806  0.2445 -0.0304  0.3113
  357loPI   GL1 5701  15.551   9.387   9.230  0.1659  0.2387  0.5685
  357loPI   GL2 5702  15.255   9.185   9.204 -0.1055  0.0163 -0.0915
  357loPI   C1A 5703  15.830   9.302   8.912 -0.0795 -0.1975  0.0037
  357loPI   C2A 5704  15.872   9.338   8.517 -0.1016  0.1221 -0.0137
  357loPI   C3A 5705  16.090   9.607   8.243  0.1275  0.0719 -0.1829
  357loPI   C4A 5706  15.918   9.761   7.882 -0.0401 -0.0967  0.0872
  357loPI   C5A 5707  15.875  10.086   7.569  0.1722 -0.3736 -0.1577
  357loPI   C6A 5708  15.678  10.411   7.364 -0.0752  0.0805  0.3138
  357loPI   C1B 5709  15.229   9.359   8.865 -0.2150 -0.2245  0.0356
  357loPI   C2B 5710  15.226   9.443   8.454 -0.0056  0.1546 -0.0616
  357loPI   C3B 5711  14.951   9.620   8.208  0.1142  0.2598 -0.2749
  357loPI   C4B 5712  14.815   9.949   7.950  0.1101  0.1405 -0.1408
  358loPI    C1 5713  13.831  18.267   9.537 -0.0640 -0.1193  0.0162
  358loPI    C2 5714  14.194  18.148   9.419 -0.1093 -0.1265 -0.1170
  358loPI    C3 5715  14.158  18.427   9.703  0.0002 -0.1215 -0.1078
  358loPI   PO4 5716  13.783  18.283   9.189 -0.3069  0.0824  0.0897
  358loPI   GL1 5717  13.708  18.225   8.780  0.2781  0.0784 -0.1114
  358loPI   GL2 5718  13.700  18.599   8.836 -0.0584 -0.0992  0.0668
  358loPI   C1A 5719  13.672  18.243   8.366  0.1511  0.0053 -0.0877
  358loPI   C2A 5720  13.687  18.499   7.999 -0.0704  0.0795  0.2086
  358loPI   C3A 5721  13.626  18.488   7.594  0.3242  0.1657  0.2914
  358loPI   C4A 5722  13.492  18.448   7.112 -0.0780  0.0044 -0.0167
  358loPI   C5A 5723  13.597  18.292   6.789  0.0422  0.0278 -0.0465
  358loPI   C6A 5724  13.652  18.011   6.402  0.2861  0.1264  0.0990
  358loPI   C1B 5725  13.718  18.798   8.410 -0.1276  0.1208 -0.0849
  358loPI   C2B 5726  13.589  18.954   8.041 -0.1958  0.0884 -0.1887
  358loPI   C3B 5727  13.446  19.043   7.630 -0.0789  0.0994  0.0637
  358loPI   C4B 5728  13.228  18.893   7.239 -0.4158 -0.0149  0.0762
  359loPI    C1 5729   9.644   7.443   9.527  0.0001  0.1419 -0.1345
  359loPI    C2 5730   9.855   7.185   9.750 -0.2436 -0.0156 -0.0816
  359loPI    C3 5731   9.816   7.566   9.867 -0.1223 -0.0245 -0.0105
  359loPI   PO4 5732   9.729   7.419   9.308 -0.1523  0.0130 -0.1401
  359loPI   GL1 5733   9.874   6.978   9.218 -0.1225  0.0163  0.1242
  359loPI   GL2 5734   9.958   6.631   9.093  0.0456  0.0301  0.3763
  359loPI   C1A 5735   9.686   7.084   8.730  0.0421  0.0454 -0.3711
  359loPI   C2A 5736   9.780   7.314   8.377  0.3139  0.2255  0.0785
  359loPI   C3A 5737   9.549   7.754   8.280  0.0433 -0.0086  0.0277
  359loPI   C4A 5738   9.522   8.193   8.308  0.0001  0.1738 -0.0558
  359loPI   C5A 5739   9.468   8.661   8.407 -0.0672 -0.2491  0.3733
  359loPI   C6A 5740   9.084   9.072   8.447  0.1087 -0.2575  0.2045
  359loPI   C1B 5741   9.715   6.462   8.752  0.1887  0.0234  0.2792
  359loPI   C2B 5742   9.461   6.349   8.365  0.1177  0.1075 -0.0852
  359loPI   C3B 5743   9.294   6.270   7.908 -0.0942 -0.0099 -0.1488
  359loPI   C4B 5744   9.230   6.672   7.668 -0.0338  0.0631  0.4209
  360loPI    C1 5745   5.296   3.108   9.607 -0.0450 -0.2182  0.0262
  360loPI    C2 5746   5.651   3.000   9.758  0.1011 -0.1226 -0.2425
  360loPI    C3 5747   5.536   3.383   9.770  0.0552 -0.1359 -0.2552
  360loPI   PO4 5748   5.303   3.132   9.402  0.1426 -0.1815  0.2231
  360loPI   GL1 5749   5.318   3.405   9.112  0.0822 -0.0344  0.0862
  360loPI   GL2 5750   5.048   3.748   9.104  0.1385  0.0449 -0.4066
  360loPI   C1A 5751   5.590   3.427   8.703  0.4225  0.2442  0.0348
  360loPI   C2A 5752   5.501   3.334   8.305  0.1904 -0.1868  0.1706
  360loPI   C3A 5753   5.329   3.077   8.016 -0.1213 -0.0260 -0.1352
  360loPI   C4A 5754   5.204   3.150   7.563 -0.1199 -0.1673 -0.0861
  360loPI   C5A 5755   5.259   3.406   7.267  0.2083 -0.1007 -0.3662
  360loPI   C6A 5756   4.906   3.583   7.081 -0.1792 -0.2159 -0.2211
  360loPI   C1B 5757   5.108   3.529   8.646  0.0263 -0.0816  0.1004
  360loPI   C2B 5758   5.137   3.591   8.174  0.2052  0.1226 -0.1509
  360loPI   C3B 5759   5.357   3.573   7.821 -0.1464  0.0288 -0.2299
  360loPI   C4B 5760   5.739   3.162   7.757  0.1887  0.0480  0.1217
  361loPI    C1 5761   5.014   6.454  10.239 -0.0943  0.3639  0.3253
  361loPI    C2 5762   5.246   6.265  10.505 -0.1591 -0.2951 -0.0659
  361loPI    C3 5763   4.848   6.219  10.517 -0.1928 -0.0115 -0.0404
  361loPI   PO4 5764   5.069   6.362  10.004 -0.1884 -0.2006  0.2210
  361loPI   GL1 5765   4.846   6.192   9.645  0.0354  0.0134  0.0445
  361loPI   GL2 5766   4.649   6.227   9.498  0.0001 -0.0793  0.0809
  361loPI   C1A 5767   5.075   6.222   9.240  0.0932 -0.0779  0.2081
  361loPI   C2A 5768   5.002   6.236   8.811 -0.0341 -0.1102 -0.5204
  361loPI   C3A 5769   5.108   6.236   8.352 -0.0951  0.0295 -0.5006
  361loPI   C4A 5770   5.239   6.302   8.016 -0.3013 -0.1530  0.0839
  361loPI   C5A 5771   5.367   6.154   7.634 -0.4895  0.1653  0.0200
  361loPI   C6A 5772   5.434   6.129   7.178 -0.0695  0.0090  0.2189
  361loPI   C1B 5773   4.680   6.540   9.129 -0.2704  0.1530 -0.0298
  361loPI   C2B 5774   4.847   6.706   8.706 -0.0784 -0.1541  0.1828
  361loPI   C3B 5775   4.773   7.104   8.582 -0.1040  0.2532  0.0077
  361loPI   C4B 5776   4.616   7.402   8.824  0.0589 -0.2773 -0.0247
  362loPI    C1 5777   9.709  10.582   9.853  0.0919 -0.1707 -0.0472
  362loPI    C2 5778   9.598  10.543  10.235  0.0547  0.0653 -0.0325
  362loPI    C3 5779   9.322  10.541   9.945  0.0873 -0.1645 -0.0636
  362loPI   PO4 5780   9.847  10.439   9.809 -0.0575  0.1503  0.0686
  362loPI   GL1 5781  10.034  10.327   9.493  0.2653 -0.3056  0.2202
  362loPI   GL2 5782  10.261  10.108   9.349 -0.1519 -0.0053  0.0226
  362loPI   C1A 5783  10.037  10.461   9.102  0.4383  0.3403  0.0753
  362loPI   C2A 5784   9.916  10.427   8.652  0.1879  0.1260 -0.1514
  362loPI   C3A 5785   9.865  10.295   8.232  0.0067 -0.2524  0.0575
  362loPI   C4A 5786   9.901  10.467   7.796 -0.0450  0.0997 -0.2394
  362loPI   C5A 5787   9.930  10.228   7.488 -0.0795  0.0940 -0.1843
  362loPI   C6A 5788   9.980   9.784   7.362 -0.0829  0.0984 -0.2279
  362loPI   C1B 5789  10.204  10.064   8.834  0.4395  0.1422 -0.1075
  362loPI   C2B 5790  10.244   9.942   8.373  0.1263  0.3541 -0.0700
  362loPI   C3B 5791  10.260   9.586   8.063 -0.1139 -0.3730 -0.0500
  362loPI   C4B 5792  10.247   9.365   7.612  0.1104  0.0576  0.0256
  363loPI    C1 5793  13.076  12.356   9.960 -0.0326 -0.0464 -0.0596
  363loPI    C2 5794  12.789  12.635   9.984 -0.0435 -0.0728  0.1380
  363loPI    C3 5795  12.793  12.329  10.242  0.1550 -0.0799  0.1286
  363loPI   PO4 5796  13.132  12.402   9.662 -0.0997 -0.0539  0.0419
  363loPI   GL1 5797  12.951  12.377   9.299  0.0549  0.0401 -0.0246
  363loPI   GL2 5798  13.034  12.628   9.198  0.4335  0.1767  0.1790
  363loPI   C1A 5799  12.967  12.134   8.900  0.1983 -0.1000  0.1052
  363loPI   C2A 5800  12.895  11.989   8.556  0.1935  0.0281 -0.1551
  363loPI   C3A 5801  12.811  12.035   7.981  0.3058  0.1757  0.0781
  363loPI   C4A 5802  12.732  11.803   7.551 -0.2727  0.3195  0.1264
  363loPI   C5A 5803  12.910  11.529   7.443  0.5466 -0.2456 -0.0482
  363loPI   C6A 5804  13.022  11.268   7.132  0.0748  0.1179  0.2904
  363loPI   C1B 5805  13.114  12.652   8.797 -0.0982  0.0826  0.4283
  363loPI   C2B 5806  13.409  12.659   8.292 -0.1226 -0.2938  0.2900
  363loPI   C3B 5807  13.443  12.813   7.922  0.1758  0.1206  0.2935
  363loPI   C4B 5808  13.534  12.712   7.454 -0.0478  0.1333  0.0709
  364loPI    C1 5809  11.626  10.638  10.109 -0.0204  0.0742  0.0129
  364loPI    C2 5810  11.252  10.756  10.191 -0.1006 -0.2110  0.0674
  364loPI    C3 5811  11.442  10.506  10.439  0.1707  0.0230  0.1002
  364loPI   PO4 5812  11.635  10.515   9.873 -0.1958 -0.2857 -0.1182
  364loPI   GL1 5813  11.654  10.616   9.464 -0.2664 -0.2157 -0.0647
  364loPI   GL2 5814  11.416  10.634   9.398 -0.0676 -0.0566 -0.0281
  364loPI   C1A 5815  11.535  10.502   8.982 -0.1858  0.1987 -0.1057
  364loPI   C2A 5816  11.444  10.660   8.519 -0.1415  0.0754 -0.2573
  364loPI   C3A 5817  11.276  10.681   8.088 -0.2584 -0.0206  0.0905
  364loPI   C4A 5818  10.960  10.770   7.783  0.2553  0.0275  0.0597
  364loPI   C5A 5819  10.666  10.879   7.550 -0.2059 -0.2782 -0.1769
  364loPI   C6A 5820  10.286  11.261   7.467 -0.0624  0.1356 -0.0852
  364loPI   C1B 5821  11.185  10.871   9.037 -0.0430  0.0183  0.3394
  364loPI   C2B 5822  10.922  10.641   8.772 -0.4366 -0.1343  0.0605
  364loPI   C3B 5823  10.908  10.555   8.374  0.1280  0.4018 -0.1678
  364loPI   C4B 5824  10.686  10.213   7.955 -0.0547  0.2875  0.2483
  365loPI    C1 5825  17.208   2.588   9.770  0.1724 -0.0144 -0.1656
  365loPI    C2 5826  16.898   2.335   9.787  0.0331  0.1342 -0.4423
  365loPI    C3 5827  16.872   2.695   9.959  0.1447  0.0534 -0.2530
  365loPI   PO4 5828  17.295   2.605   9.585  0.1896 -0.0647  0.2892
  365loPI   GL1 5829  17.505   2.677   9.157  0.2935  0.0885  0.0333
  365loPI   GL2 5830  17.829   2.817   9.365  0.1562  0.3361 -0.1712
  365loPI   C1A 5831  17.463   2.969   8.795 -0.3337  0.0930  0.2339
  365loPI   C2A 5832  17.349   3.193   8.485  0.0756  0.1031  0.0943
  365loPI   C3A 5833  17.416   3.453   8.113  0.4643  0.1764  0.0052
  365loPI   C4A 5834  17.426   3.623   7.707 -0.0993 -0.1418 -0.1652
  365loPI   C5A 5835  17.245   3.846   7.372 -0.0169 -0.1282  0.1522
  365loPI   C6A 5836  17.348   3.912   7.008 -0.2904  0.3238 -0.0191
  365loPI   C1B 5837  17.884   3.042   9.003 -0.1631  0.0944  0.3755
  365loPI   C2B 5838  17.827   3.293   8.602 -0.0126  0.3540 -0.3114
  365loPI   C3B 5839  17.609   3.683   8.455  0.4625 -0.0976 -0.0688
  365loPI   C4B 5840  17.560   3.840   8.863 -0.1527 -0.1788  0.0459
  366loPI    C1 5841  13.738  15.096   9.533  0.1592 -0.2583 -0.0560
  366loPI    C2 5842  13.884  15.256   9.869 -0.0366  0.0253 -0.1019
  366loPI    C3 5843  13.868  14.858   9.826  0.3526 -0.0121  0.0615
  366loPI   PO4 5844  13.639  15.360   9.404  0.1184 -0.0262 -0.2124
  366loPI   GL1 5845  13.629  15.588   9.000  0.0082 -0.2043  0.0125
  366loPI   GL2 5846  13.435  15.828   8.912 -0.3501  0.1873  0.2230
  366loPI   C1A 5847  13.791  15.388   8.569 -0.1261 -0.3108 -0.0774
  366loPI   C2A 5848  13.654  15.315   8.229 -0.3000  0.2154 -0.1252
  366loPI   C3A 5849  13.442  15.124   7.863  0.0505  0.3689  0.1627
  366loPI   C4A 5850  13.155  14.906   7.531  0.1628 -0.0734 -0.0488
  366loPI   C5A 5851  12.871  14.891   7.211 -0.1726 -0.1619 -0.0089
  366loPI   C6A 5852  12.637  14.916   6.749  0.0206 -0.2349 -0.0689
  366loPI   C1B 5853  13.568  15.816   8.512 -0.0197 -0.0377 -0.2418
  366loPI   C2B 5854  13.620  15.847   8.121 -0.0260 -0.0403 -0.0849
  366loPI   C3B 5855  13.523  15.926   7.732  0.0756 -0.1008  0.1801
  366loPI   C4B 5856  13.682  15.932   7.261  0.0739  0.2093 -0.0223
  367loPI    C1 5857   4.942   4.494   9.868  0.2777  0.0565  0.1541
  367loPI    C2 5858   4.861   4.796  10.116  0.0900 -0.0521  0.2272
  367loPI    C3 5859   4.574   4.536  10.019  0.1692 -0.0273 -0.0822
  367loPI   PO4 5860   5.107   4.626   9.719  0.0103 -0.0042 -0.3326
  367loPI   GL1 5861   5.162   4.784   9.315 -0.0306 -0.1064 -0.0996
  367loPI   GL2 5862   5.418   4.588   9.273  0.1898  0.1026  0.1965
  367loPI   C1A 5863   5.280   5.173   9.064 -0.0687  0.0184  0.0059
  367loPI   C2A 5864   5.417   5.331   8.657  0.3435 -0.2215  0.1583
  367loPI   C3A 5865   5.130   5.529   8.337 -0.3079  0.0059 -0.0346
  367loPI   C4A 5866   5.004   5.854   8.003 -0.3213  0.0172 -0.0738
  367loPI   C5A 5867   4.923   6.097   7.689  0.2902  0.1406 -0.0365
  367loPI   C6A 5868   4.944   6.179   7.233 -0.0351 -0.1501  0.0525
  367loPI   C1B 5869   5.531   4.780   8.831 -0.0194  0.2324 -0.1425
  367loPI   C2B 5870   5.584   4.834   8.385 -0.2700 -0.2001  0.1359
  367loPI   C3B 5871   5.672   4.919   8.002 -0.2116 -0.0369  0.1476
  367loPI   C4B 5872   5.645   4.808   7.560  0.1458 -0.3598 -0.3812
  368loPI    C1 5873  19.114  16.902   9.660  0.1133 -0.2613 -0.0553
  368loPI    C2 5874  19.431  16.842   9.896  0.0060  0.1187  0.1943
  368loPI    C3 5875  19.090  16.647   9.967  0.1242 -0.1498  0.0393
  368loPI   PO4 5876  19.152  16.879   9.450 -0.1880 -0.0482  0.3923
  368loPI   GL1 5877  18.973  17.062   9.088 -0.1460  0.2285  0.1222
  368loPI   GL2 5878  19.316  17.193   8.990 -0.1665 -0.2097 -0.1485
  368loPI   C1A 5879  18.883  17.099   8.744 -0.0996 -0.0284  0.1951
  368loPI   C2A 5880  18.818  17.104   8.282 -0.1783 -0.1387 -0.0115
  368loPI   C3A 5881  18.777  17.282   7.742  0.3709 -0.0364 -0.1206
  368loPI   C4A 5882  18.852  17.530   7.332  0.0279 -0.1184  0.3910
  368loPI   C5A 5883  19.019  17.979   7.273  0.2648  0.1416 -0.2960
  368loPI   C6A 5884  19.277  18.278   7.294 -0.0524  0.0904  0.0092
  368loPI   C1B 5885  19.421  17.192   8.402 -0.2349  0.1802  0.1069
  368loPI   C2B 5886  19.563  16.995   8.105  0.0911  0.0086 -0.0716
  368loPI   C3B 5887  19.408  16.605   7.825 -0.1607 -0.2882  0.1702
  368loPI   C4B 5888  19.467  16.322   7.516 -0.0366  0.0049 -0.0668
  369loPI    C1 5889   6.603   7.218  10.110  0.2078  0.2013  0.0931
  369loPI    C2 5890   6.928   7.328  10.316  0.0878  0.2398  0.2638
  369loPI    C3 5891   6.739   6.987  10.407  0.1627  0.1450  0.0701
  369loPI   PO4 5892   6.590   7.395   9.897 -0.2486 -0.0602  0.0578
  369loPI   GL1 5893   6.429   7.419   9.540 -0.0190  0.2566  0.1488
  369loPI   GL2 5894   6.568   7.692   9.409  0.1375  0.1917 -0.0213
  369loPI   C1A 5895   6.206   7.275   9.237 -0.1555  0.0480  0.1730
  369loPI   C2A 5896   6.238   7.267   8.861  0.0140 -0.1317 -0.3303
  369loPI   C3A 5897   6.216   6.973   8.554  0.0312  0.1886  0.1889
  369loPI   C4A 5898   6.575   6.804   8.389  0.0346 -0.0823  0.0240
  369loPI   C5A 5899   6.719   6.430   8.430  0.2560  0.3466 -0.0573
  369loPI   C6A 5900   6.913   6.173   8.647  0.1928 -0.1200 -0.2464
  369loPI   C1B 5901   6.318   7.865   9.120 -0.1725 -0.3528 -0.0118
  369loPI   C2B 5902   6.201   7.775   8.695  0.2089 -0.1152 -0.2271
  369loPI   C3B 5903   5.945   7.799   8.302 -0.1656  0.0673  0.1623
  369loPI   C4B 5904   5.981   7.770   7.881 -0.1830 -0.0297 -0.0943
  370loPI    C1 5905   1.862   3.723   9.452  0.5574  0.2278  0.1061
  370loPI    C2 5906   2.007   4.095   9.421 -0.0036  0.4572  0.1127
  370loPI    C3 5907   1.726   4.012   9.694 -0.0939  0.0976 -0.0834
  370loPI   PO4 5908   1.805   3.654   9.148 -0.0307 -0.4402  0.2753
  370loPI   GL1 5909   1.988   3.667   8.803  0.0512 -0.0276  0.1729
  370loPI   GL2 5910   2.448   3.547   8.763 -0.3587 -0.1298  0.3755
  370loPI   C1A 5911   1.830   3.640   8.327 -0.0484 -0.0606  0.0118
  370loPI   C2A 5912   1.786   3.606   7.818  0.1499  0.1243 -0.1425
  370loPI   C3A 5913   1.703   3.850   7.446  0.1557 -0.3887  0.0412
  370loPI   C4A 5914   1.529   4.047   7.205 -0.1254  0.1678 -0.1326
  370loPI   C5A 5915   1.104   4.133   6.983 -0.0741  0.1407 -0.1717
  370loPI   C6A 5916   0.876   3.815   6.826  0.1237  0.2067 -0.2003
  370loPI   C1B 5917   2.335   3.790   8.373  0.1472 -0.1783  0.2329
  370loPI   C2B 5918   2.274   3.839   7.906  0.3852 -0.0675  0.2246
  370loPI   C3B 5919   2.099   4.130   7.589  0.3900 -0.0859  0.0467
  370loPI   C4B 5920   2.010   4.199   7.175 -0.0371 -0.1407  0.1153
  371loPI    C1 5921  10.252  17.813  10.228  0.0083 -0.0175 -0.0335
  371loPI    C2 5922  10.557  17.709  10.465  0.2992  0.2794 -0.2691
  371loPI    C3 5923  10.233  17.476  10.443  0.3923  0.0963  0.1887
  371loPI   PO4 5924  10.331  17.827   9.997 -0.0445 -0.1772  0.2762
  371loPI   GL1 5925  10.504  17.609   9.591  0.1650 -0.2203 -0.1139
  371loPI   GL2 5926  10.364  17.647   9.394  0.1081  0.1504  0.0815
  371loPI   C1A 5927  10.817  17.412   9.270  0.2792  0.0375  0.3814
  371loPI   C2A 5928  11.135  17.248   8.986 -0.1228 -0.0493  0.2071
  371loPI   C3A 5929  11.211  17.021   8.689 -0.0200 -0.1686 -0.1668
  371loPI   C4A 5930  10.853  17.074   8.383  0.1521 -0.0373  0.2753
  371loPI   C5A 5931  10.722  17.291   7.996  0.0706 -0.0213 -0.1496
  371loPI   C6A 5932  10.708  17.396   7.544 -0.0084 -0.1128  0.2307
  371loPI   C1B 5933  10.351  17.598   8.918 -0.0232  0.0216  0.1953
  371loPI   C2B 5934  10.719  17.474   8.739  0.0005 -0.0091  0.1552
  371loPI   C3B 5935  10.975  17.591   8.311 -0.2644  0.1103 -0.0070
  371loPI   C4B 5936  11.112  17.476   7.794 -0.1179  0.0056  0.1189
  372loPI    C1 5937   2.893  17.137   9.973  0.0366  0.0931  0.0687
  372loPI    C2 5938   2.950  16.761  10.097  0.1660  0.0273 -0.1843
  372loPI    C3 5939   3.193  17.053  10.224 -0.0751  0.0697  0.1959
  372loPI   PO4 5940   2.847  17.022   9.654  0.3576  0.0191  0.0853
  372loPI   GL1 5941   2.795  16.876   9.220 -0.4570 -0.1336 -0.1003
  372loPI   GL2 5942   2.516  17.051   8.999  0.0677 -0.0983  0.1769
  372loPI   C1A 5943   3.112  16.701   8.881 -0.1614 -0.0048  0.0261
  372loPI   C2A 5944   3.306  16.869   8.521 -0.2745  0.2026  0.1056
  372loPI   C3A 5945   3.184  16.868   8.040 -0.2661 -0.3661 -0.1649
  372loPI   C4A 5946   3.073  17.088   7.730 -0.5483  0.3564  0.0759
  372loPI   C5A 5947   3.226  17.304   7.326 -0.3115 -0.0449 -0.0270
  372loPI   C6A 5948   3.007  17.622   7.157  0.1142  0.0217 -0.3378
  372loPI   C1B 5949   2.776  16.979   8.579  0.1422  0.2416  0.0193
  372loPI   C2B 5950   2.658  17.305   8.272  0.0562  0.1029  0.2261
  372loPI   C3B 5951   2.718  17.456   7.818  0.0597 -0.1003 -0.0326
  372loPI   C4B 5952   2.476  17.549   7.473 -0.4238 -0.2370 -0.2617
  373loPI    C1 5953   5.253  12.332  10.310  0.2320 -0.0762  0.1746
  373loPI    C2 5954   5.486  12.654  10.360 -0.0206  0.1063  0.1927
  373loPI    C3 5955   5.271  12.513  10.667 -0.1461  0.1068  0.1060
  373loPI   PO4 5956   5.032  12.417  10.100 -0.2993  0.3761  0.0501
  373loPI   GL1 5957   4.775  12.166   9.912 -0.1563  0.1471  0.0025
  373loPI   GL2 5958   4.869  11.853  10.009 -0.2215  0.2466 -0.0222
  373loPI   C1A 5959   4.653  12.164   9.576  0.1175  0.1165 -0.2976
  373loPI   C2A 5960   4.626  12.256   9.076  0.0059 -0.0932 -0.0897
  373loPI   C3A 5961   4.668  12.140   8.636 -0.0348 -0.2008  0.0740
  373loPI   C4A 5962   4.697  12.078   8.177 -0.1853  0.0191 -0.2899
  373loPI   C5A 5963   4.691  12.114   7.838 -0.2310 -0.3780  0.2122
  373loPI   C6A 5964   5.080  12.176   7.572 -0.2699 -0.1455 -0.1840
  373loPI   C1B 5965   4.521  11.714   9.739 -0.1157 -0.1445  0.1545
  373loPI   C2B 5966   4.516  11.671   9.280 -0.0478 -0.0145  0.1630
  373loPI   C3B 5967   4.506  11.569   8.806  0.1637  0.0695 -0.1138
  373loPI   C4B 5968   4.558  11.695   8.392 -0.2229  0.1190  0.3235
  374loPI    C1 5969   9.959  16.820   9.982 -0.1709  0.3643 -0.0135
  374loPI    C2 5970   9.610  16.737  10.158 -0.1157  0.2445  0.0403
  374loPI    C3 5971   9.809  17.069  10.257 -0.0668  0.1594  0.2323
  374loPI   PO4 5972   9.950  16.812   9.643  0.1506 -0.0613  0.1626
  374loPI   GL1 5973   9.872  16.392   9.318 -0.2704 -0.1939 -0.1650
  374loPI   GL2 5974   9.589  16.319   9.258 -0.0060 -0.2840  0.2773
  374loPI   C1A 5975   9.923  16.538   8.960  0.2319  0.4232  0.1189
  374loPI   C2A 5976   9.839  16.589   8.540 -0.0730  0.0295 -0.1730
  374loPI   C3A 5977  10.076  16.701   8.265  0.0682  0.1222  0.1158
  374loPI   C4A 5978   9.939  16.742   7.752 -0.2052 -0.1564  0.1108
  374loPI   C5A 5979  10.019  16.550   7.314 -0.0377 -0.1893 -0.2452
  374loPI   C6A 5980  10.010  16.793   6.930  0.1152  0.1573 -0.0898
  374loPI   C1B 5981   9.459  16.216   8.824 -0.0857 -0.0511 -0.1186
  374loPI   C2B 5982   9.527  15.845   8.647 -0.3164 -0.0919  0.0998
  374loPI   C3B 5983   9.442  15.694   8.292  0.3694 -0.0748 -0.0234
  374loPI   C4B 5984   9.290  15.516   7.862 -0.2311 -0.0695  0.0110
  375loPI    C1 5985   5.582  17.498  10.012 -0.1443  0.0283 -0.0024
  375loPI    C2 5986   5.743  17.249  10.280 -0.0320  0.1338  0.0290
  375loPI    C3 5987   5.408  17.448  10.368 -0.1507 -0.0445 -0.0156
  375loPI   PO4 5988   5.664  17.360   9.763  0.1201  0.0037  0.0755
  375loPI   GL1 5989   5.841  17.409   9.380  0.0337 -0.1607 -0.3403
  375loPI   GL2 5990   5.794  17.645   9.222 -0.0224 -0.0746 -0.2773
  375loPI   C1A 5991   5.933  17.227   9.064 -0.0815  0.0797 -0.1473
  375loPI   C2A 5992   5.821  17.203   8.695 -0.0858 -0.2092  0.0725
  375loPI   C3A 5993   5.907  17.222   8.242 -0.2439  0.0033 -0.1443
  375loPI   C4A 5994   5.977  17.111   7.860 -0.0214 -0.1623  0.1594
  375loPI   C5A 5995   6.017  17.103   7.388 -0.0306 -0.0323 -0.1206
  375loPI   C6A 5996   5.924  17.376   7.044  0.1970 -0.0447  0.0792
  375loPI   C1B 5997   5.673  17.671   8.948  0.1441  0.0085  0.3890
  375loPI   C2B 5998   5.725  17.662   8.504  0.2809 -0.3061  0.0218
  375loPI   C3B 5999   5.678  17.615   8.078 -0.1426 -0.2492 -0.0469
  375loPI   C4B 6000   5.671  17.591   7.685 -0.1344 -0.2330  0.3922
  376loPI    C1 6001  15.911  19.068   9.480  0.2327  0.1799  0.2698
  376loPI    C2 6002  15.917  18.845   9.812  0.1295 -0.0518  0.1186
  376loPI    C3 6003  15.644  19.135   9.771  0.0851 -0.0819  0.1985
  376loPI   PO4 6004  15.906  18.776   9.290  0.1951  0.1608  0.1068
  376loPI   GL1 6005  15.994  18.747   8.896  0.0919 -0.0190  0.1639
  376loPI   GL2 6006  15.819  18.623   8.749 -0.1524 -0.1622 -0.2960
  376loPI   C1A 6007  16.006  18.923   8.435  0.1088 -0.3590  0.0958
  376loPI   C2A 6008  15.968  18.927   8.004  0.0668 -0.0373  0.4978
  376loPI   C3A 6009  15.980  18.800   7.594 -0.0927 -0.1387 -0.1236
  376loPI   C4A 6010  15.753  18.846   7.156  0.1543 -0.1553 -0.3737
  376loPI   C5A 6011  15.954  18.953   6.804  0.0840  0.0496 -0.2628
  376loPI   C6A 6012  15.920  19.285   6.443  0.1901 -0.1363 -0.0958
  376loPI   C1B 6013  15.740  18.440   8.481 -0.0202 -0.2531  0.3304
  376loPI   C2B 6014  15.756  18.416   8.052  0.0104  0.3271  0.2335
  376loPI   C3B 6015  15.867  18.308   7.652 -0.0189  0.2678 -0.0357
  376loPI   C4B 6016  15.884  18.313   7.320 -0.2667 -0.0736 -0.0341
  377loPI    C1 6017  11.890  16.765   9.727  0.0990  0.0855 -0.0628
  377loPI    C2 6018  11.565  16.620   9.545  0.0479  0.0972  0.0184
  377loPI    C3 6019  11.527  16.888   9.839  0.1311  0.0943  0.0320
  377loPI   PO4 6020  12.010  16.853   9.474  0.0481 -0.2120 -0.1772
  377loPI   GL1 6021  11.907  16.794   9.084  0.1896 -0.2597  0.0138
  377loPI   GL2 6022  11.703  17.021   9.155  0.1615 -0.1813  0.3628
  377loPI   C1A 6023  11.759  16.947   8.698 -0.3597  0.2082 -0.0431
  377loPI   C2A 6024  11.522  16.952   8.236  0.2299  0.1673 -0.0586
  377loPI   C3A 6025  11.250  17.127   8.074  0.1145 -0.3475 -0.2505
  377loPI   C4A 6026  11.238  16.963   7.628  0.1777  0.0848 -0.2447
  377loPI   C5A 6027  10.988  17.133   7.223 -0.0585 -0.1312 -0.3309
  377loPI   C6A 6028  11.064  17.365   6.912  0.1977 -0.1296  0.2698
  377loPI   C1B 6029  11.300  16.731   9.054 -0.1170  0.1521  0.0399
  377loPI   C2B 6030  10.974  16.400   8.889  0.4764 -0.0271  0.3088
  377loPI   C3B 6031  10.887  16.258   8.495 -0.1959  0.0973  0.1480
  377loPI   C4B 6032  10.805  16.139   8.118  0.1106 -0.1680  0.0635
  378loPI    C1 6033  17.956   3.197   9.797  0.0346  0.0063  0.0144
  378loPI    C2 6034  18.339   3.273   9.883 -0.0009  0.0866  0.1037
  378loPI    C3 6035  18.099   3.113  10.160  0.0490 -0.2703 -0.0532
  378loPI   PO4 6036  17.894   3.427   9.657  0.0368 -0.2449 -0.1593
  378loPI   GL1 6037  17.955   3.578   9.160  0.0743  0.1339  0.0191
  378loPI   GL2 6038  18.177   3.846   9.106 -0.0137 -0.2589 -0.2124
  378loPI   C1A 6039  18.296   3.350   9.006  0.4664 -0.0918 -0.0468
  378loPI   C2A 6040  18.316   2.979   8.636 -0.0709 -0.1669 -0.4598
  378loPI   C3A 6041  18.163   3.026   8.188  0.0423  0.2496 -0.0413
  378loPI   C4A 6042  17.894   3.046   7.803 -0.1970  0.0437 -0.0656
  378loPI   C5A 6043  17.694   2.765   7.596  0.0094 -0.1852 -0.0901
  378loPI   C6A 6044  17.726   2.510   7.236  0.0468 -0.3158 -0.0950
  378loPI   C1B 6045  18.313   3.748   8.708  0.1841 -0.0877  0.2572
  378loPI   C2B 6046  18.126   3.875   8.346  0.0365  0.0433  0.1862
  378loPI   C3B 6047  17.846   3.965   7.981  0.3138 -0.1339  0.1896
  378loPI   C4B 6048  17.588   4.111   7.687  0.0546  0.1310 -0.0013
  379loPI    C1 6049  19.430  10.306   9.935 -0.0124  0.0194  0.2300
  379loPI    C2 6050  19.161  10.070  10.114 -0.0748 -0.1305 -0.0556
  379loPI    C3 6051  19.147  10.466  10.168 -0.3406 -0.1388 -0.0500
  379loPI   PO4 6052  19.527  10.145   9.762  0.1393 -0.2388 -0.2321
  379loPI   GL1 6053  19.471  10.242   9.344  0.0918 -0.0776  0.1567
  379loPI   GL2 6054  19.406   9.964   9.305 -0.3210 -0.0619 -0.1061
  379loPI   C1A 6055  19.142  10.133   8.924 -0.1842  0.0015 -0.1434
  379loPI   C2A 6056  18.875  10.179   8.571 -0.2198 -0.3095  0.0344
  379loPI   C3A 6057  18.666  10.515   8.332 -0.2904  0.1956  0.0301
  379loPI   C4A 6058  18.333  10.640   8.085  0.1380  0.4440 -0.2043
  379loPI   C5A 6059  18.315  10.811   7.812  0.0325 -0.0759 -0.0930
  379loPI   C6A 6060  18.129  10.830   7.345 -0.6256 -0.1710  0.0693
  379loPI   C1B 6061  19.540   9.632   8.992 -0.1374 -0.0651  0.1300
  379loPI   C2B 6062  19.637   9.529   8.512 -0.1017  0.2815  0.0457
  379loPI   C3B 6063  19.900   9.703   8.192  0.1760 -0.2254  0.1938
  379loPI   C4B 6064  19.784   9.933   7.850 -0.0769 -0.1180 -0.1708
  380loPI    C1 6065  17.794  15.881   9.147  0.2831 -0.0554  0.2507
  380loPI    C2 6066  17.535  15.597   9.257  0.1750 -0.0349  0.0532
  380loPI    C3 6067  17.735  15.803   9.535 -0.0506 -0.0227  0.2095
  380loPI   PO4 6068  17.973  15.793   9.032  0.4070 -0.0318 -0.2520
  380loPI   GL1 6069  18.150  15.847   8.692  0.1736 -0.0044  0.1309
  380loPI   GL2 6070  17.884  15.610   8.572  0.1354  0.2752 -0.1543
  380loPI   C1A 6071  18.171  15.987   8.331  0.1280 -0.3448 -0.3344
  380loPI   C2A 6072  18.196  15.985   8.000  0.0547 -0.2667 -0.0817
  380loPI   C3A 6073  18.358  15.677   7.694  0.1388 -0.1986 -0.4311
  380loPI   C4A 6074  18.384  15.883   7.336 -0.1597 -0.0941  0.0497
  380loPI   C5A 6075  18.142  15.893   7.031 -0.0953  0.0280  0.0538
  380loPI   C6A 6076  18.134  16.187   6.689  0.1698  0.1309 -0.1058
  380loPI   C1B 6077  17.829  15.573   8.167  0.1064 -0.1301  0.0661
  380loPI   C2B 6078  17.845  15.614   7.707 -0.1610 -0.0666 -0.1513
  380loPI   C3B 6079  17.763  15.768   7.371 -0.1025 -0.0458 -0.0572
  380loPI   C4B 6080  17.672  15.800   6.977  0.1136  0.4046 -0.1013
  381loPI    C1 6081   0.360   3.873  10.038  0.2020  0.0717  0.1704
  381loPI    C2 6082   0.155   3.589  10.230  0.1164  0.0997  0.1213
  381loPI    C3 6083   0.352   3.868  10.438  0.0606  0.1041  0.1686
  381loPI   PO4 6084   0.196   3.749   9.795  0.3225 -0.0646  0.1477
  381loPI   GL1 6085   0.337   3.580   9.399 -0.2334  0.3048  0.0751
  381loPI   GL2 6086   0.044   3.722   9.315 -0.1325  0.3046  0.0378
  381loPI   C1A 6087   0.314   3.602   8.953 -0.3056 -0.0784 -0.1055
  381loPI   C2A 6088   0.025   3.453   8.608  0.0486  0.2225 -0.3271
  381loPI   C3A 6089   0.021   3.516   8.257 -0.4038  0.1228 -0.0319
  381loPI   C4A 6090  -0.239   3.319   7.899  0.3905  0.1904  0.1233
  381loPI   C5A 6091  -0.377   3.117   7.484 -0.0292 -0.0468  0.1025
  381loPI   C6A 6092  -0.861   3.128   7.502 -0.1759 -0.0307  0.0884
  381loPI   C1B 6093  -0.235   3.699   9.008 -0.3741 -0.1075 -0.1654
  381loPI   C2B 6094  -0.446   3.634   8.538 -0.2165 -0.0444 -0.0065
  381loPI   C3B 6095  -0.545   3.588   8.133 -0.1400  0.1652  0.0565
  381loPI   C4B 6096  -0.624   3.519   7.694 -0.4138  0.1223  0.1087
  382loPI    C1 6097  17.108   3.097   9.803  0.0860 -0.0827 -0.1463
  382loPI    C2 6098  17.463   2.964   9.931  0.0420 -0.0799 -0.0198
  382loPI    C3 6099  17.369   3.352   9.966 -0.0143 -0.0989  0.0426
  382loPI   PO4 6100  17.013   2.987   9.514 -0.1963 -0.0710 -0.1181
  382loPI   GL1 6101  17.065   2.932   9.111 -0.0719 -0.0883 -0.0906
  382loPI   GL2 6102  16.944   2.591   9.191  0.2414 -0.2391  0.0278
  382loPI   C1A 6103  16.952   3.157   8.865 -0.2054  0.0317  0.1488
  382loPI   C2A 6104  16.904   2.945   8.379  0.1830 -0.0137 -0.1900
  382loPI   C3A 6105  16.737   3.036   8.012  0.0191  0.1635 -0.1308
  382loPI   C4A 6106  16.810   2.793   7.656 -0.1320 -0.0906  0.0674
  382loPI   C5A 6107  16.524   2.468   7.674  0.2773  0.0533 -0.0610
  382loPI   C6A 6108  16.318   2.086   7.509  0.0585 -0.0423  0.1111
  382loPI   C1B 6109  16.748   2.618   8.850  0.0415  0.1395 -0.0911
  382loPI   C2B 6110  16.398   2.524   8.709 -0.2913  0.1652  0.2089
  382loPI   C3B 6111  16.098   2.464   8.387  0.2886  0.1097 -0.3344
  382loPI   C4B 6112  16.056   2.297   7.981  0.0378 -0.1892 -0.1915
  383loPI    C1 6113  11.590   5.227  10.030 -0.0007  0.0831 -0.3302
  383loPI    C2 6114  11.903   5.282  10.273  0.0089 -0.3284 -0.2423
  383loPI    C3 6115  11.581   5.516  10.307  0.0361 -0.3379  0.1257
  383loPI   PO4 6116  11.652   5.061   9.779 -0.3890 -0.1897 -0.0651
  383loPI   GL1 6117  11.758   5.024   9.418 -0.0590 -0.1713  0.2702
  383loPI   GL2 6118  11.782   5.357   9.314 -0.0728  0.2244  0.1924
  383loPI   C1A 6119  11.898   4.941   8.892 -0.2415  0.0146 -0.1202
  383loPI   C2A 6120  12.097   4.637   8.645  0.0365  0.0323 -0.0003
  383loPI   C3A 6121  12.260   4.524   8.198  0.0508  0.1979  0.0249
  383loPI   C4A 6122  12.194   4.500   7.684 -0.2014  0.1622 -0.0884
  383loPI   C5A 6123  12.043   4.148   7.564 -0.2840  0.0730  0.2364
  383loPI   C6A 6124  12.167   3.763   7.592  0.2357 -0.1077  0.0424
  383loPI   C1B 6125  11.957   5.515   8.937 -0.0441  0.2403  0.0790
  383loPI   C2B 6126  11.981   5.736   8.521 -0.2098 -0.0070 -0.1503
  383loPI   C3B 6127  12.109   5.615   8.082 -0.2839 -0.1153 -0.0812
  383loPI   C4B 6128  12.250   5.421   7.690  0.1045 -0.2705  0.2897
  384loPI    C1 6129   9.243   8.608  10.084 -0.2978 -0.2374  0.1802
  384loPI    C2 6130   9.303   8.806  10.426  0.0630  0.0643 -0.0497
  384loPI    C3 6131   9.457   8.440  10.377 -0.3938 -0.1819  0.2827
  384loPI   PO4 6132   9.255   8.748   9.893  0.2235 -0.0440  0.1910
  384loPI   GL1 6133   9.186   9.031   9.486  0.2472  0.0820  0.0415
  384loPI   GL2 6134   9.231   9.269   9.340  0.4065 -0.1946 -0.0037
  384loPI   C1A 6135   8.820   8.818   9.119  0.2325  0.0051  0.0181
  384loPI   C2A 6136   8.845   8.688   8.720  0.3894 -0.0121  0.0604
  384loPI   C3A 6137   8.932   8.585   8.310  0.0164  0.3957  0.0351
  384loPI   C4A 6138   8.964   8.511   7.927 -0.1586  0.0344 -0.0462
  384loPI   C5A 6139   9.221   8.789   7.616  0.0129  0.1795 -0.2527
  384loPI   C6A 6140   9.119   8.908   7.197 -0.2177 -0.0267  0.1565
  384loPI   C1B 6141   9.203   9.159   8.955  0.2306 -0.3267  0.2123
  384loPI   C2B 6142   9.252   8.824   8.821  0.1476 -0.0204 -0.0596
  384loPI   C3B 6143   9.552   8.332   8.909 -0.2550  0.1435  0.1043
  384loPI   C4B 6144   9.528   7.878   8.771 -0.2430 -0.0116  0.0342
  385loPI    C1 6145  11.167  15.117   9.911  0.2441 -0.1870  0.1412
  385loPI    C2 6146  11.129  15.215  10.297  0.1335  0.0533  0.0715
  385loPI    C3 6147  11.173  14.832  10.191  0.1139 -0.0189  0.3181
  385loPI   PO4 6148  11.273  15.393   9.820  0.1961 -0.4883 -0.2852
  385loPI   GL1 6149  11.368  15.563   9.440  0.2635 -0.3247  0.3044
  385loPI   GL2 6150  11.727  15.709   9.302 -0.0897  0.2909 -0.2869
  385loPI   C1A 6151  11.334  15.506   9.069 -0.3639 -0.4029  0.0890
  385loPI   C2A 6152  11.203  15.408   8.612 -0.0353 -0.0011 -0.2205
  385loPI   C3A 6153  11.141  15.245   8.212  0.0614  0.0214  0.2396
  385loPI   C4A 6154  11.348  15.152   7.824  0.2857 -0.0769 -0.2533
  385loPI   C5A 6155  11.422  14.957   7.473 -0.2392 -0.0006  0.0071
  385loPI   C6A 6156  11.384  14.976   7.054  0.2576 -0.1225  0.0354
  385loPI   C1B 6157  11.469  15.907   8.881 -0.1091  0.0593  0.1326
  385loPI   C2B 6158  11.311  16.050   8.490  0.0566  0.4050 -0.2447
  385loPI   C3B 6159  11.337  16.030   8.039 -0.0321 -0.0861  0.2209
  385loPI   C4B 6160  11.430  15.641   7.842 -0.0560  0.2324  0.1603
  386loPI    C1 6161   9.556  18.968   9.665  0.1668 -0.3557  0.0663
  386loPI    C2 6162   9.560  19.294   9.896 -0.0753 -0.3530  0.0692
  386loPI    C3 6163   9.853  19.234   9.631 -0.1062 -0.0575 -0.0358
  386loPI   PO4 6164   9.373  18.931   9.466  0.0727 -0.2545  0.0790
  386loPI   GL1 6165   9.330  18.948   9.024  0.0672 -0.0166 -0.0986
  386loPI   GL2 6166   9.057  19.078   8.964 -0.3408  0.1966  0.1879
  386loPI   C1A 6167   9.634  19.156   8.783 -0.0471  0.3305  0.3295
  386loPI   C2A 6168   9.979  19.041   8.448 -0.0689  0.0073  0.0358
  386loPI   C3A 6169  10.141  19.161   8.016 -0.1087 -0.2801  0.0416
  386loPI   C4A 6170   9.981  19.179   7.596 -0.1435 -0.1803 -0.2113
  386loPI   C5A 6171  10.011  19.542   7.173 -0.0607 -0.2837  0.0478
  386loPI   C6A 6172   9.802  19.641   6.801  0.1955  0.0973 -0.1683
  386loPI   C1B 6173   9.176  19.424   8.707  0.2387 -0.1886 -0.2039
  386loPI   C2B 6174   9.093  19.798   8.501 -0.0954  0.1193 -0.0210
  386loPI   C3B 6175   8.789  19.952   8.149 -0.0709  0.3039 -0.0334
  386loPI   C4B 6176   8.497  19.714   7.749 -0.1050 -0.0126  0.0206
  387loPI    C1 6177  12.321   6.489   9.705 -0.0550 -0.0244  0.0404
  387loPI    C2 6178  12.484   6.224   9.957 -0.0786  0.0403  0.1244
  387loPI    C3 6179  12.283   6.538  10.101  0.1479  0.2307  0.0310
  387loPI   PO4 6180  12.452   6.560   9.478  0.1991  0.3275  0.0129
  387loPI   GL1 6181  12.710   6.478   9.205 -0.0113  0.3492  0.4243
  387loPI   GL2 6182  12.935   6.655   9.287  0.2212 -0.2067  0.0659
  387loPI   C1A 6183  12.587   6.358   8.780  0.1709 -0.1746 -0.3286
  387loPI   C2A 6184  12.495   6.505   8.449  0.1945  0.0496 -0.0537
  387loPI   C3A 6185  12.547   6.538   8.032  0.1700  0.4648  0.1432
  387loPI   C4A 6186  12.866   6.651   7.870  0.0112 -0.2053  0.1385
  387loPI   C5A 6187  13.250   6.849   7.787 -0.0175  0.2041 -0.3965
  387loPI   C6A 6188  13.577   7.090   7.398  0.0040  0.1192  0.0983
  387loPI   C1B 6189  13.066   6.733   8.910 -0.0959  0.1509  0.2928
  387loPI   C2B 6190  12.942   6.770   8.462 -0.3255  0.1202  0.2173
  387loPI   C3B 6191  13.274   6.482   8.113  0.1715  0.1505 -0.0980
  387loPI   C4B 6192  13.174   6.322   7.792 -0.0480 -0.1581 -0.2614
  388loPI    C1 6193   0.117  11.299   9.984  0.1297 -0.0439  0.0327
  388loPI    C2 6194   0.163  10.980  10.221 -0.2476 -0.1373 -0.0138
  388loPI    C3 6195   0.238  11.346  10.363 -0.1099 -0.2211  0.1340
  388loPI   PO4 6196   0.123  11.273   9.805 -0.1480  0.0935  0.0452
  388loPI   GL1 6197   0.239  11.087   9.485  0.2334  0.2783 -0.0514
  388loPI   GL2 6198   0.280  11.290   9.208  0.3250 -0.1405  0.3538
  388loPI   C1A 6199   0.102  10.720   9.265  0.1349 -0.1309 -0.2894
  388loPI   C2A 6200   0.123  10.613   8.820  0.0370 -0.0993  0.3617
  388loPI   C3A 6201  -0.212  10.435   8.585  0.0094  0.1506 -0.0724
  388loPI   C4A 6202  -0.387  10.303   8.169  0.1948 -0.1754  0.1622
  388loPI   C5A 6203  -0.647  10.547   7.793 -0.0195 -0.1317 -0.0694
  388loPI   C6A 6204  -0.488  10.728   7.414  0.0188 -0.2811  0.0042
  388loPI   C1B 6205   0.234  11.134   8.844 -0.0848 -0.0490 -0.2749
  388loPI   C2B 6206   0.230  10.962   8.412 -0.3398  0.0961 -0.0851
  388loPI   C3B 6207   0.418  10.952   7.962  0.2153 -0.0919  0.1208
  388loPI   C4B 6208   0.869  10.849   7.767  0.2377  0.0773  0.2414
  389loPI    C1 6209  17.370   7.200  10.729  0.2256 -0.2763  0.0890
  389loPI    C2 6210  17.190   6.923  10.955 -0.5217 -0.0522 -0.2000
  389loPI    C3 6211  17.146   7.311  11.042 -0.3001  0.0134 -0.3720
  389loPI   PO4 6212  17.340   7.040  10.428 -0.0941  0.0332  0.0942
  389loPI   GL1 6213  17.461   7.107   9.889 -0.0482 -0.1888 -0.0281
  389loPI   GL2 6214  17.698   7.257   9.640 -0.2150  0.0098  0.1967
  389loPI   C1A 6215  17.390   6.913   9.440 -0.2134 -0.3725 -0.0831
  389loPI   C2A 6216  17.510   6.894   9.053 -0.2538  0.1073 -0.4487
  389loPI   C3A 6217  17.464   6.964   8.531 -0.2575 -0.0810 -0.2003
  389loPI   C4A 6218  17.348   7.038   8.074 -0.1147 -0.0977  0.3653
  389loPI   C5A 6219  17.469   7.066   7.613 -0.0305  0.0864  0.0522
  389loPI   C6A 6220  17.875   7.213   7.431  0.0792  0.0792 -0.2867
  389loPI   C1B 6221  17.872   7.253   9.225 -0.1490 -0.1470 -0.1203
  389loPI   C2B 6222  17.783   7.286   8.791 -0.2625  0.0281  0.4598
  389loPI   C3B 6223  17.806   7.340   8.324  0.0976  0.0231  0.3133
  389loPI   C4B 6224  17.638   7.385   7.973 -0.1168 -0.1035 -0.1367
  390loPI    C1 6225   6.292  11.081  10.199  0.1490 -0.0437 -0.0984
  390loPI    C2 6226   5.984  11.170  10.439  0.0983 -0.0599 -0.1572
  390loPI    C3 6227   6.216  10.855  10.521  0.1785  0.0288 -0.0402
  390loPI   PO4 6228   6.196  11.190  10.008 -0.0072  0.2361 -0.0103
  390loPI   GL1 6229   6.398  11.438   9.749 -0.0497 -0.0407  0.2447
  390loPI   GL2 6230   6.034  11.526   9.664 -0.1801 -0.0590  0.0571
  390loPI   C1A 6231   6.691  11.447   9.373  0.0490 -0.1745  0.0448
  390loPI   C2A 6232   6.757  11.500   8.916 -0.1647  0.1003 -0.0802
  390loPI   C3A 6233   6.871  11.558   8.484 -0.1699 -0.0652  0.0696
  390loPI   C4A 6234   6.686  11.625   8.068  0.0450 -0.0486  0.0289
  390loPI   C5A 6235   6.913  11.410   7.747 -0.1224  0.2803 -0.2391
  390loPI   C6A 6236   7.200  11.169   7.469 -0.1612 -0.1132 -0.0467
  390loPI   C1B 6237   6.242  11.599   9.235 -0.0414  0.0561 -0.0499
  390loPI   C2B 6238   6.237  11.593   8.790 -0.1775  0.0592 -0.2683
  390loPI   C3B 6239   6.402  11.610   8.454  0.1954  0.2056 -0.1562
  390loPI   C4B 6240   6.532  11.182   8.203  0.2095  0.3935  0.2427
  391loPI    C1 6241  12.781   0.521   9.254  0.0300  0.0113 -0.2100
  391loPI    C2 6242  12.924   0.176   9.110 -0.1058 -0.1034 -0.0731
  391loPI    C3 6243  12.788   0.195   9.486  0.1433  0.1658  0.0071
  391loPI   PO4 6244  12.762   0.632   8.970  0.0851 -0.2425  0.4413
  391loPI   GL1 6245  12.795   1.037   8.916 -0.0405  0.1513 -0.1150
  391loPI   GL2 6246  13.043   1.070   8.731  0.1586  0.2338  0.2009
  391loPI   C1A 6247  12.640   0.942   8.427  0.1246 -0.2597 -0.0410
  391loPI   C2A 6248  12.660   1.061   7.976 -0.3281  0.0525 -0.1185
  391loPI   C3A 6249  12.695   1.442   7.796 -0.0888  0.1040  0.1983
  391loPI   C4A 6250  12.692   1.870   7.575 -0.2309  0.3048  0.2127
  391loPI   C5A 6251  12.537   1.954   7.101 -0.2711 -0.1562 -0.1045
  391loPI   C6A 6252  12.299   2.096   6.826 -0.1786  0.0827 -0.1727
  391loPI   C1B 6253  13.105   1.084   8.319 -0.2804  0.2376 -0.0131
  391loPI   C2B 6254  13.108   0.851   7.940 -0.1877  0.3344  0.2489
  391loPI   C3B 6255  13.377   0.853   7.579  0.1706  0.3738 -0.1319
  391loPI   C4B 6256  13.734   0.805   7.281 -0.0685 -0.2173 -0.0173
  392loPI    C1 6257  14.237  11.088   9.840  0.2181  0.1181 -0.1452
  392loPI    C2 6258  14.152  11.113  10.230 -0.0672 -0.0638 -0.1922
  392loPI    C3 6259  14.532  11.139  10.105  0.0301 -0.0458  0.0997
  392loPI   PO4 6260  14.124  10.928   9.799 -0.4183 -0.2748  0.2232
  392loPI   GL1 6261  13.998  10.831   9.404 -0.1063  0.1542 -0.0013
  392loPI   GL2 6262  14.253  11.067   9.300 -0.0282  0.2883 -0.3874
  392loPI   C1A 6263  13.908  10.759   8.933 -0.1327  0.0563  0.1857
  392loPI   C2A 6264  13.730  10.813   8.599  0.0381  0.0194  0.0846
  392loPI   C3A 6265  13.551  10.796   8.181 -0.0576 -0.2410  0.2774
  392loPI   C4A 6266  13.347  10.697   7.788  0.2857  0.0093  0.2364
  392loPI   C5A 6267  13.452  10.697   7.425  0.0953 -0.0163 -0.1210
  392loPI   C6A 6268  13.348  10.704   7.002  0.0388  0.3296 -0.1964
  392loPI   C1B 6269  14.286  11.142   8.792  0.1645  0.1011  0.2470
  392loPI   C2B 6270  14.277  10.964   8.324  0.0963 -0.2066 -0.1165
  392loPI   C3B 6271  14.029  10.609   8.194 -0.1113 -0.1378  0.0732
  392loPI   C4B 6272  13.826  10.399   7.760  0.1947 -0.0034  0.1613
  393loPI    C1 6273   7.251   8.714  10.131 -0.2740  0.4520  0.2190
  393loPI    C2 6274   7.474   8.610  10.446  0.0097 -0.1246 -0.1561
  393loPI    C3 6275   7.088   8.506  10.431 -0.0714  0.1250  0.1066
  393loPI   PO4 6276   7.281   9.005  10.128 -0.0363  0.0891  0.1144
  393loPI   GL1 6277   7.086   9.293   9.867 -0.0795 -0.1256 -0.1337
  393loPI   GL2 6278   7.123   9.651   9.882 -0.0663  0.1753 -0.0125
  393loPI   C1A 6279   7.364   9.278   9.495  0.0746 -0.1634  0.0197
  393loPI   C2A 6280   7.489   9.337   9.092  0.1289 -0.1996  0.3762
  393loPI   C3A 6281   7.591   9.491   8.663  0.0993 -0.0428  0.2044
  393loPI   C4A 6282   7.461   9.454   8.141 -0.0895 -0.1583  0.2382
  393loPI   C5A 6283   7.057   9.418   7.977  0.1039 -0.1178 -0.1663
  393loPI   C6A 6284   6.722   9.108   7.838 -0.1183  0.3344 -0.0438
  393loPI   C1B 6285   6.866   9.678   9.522  0.1342  0.0390 -0.1425
  393loPI   C2B 6286   6.872   9.774   9.100  0.1443  0.2721  0.0167
  393loPI   C3B 6287   6.919   9.701   8.750  0.1050  0.0285  0.3555
  393loPI   C4B 6288   6.785   9.625   8.326  0.1182 -0.1066  0.0132
  394loPI    C1 6289  15.437  11.830  10.062  0.1658 -0.0745 -0.0337
  394loPI    C2 6290  15.582  11.461  10.010  0.0015 -0.1449  0.0007
  394loPI    C3 6291  15.652  11.657  10.351 -0.0009 -0.1863  0.0251
  394loPI   PO4 6292  15.494  11.872   9.769 -0.1437  0.1060  0.0743
  394loPI   GL1 6293  15.515  11.935   9.356  0.0972  0.0416 -0.0275
  394loPI   GL2 6294  15.272  11.715   9.249 -0.1628  0.0488  0.0506
  394loPI   C1A 6295  15.569  11.970   8.947 -0.1999 -0.2501 -0.1637
  394loPI   C2A 6296  15.396  11.988   8.555 -0.1127 -0.0004 -0.0118
  394loPI   C3A 6297  15.606  11.992   8.213 -0.4148 -0.0276  0.1196
  394loPI   C4A 6298  15.760  12.057   7.889 -0.0570 -0.3512  0.0052
  394loPI   C5A 6299  15.945  12.215   7.557  0.1314 -0.0380  0.1399
  394loPI   C6A 6300  15.962  12.180   7.141 -0.1219 -0.0624 -0.2531
  394loPI   C1B 6301  15.131  11.702   8.832 -0.2032  0.1519 -0.0833
  394loPI   C2B 6302  14.964  11.774   8.418 -0.3842  0.3283  0.2952
  394loPI   C3B 6303  14.770  11.760   8.083  0.1473  0.1400  0.0280
  394loPI   C4B 6304  14.629  12.212   7.862  0.3749  0.1789 -0.2043
  395loPI    C1 6305  10.872   5.691   9.826  0.0161  0.1004  0.0729
  395loPI    C2 6306  11.084   5.962  10.029 -0.0037 -0.0362  0.2780
  395loPI    C3 6307  11.172   5.573  10.062  0.0759 -0.0516 -0.0764
  395loPI   PO4 6308  10.962   5.714   9.584 -0.5049  0.1213  0.0656
  395loPI   GL1 6309  11.175   5.904   9.295 -0.2329  0.0135  0.3036
  395loPI   GL2 6310  11.446   5.718   9.255  0.0710 -0.2249  0.2403
  395loPI   C1A 6311  11.257   6.112   8.939  0.1717  0.0648 -0.0576
  395loPI   C2A 6312  11.105   6.314   8.490 -0.0954  0.2726 -0.2715
  395loPI   C3A 6313  11.215   6.437   8.096 -0.1409  0.0350 -0.4177
  395loPI   C4A 6314  10.997   6.622   7.790  0.1435 -0.1302  0.1060
  395loPI   C5A 6315  11.092   6.911   7.501  0.0152  0.0566  0.1154
  395loPI   C6A 6316  11.021   7.111   7.194 -0.1830 -0.2741  0.0834
  395loPI   C1B 6317  11.515   5.670   8.831  0.0140  0.2144 -0.0749
  395loPI   C2B 6318  11.553   5.537   8.304  0.3102 -0.2137 -0.1057
  395loPI   C3B 6319  11.801   5.255   8.343  0.0792  0.2948  0.0869
  395loPI   C4B 6320  12.092   4.989   8.121 -0.0761 -0.2371 -0.4174
  396loPI    C1 6321  11.968   9.938   9.989  0.0615 -0.0491  0.2569
  396loPI    C2 6322  11.600  10.054  10.094 -0.1230 -0.2133 -0.1840
  396loPI    C3 6323  11.865   9.951  10.375 -0.3785  0.0004  0.1435
  396loPI   PO4 6324  11.881   9.780   9.682  0.2302 -0.0796  0.0829
  396loPI   GL1 6325  11.759   9.689   9.275  0.3350  0.1052 -0.1361
  396loPI   GL2 6326  11.355   9.653   9.311  0.2221 -0.0324 -0.0436
  396loPI   C1A 6327  11.851  10.134   9.043  0.1857  0.1591  0.4111
  396loPI   C2A 6328  11.723  10.268   8.589 -0.2552  0.1444 -0.0455
  396loPI   C3A 6329  11.735  10.462   8.133  0.1379  0.3891 -0.0567
  396loPI   C4A 6330  11.661  10.568   7.680  0.0657 -0.1173 -0.0692
  396loPI   C5A 6331  11.591  10.473   7.232 -0.0358 -0.4523 -0.2965
  396loPI   C6A 6332  11.635  10.444   6.785  0.1161 -0.0275  0.0958
  396loPI   C1B 6333  11.367   9.940   9.037 -0.2151  0.2382  0.0578
  396loPI   C2B 6334  11.230  10.217   8.746 -0.0524  0.2372 -0.0801
  396loPI   C3B 6335  11.244  10.170   8.329 -0.3589  0.0680  0.2448
  396loPI   C4B 6336  11.282  10.252   7.814  0.3638 -0.2864 -0.0600
  397loPI    C1 6337   0.087   9.365  10.400  0.2075 -0.1853  0.0073
  397loPI    C2 6338   0.439   9.556  10.412  0.2123 -0.1873 -0.0949
  397loPI    C3 6339   0.255   9.454  10.753  0.1314  0.1438 -0.0366
  397loPI   PO4 6340   0.125   9.329  10.070 -0.3041 -0.0122 -0.2200
  397loPI   GL1 6341   0.414   9.075   9.566 -0.0104  0.0245 -0.1669
  397loPI   GL2 6342   0.426   9.404   9.524  0.1108 -0.0029 -0.1783
  397loPI   C1A 6343   0.257   9.164   9.092  0.0949  0.0415 -0.0765
  397loPI   C2A 6344   0.436   9.247   8.732  0.0817  0.2108 -0.0353
  397loPI   C3A 6345   0.446   9.200   8.248  0.2631 -0.2239 -0.1300
  397loPI   C4A 6346   0.367   9.316   7.782  0.2116 -0.2812 -0.0615
  397loPI   C5A 6347   0.327   9.136   7.394  0.0228  0.3491  0.0580
  397loPI   C6A 6348   0.052   8.949   7.189 -0.1891  0.0361  0.1870
  397loPI   C1B 6349   0.512   9.663   9.114  0.0425 -0.1162  0.0243
  397loPI   C2B 6350   0.497   9.764   8.704  0.1249  0.1914  0.0457
  397loPI   C3B 6351   0.736   9.969   8.392  0.0130  0.3485 -0.0075
  397loPI   C4B 6352   0.945   9.840   7.972 -0.0883 -0.2259  0.0222
  398loPI    C1 6353   8.461  10.952  10.165 -0.0962  0.1417 -0.0692
  398loPI    C2 6354   8.121  10.853  10.351 -0.1111 -0.0913 -0.2168
  398loPI    C3 6355   8.354  10.568  10.194  0.0674  0.0793 -0.2663
  398loPI   PO4 6356   8.396  11.162   9.941  0.0902 -0.0211  0.2660
  398loPI   GL1 6357   8.341  11.237   9.544 -0.2164  0.0032 -0.0863
  398loPI   GL2 6358   8.248  11.064   9.433  0.0912  0.0461  0.2888
  398loPI   C1A 6359   8.442  11.506   9.132 -0.0687  0.2183 -0.0373
  398loPI   C2A 6360   8.307  11.662   8.783  0.3842 -0.1550  0.1461
  398loPI   C3A 6361   8.207  11.603   8.372 -0.0319  0.0596 -0.0817
  398loPI   C4A 6362   7.934  11.655   8.091  0.3503  0.3289 -0.2945
  398loPI   C5A 6363   7.635  11.753   7.757 -0.1445  0.3303 -0.0651
  398loPI   C6A 6364   7.296  11.659   7.524 -0.1694  0.2076 -0.3212
  398loPI   C1B 6365   8.031  10.828   9.054 -0.2370  0.0355  0.1560
  398loPI   C2B 6366   8.134  10.693   8.610 -0.0060 -0.0370 -0.1940
  398loPI   C3B 6367   7.996  10.538   8.219  0.0244 -0.1028  0.4448
  398loPI   C4B 6368   7.904  10.444   7.838 -0.1055 -0.0577  0.2405
  399loPI    C1 6369  17.623  10.985   9.889  0.1959  0.1789 -0.0818
  399loPI    C2 6370  17.839  10.652   9.941 -0.1697 -0.0214  0.2024
  399loPI    C3 6371  17.921  10.979  10.155  0.0977  0.0294  0.0269
  399loPI   PO4 6372  17.466  10.871   9.618  0.2090  0.1108 -0.0822
  399loPI   GL1 6373  17.326  10.887   9.244  0.1811  0.0436  0.2052
  399loPI   GL2 6374  17.706  11.065   9.161 -0.0729  0.0240 -0.0454
  399loPI   C1A 6375  17.014  10.840   8.975  0.0138 -0.0135 -0.0165
  399loPI   C2A 6376  17.017  10.763   8.532  0.1038  0.2454 -0.0259
  399loPI   C3A 6377  16.999  10.717   8.076 -0.1066 -0.0103 -0.1301
  399loPI   C4A 6378  17.184  10.773   7.725  0.1046 -0.0361  0.1483
  399loPI   C5A 6379  17.216  11.139   7.509 -0.0597 -0.1071  0.0419
  399loPI   C6A 6380  17.294  11.287   7.064  0.3200  0.1279  0.0273
  399loPI   C1B 6381  17.435  10.979   8.720  0.2197 -0.1517  0.3683
  399loPI   C2B 6382  17.497  11.254   8.339  0.1458 -0.2520 -0.1062
  399loPI   C3B 6383  17.442  11.265   7.954 -0.4110 -0.1357 -0.1076
  399loPI   C4B 6384  17.528  11.555   7.707  0.0385  0.0613  0.1556
  400loPI    C1 6385  16.647  13.697  10.003  0.0488  0.0016 -0.0404
  400loPI    C2 6386  16.566  14.087   9.960 -0.1815 -0.0405  0.0010
  400loPI    C3 6387  16.600  13.929  10.326 -0.2455 -0.0906 -0.0145
  400loPI   PO4 6388  16.599  13.592   9.758 -0.2402 -0.0829 -0.0301
  400loPI   GL1 6389  16.664  13.829   9.423  0.2324  0.2355 -0.0279
  400loPI   GL2 6390  16.400  13.739   9.276  0.0256 -0.1068  0.1573
  400loPI   C1A 6391  16.781  13.984   9.029  0.0641 -0.0855 -0.0583
  400loPI   C2A 6392  16.717  14.309   8.709 -0.1268 -0.0249  0.0411
  400loPI   C3A 6393  16.929  14.430   8.348 -0.1675 -0.0643 -0.0750
  400loPI   C4A 6394  17.265  14.294   8.155  0.0407 -0.0088 -0.3082
  400loPI   C5A 6395  17.440  14.088   7.782 -0.0255  0.1375  0.2227
  400loPI   C6A 6396  17.720  13.875   7.649 -0.1236  0.0713  0.1574
  400loPI   C1B 6397  16.278  14.018   8.891 -0.0891 -0.4858  0.0293
  400loPI   C2B 6398  16.090  14.089   8.545 -0.4331 -0.0429 -0.4375
  400loPI   C3B 6399  16.177  14.164   8.055  0.1568  0.0855 -0.1340
  400loPI   C4B 6400  16.240  14.174   7.715 -0.1009 -0.1149 -0.1354
  401loPI    C1 6401  13.937   0.262   9.456 -0.1443  0.1511  0.2831
  401loPI    C2 6402  13.959  -0.122   9.569 -0.1826  0.1157  0.1711
  401loPI    C3 6403  14.173   0.156   9.761  0.3242 -0.0487 -0.1351
  401loPI   PO4 6404  14.094   0.292   9.211 -0.2283 -0.1454  0.3120
  401loPI   GL1 6405  14.319   0.257   8.854  0.0236 -0.2074  0.1510
  401loPI   GL2 6406  14.500   0.030   8.889 -0.0097 -0.2950  0.0427
  401loPI   C1A 6407  14.205   0.033   8.460  0.0410  0.0287  0.1515
  401loPI   C2A 6408  14.025  -0.353   8.242  0.4918 -0.1242  0.0928
  401loPI   C3A 6409  14.011  -0.528   7.741 -0.1758 -0.1701 -0.1892
  401loPI   C4A 6410  14.336  -0.441   7.363  0.0071 -0.3329 -0.1122
  401loPI   C5A 6411  14.468  -0.575   7.008 -0.0601  0.0357 -0.4968
  401loPI   C6A 6412  14.779  -0.638   6.709 -0.0832 -0.0285 -0.3249
  401loPI   C1B 6413  14.715   0.006   8.433 -0.1451  0.3086 -0.1795
  401loPI   C2B 6414  14.936  -0.053   7.975  0.1203 -0.1226 -0.0873
  401loPI   C3B 6415  15.134  -0.392   7.799 -0.1458  0.0786  0.2372
  401loPI   C4B 6416  15.340  -0.429   7.426  0.2453  0.4441  0.4185
  402loPI    C1 6417   7.308   3.470  10.290  0.2620 -0.0557  0.0822
  402loPI    C2 6418   7.337   3.866  10.343  0.2176 -0.0519  0.0784
  402loPI    C3 6419   7.090   3.651  10.573  0.0248 -0.0356 -0.1103
  402loPI   PO4 6420   7.377   3.510   9.879  0.1623  0.1105  0.0740
  402loPI   GL1 6421   7.384   3.769   9.509  0.1225  0.2652 -0.0492
  402loPI   GL2 6422   7.101   3.815   9.522  0.0212 -0.2549 -0.0419
  402loPI   C1A 6423   7.570   3.554   9.152 -0.1047 -0.0096  0.0029
  402loPI   C2A 6424   7.452   3.469   8.773  0.1089 -0.1408 -0.2500
  402loPI   C3A 6425   7.365   3.313   8.414  0.3058  0.3845  0.2419
  402loPI   C4A 6426   7.284   3.213   7.923 -0.0115 -0.0008 -0.0749
  402loPI   C5A 6427   7.059   3.503   7.599  0.0943 -0.0140 -0.1054
  402loPI   C6A 6428   6.905   3.707   7.225  0.1155  0.0776 -0.2591
  402loPI   C1B 6429   7.079   3.589   9.090  0.1810  0.2224  0.1375
  402loPI   C2B 6430   6.786   3.447   8.846  0.1547  0.0163 -0.1698
  402loPI   C3B 6431   6.535   3.461   8.497 -0.1026  0.2876 -0.1121
  402loPI   C4B 6432   6.421   3.728   8.078 -0.2860 -0.0637  0.1785
  403loPI    C1 6433   4.527  17.391  10.276 -0.0856 -0.0472 -0.0271
  403loPI    C2 6434   4.901  17.428  10.412  0.0715 -0.0022 -0.4571
  403loPI    C3 6435   4.704  17.082  10.459  0.0447  0.0742  0.0536
  403loPI   PO4 6436   4.534  17.495  10.020  0.2616 -0.1253  0.0725
  403loPI   GL1 6437   4.687  17.378   9.571  0.0060 -0.0104 -0.1141
  403loPI   GL2 6438   4.887  17.126   9.423  0.0978 -0.0041  0.1002
  403loPI   C1A 6439   4.455  17.374   9.133  0.1085 -0.0552  0.0134
  403loPI   C2A 6440   4.148  17.585   8.846 -0.2995 -0.0113 -0.2122
  403loPI   C3A 6441   4.117  17.912   8.502  0.0323  0.2582  0.0264
  403loPI   C4A 6442   4.111  18.046   8.059 -0.0913  0.1386  0.1860
  403loPI   C5A 6443   3.848  17.768   7.678 -0.0395  0.2494  0.4432
  403loPI   C6A 6444   3.723  17.502   7.300  0.0461 -0.0096 -0.4346
  403loPI   C1B 6445   4.912  17.334   9.074 -0.4066  0.1207 -0.0139
  403loPI   C2B 6446   4.746  17.406   8.704 -0.0653  0.1844  0.2484
  403loPI   C3B 6447   4.452  17.366   8.372  0.0040  0.1087 -0.0687
  403loPI   C4B 6448   4.261  17.568   8.060  0.1056  0.0962 -0.1138
  404loPI    C1 6449   5.032   1.286   9.680  0.1778  0.1428 -0.2718
  404loPI    C2 6450   5.094   1.418  10.052 -0.0580  0.2740 -0.2777
  404loPI    C3 6451   5.300   1.104   9.915 -0.1651  0.0511  0.0582
  404loPI   PO4 6452   5.024   1.467   9.545 -0.4591  0.1531 -0.2864
  404loPI   GL1 6453   5.168   1.533   9.062  0.0633  0.2529  0.1855
  404loPI   GL2 6454   5.027   1.854   8.927 -0.2657 -0.2873 -0.0829
  404loPI   C1A 6455   5.211   1.657   8.530  0.1086 -0.1886 -0.2097
  404loPI   C2A 6456   5.304   1.332   8.175  0.0858 -0.4393 -0.1824
  404loPI   C3A 6457   5.461   1.031   7.812 -0.0613  0.1373 -0.2116
  404loPI   C4A 6458   5.623   0.556   7.634 -0.1275  0.0502  0.3402
  404loPI   C5A 6459   6.067   0.498   7.445 -0.0114 -0.1983  0.3061
  404loPI   C6A 6460   6.353   0.314   7.193 -0.2013  0.1283  0.1145
  404loPI   C1B 6461   4.973   2.125   8.552 -0.0699 -0.1917 -0.0161
  404loPI   C2B 6462   4.713   2.169   8.121  0.1214 -0.0229 -0.0611
  404loPI   C3B 6463   4.603   1.864   7.774 -0.2708  0.1752 -0.0007
  404loPI   C4B 6464   4.879   1.567   7.649  0.3581  0.0347  0.2481
  405loPI    C1 6465  13.632  14.422   9.653  0.0304  0.0842  0.1288
  405loPI    C2 6466  13.372  14.630   9.874 -0.2644 -0.2199  0.0754
  405loPI    C3 6467  13.586  14.337  10.041  0.0371  0.0179  0.1151
  405loPI   PO4 6468  13.546  14.455   9.399  0.5269 -0.1306  0.0540
  405loPI   GL1 6469  13.592  14.582   9.034  0.0940 -0.4196  0.2457
  405loPI   GL2 6470  13.668  15.007   9.056  0.2042 -0.1797  0.3589
  405loPI   C1A 6471  13.264  14.511   8.738 -0.0664  0.3801  0.0366
  405loPI   C2A 6472  13.029  14.420   8.461  0.3139 -0.0543 -0.1199
  405loPI   C3A 6473  12.934  14.119   8.273  0.2089  0.4192  0.0365
  405loPI   C4A 6474  12.612  14.019   8.067 -0.3250 -0.1992  0.2458
  405loPI   C5A 6475  12.424  14.141   7.561  0.1625 -0.1445  0.0369
  405loPI   C6A 6476  12.298  14.265   7.183 -0.0309 -0.3396 -0.0306
  405loPI   C1B 6477  13.541  14.907   8.619 -0.0715  0.0495 -0.0768
  405loPI   C2B 6478  13.206  14.978   8.350  0.1675 -0.0816 -0.0411
  405loPI   C3B 6479  12.996  15.101   8.000  0.0011  0.0348 -0.1150
  405loPI   C4B 6480  12.602  15.449   7.994  0.0320 -0.2366  0.0641
  406loPI    C1 6481   9.453  13.657  10.245  0.1646  0.2530 -0.4187
  406loPI    C2 6482   9.572  13.966  10.469 -0.2982  0.0622  0.1133
  406loPI    C3 6483   9.746  13.609  10.512 -0.1553  0.1057 -0.0866
  406loPI   PO4 6484   9.462  13.721  10.069 -0.6028 -0.1217 -0.0400
  406loPI   GL1 6485   9.654  13.545   9.729 -0.5070 -0.1044 -0.2885
  406loPI   GL2 6486   9.839  13.375   9.611  0.1418  0.1476 -0.3277
  406loPI   C1A 6487   9.651  13.700   9.209 -0.1101 -0.0038  0.0593
  406loPI   C2A 6488   9.520  13.844   8.827 -0.0925 -0.0519  0.2072
  406loPI   C3A 6489   9.455  13.961   8.421  0.2882 -0.1444 -0.0730
  406loPI   C4A 6490   9.307  14.370   8.104  0.0283 -0.2185  0.0574
  406loPI   C5A 6491   8.988  14.322   7.767 -0.2030  0.3474 -0.1771
  406loPI   C6A 6492   8.610  14.150   7.591 -0.1826  0.3426 -0.2968
  406loPI   C1B 6493   9.484  13.214   9.329 -0.2261  0.0837  0.0282
  406loPI   C2B 6494   9.490  13.325   8.884 -0.0070 -0.0518  0.1053
  406loPI   C3B 6495   9.301  13.185   8.506  0.0383  0.0697 -0.0324
  406loPI   C4B 6496   9.430  13.145   8.128 -0.2795 -0.2564  0.3095
  407loPI    C1 6497   9.827   8.030   9.708 -0.2424  0.0523 -0.2118
  407loPI    C2 6498   9.545   8.290   9.823 -0.2420 -0.0439  0.0117
  407loPI    C3 6499   9.667   8.003  10.073  0.0288 -0.0265 -0.0962
  407loPI   PO4 6500   9.809   7.965   9.444  0.2617 -0.1414  0.0834
  407loPI   GL1 6501  10.000   7.818   9.026 -0.1965 -0.0055  0.3465
  407loPI   GL2 6502  10.313   7.854   9.082  0.0453  0.0719 -0.3662
  407loPI   C1A 6503   9.935   8.038   8.570  0.1554 -0.2322  0.1466
  407loPI   C2A 6504   9.967   8.129   8.120 -0.3379  0.1935  0.2308
  407loPI   C3A 6505   9.822   8.147   7.688 -0.3407 -0.1200 -0.1927
  407loPI   C4A 6506   9.656   7.851   7.389 -0.0415 -0.1075 -0.0328
  407loPI   C5A 6507   9.452   7.521   7.049  0.0626  0.0771 -0.0608
  407loPI   C6A 6508   9.323   7.359   6.583  0.0013 -0.2372  0.0770
  407loPI   C1B 6509  10.439   7.986   8.689 -0.0081  0.4100  0.0651
  407loPI   C2B 6510  10.415   8.068   8.304 -0.4049  0.3202  0.0906
  407loPI   C3B 6511  10.332   7.922   7.828  0.0282  0.1104 -0.2210
  407loPI   C4B 6512  10.164   7.733   7.446 -0.1267 -0.3472  0.1414
  408loPI    C1 6513   2.494   7.986  10.167 -0.1349  0.0952  0.1238
  408loPI    C2 6514   2.704   7.738  10.400 -0.1600 -0.0697 -0.0273
  408loPI    C3 6515   2.888   8.039  10.212 -0.1179 -0.0128  0.1041
  408loPI   PO4 6516   2.408   7.809   9.966 -0.0665 -0.2998  0.2473
  408loPI   GL1 6517   2.292   7.684   9.627  0.1325  0.0139 -0.1233
  408loPI   GL2 6518   2.594   7.613   9.437  0.2121 -0.2002  0.0375
  408loPI   C1A 6519   2.278   8.044   9.225 -0.1925 -0.1032 -0.3430
  408loPI   C2A 6520   2.356   8.098   8.798 -0.0603 -0.1526  0.2139
  408loPI   C3A 6521   2.365   8.137   8.321  0.2629  0.2812 -0.2050
  408loPI   C4A 6522   2.612   8.180   7.983  0.2100 -0.0213 -0.1778
  408loPI   C5A 6523   2.690   8.149   7.510 -0.1701  0.0096 -0.0937
  408loPI   C6A 6524   2.946   7.979   7.112  0.1489 -0.2908 -0.2890
  408loPI   C1B 6525   2.719   7.855   9.082 -0.1652  0.1493 -0.2268
  408loPI   C2B 6526   3.020   7.775   8.692  0.2328  0.1955  0.5270
  408loPI   C3B 6527   3.249   7.632   8.345  0.0464 -0.1993  0.1601
  408loPI   C4B 6528   3.415   7.678   7.953  0.1328 -0.0226  0.0775
  409loPI    C1 6529   2.222  15.479   9.639 -0.0060  0.1478 -0.0681
  409loPI    C2 6530   2.309  15.098   9.552 -0.0118  0.1578 -0.1183
  409loPI    C3 6531   2.413  15.251   9.906 -0.0520  0.0956 -0.0795
  409loPI   PO4 6532   1.933  15.394   9.566 -0.3423 -0.0326  0.2466
  409loPI   GL1 6533   1.900  15.191   9.177  0.1000 -0.1677 -0.1676
  409loPI   GL2 6534   1.834  15.521   9.058 -0.0036  0.1002  0.4040
  409loPI   C1A 6535   2.016  14.932   8.921 -0.0623  0.0033  0.2606
  409loPI   C2A 6536   2.112  14.664   8.499 -0.0704 -0.4367 -0.1551
  409loPI   C3A 6537   2.090  14.460   8.091 -0.4257  0.0899  0.1285
  409loPI   C4A 6538   2.308  14.663   7.794  0.2366  0.5189 -0.3231
  409loPI   C5A 6539   2.502  14.898   7.398 -0.3878  0.1855 -0.1418
  409loPI   C6A 6540   2.206  15.126   7.026  0.0471 -0.1122 -0.0924
  409loPI   C1B 6541   1.986  15.807   8.818 -0.0381 -0.2738  0.5512
  409loPI   C2B 6542   1.972  16.129   8.612 -0.1628 -0.2328  0.0103
  409loPI   C3B 6543   1.693  16.007   8.221 -0.2337  0.1699 -0.0755
  409loPI   C4B 6544   1.950  16.011   7.948 -0.1794  0.1859 -0.3774
  410loPI    C1 6545  16.472  12.112   9.549  0.1167 -0.0054 -0.0036
  410loPI    C2 6546  16.405  11.882   9.869  0.1051 -0.0656 -0.0490
  410loPI    C3 6547  16.336  12.276   9.887  0.0904 -0.0712  0.0177
  410loPI   PO4 6548  16.686  12.026   9.501  0.2534  0.1031  0.2502
  410loPI   GL1 6549  17.027  12.171   9.190 -0.3016 -0.1717 -0.3386
  410loPI   GL2 6550  16.836  11.931   9.028 -0.0117  0.0210  0.0174
  410loPI   C1A 6551  17.316  12.185   8.815 -0.2077  0.3480  0.0571
  410loPI   C2A 6552  17.449  12.183   8.386 -0.2103  0.1583  0.0194
  410loPI   C3A 6553  17.277  12.026   7.913  0.2509 -0.1009 -0.0298
  410loPI   C4A 6554  17.291  12.026   7.473 -0.0894  0.3771  0.1113
  410loPI   C5A 6555  17.283  11.783   7.122 -0.1243 -0.0359  0.0025
  410loPI   C6A 6556  17.176  11.667   6.699  0.0902 -0.2512 -0.2255
  410loPI   C1B 6557  17.000  11.817   8.745  0.2958  0.2682  0.1975
  410loPI   C2B 6558  17.192  11.658   8.369  0.1314  0.2394  0.1088
  410loPI   C3B 6559  17.648  11.721   8.216 -0.2060  0.2771  0.2740
  410loPI   C4B 6560  17.940  11.488   7.931  0.0077 -0.3740 -0.0295
  411loPI    C1 6561   0.523  13.392   9.681  0.1230  0.1599 -0.2817
  411loPI    C2 6562   0.918  13.408   9.741  0.0801  0.0828  0.0362
  411loPI    C3 6563   0.669  13.580  10.002 -0.1025  0.0149 -0.0915
  411loPI   PO4 6564   0.531  13.417   9.386 -0.0630  0.0973 -0.1105
  411loPI   GL1 6565   0.686  13.738   9.057  0.3313  0.0132 -0.1379
  411loPI   GL2 6566   0.586  14.097   9.171  0.2888  0.3661 -0.0566
  411loPI   C1A 6567   0.879  13.932   8.662  0.1480 -0.2172  0.3044
  411loPI   C2A 6568   1.225  13.745   8.597 -0.1241 -0.0391  0.0985
  411loPI   C3A 6569   1.351  13.347   8.442  0.2075  0.1727  0.0244
  411loPI   C4A 6570   1.398  13.195   8.083 -0.0375  0.0215  0.0895
  411loPI   C5A 6571   1.694  12.980   7.874  0.1073  0.2100 -0.3210
  411loPI   C6A 6572   2.034  12.936   7.645 -0.1501  0.0568  0.0070
  411loPI   C1B 6573   0.369  14.187   8.747  0.0944 -0.3504  0.0087
  411loPI   C2B 6574   0.374  14.076   8.386 -0.0933 -0.2825 -0.2973
  411loPI   C3B 6575   0.362  13.977   7.951  0.0040 -0.1252  0.2412
  411loPI   C4B 6576   0.556  14.171   7.561  0.0656  0.0486  0.1394
  412loPI    C1 6577  17.682   7.615  10.103 -0.1301  0.1933 -0.1233
  412loPI    C2 6578  17.704   7.547  10.497  0.2434  0.1170 -0.1532
  412loPI    C3 6579  17.527   7.879  10.360  0.2230  0.2054  0.0835
  412loPI   PO4 6580  17.965   7.596   9.967  0.0122 -0.0303  0.0518
  412loPI   GL1 6581  17.935   7.737   9.520  0.0884 -0.1666 -0.0152
  412loPI   GL2 6582  18.170   7.628   9.429 -0.1642  0.0035 -0.3655
  412loPI   C1A 6583  17.800   7.730   9.055 -0.0113  0.0747  0.1433
  412loPI   C2A 6584  17.724   7.773   8.610  0.1342 -0.2739 -0.1817
  412loPI   C3A 6585  17.645   7.849   8.203  0.0148 -0.2629 -0.1409
  412loPI   C4A 6586  17.488   8.036   7.726 -0.2117  0.3821  0.0479
  412loPI   C5A 6587  17.197   8.356   7.666  0.1671 -0.1234 -0.1554
  412loPI   C6A 6588  17.051   8.687   7.401 -0.2270  0.0029  0.1048
  412loPI   C1B 6589  18.252   7.557   9.074 -0.3983  0.0343  0.0073
  412loPI   C2B 6590  18.281   7.573   8.609 -0.1118  0.1992 -0.0613
  412loPI   C3B 6591  18.130   7.743   8.287  0.2262 -0.0647 -0.2576
  412loPI   C4B 6592  18.003   7.694   7.856  0.2031 -0.0311  0.2323
  413loPI    C1 6593  13.470  17.323   9.640  0.2955  0.2135 -0.2679
  413loPI    C2 6594  13.740  17.211   9.913 -0.1330 -0.0517  0.0610
  413loPI    C3 6595  13.467  17.488  10.005  0.0227  0.2190 -0.2705
  413loPI   PO4 6596  13.534  17.295   9.444 -0.2067 -0.0938 -0.1369
  413loPI   GL1 6597  13.381  17.275   9.088 -0.0092  0.2177 -0.0428
  413loPI   GL2 6598  13.715  17.483   8.928  0.4028  0.1748 -0.1080
  413loPI   C1A 6599  13.077  17.323   8.822 -0.4678 -0.2689  0.0616
  413loPI   C2A 6600  13.072  17.227   8.406  0.1162 -0.0869 -0.1906
  413loPI   C3A 6601  13.159  17.189   8.017 -0.0258 -0.1796  0.1891
  413loPI   C4A 6602  13.234  17.104   7.640 -0.0253  0.0829 -0.0544
  413loPI   C5A 6603  13.409  16.859   7.404 -0.2524  0.0031  0.0344
  413loPI   C6A 6604  13.592  16.915   7.007 -0.6228  0.3785  0.1372
  413loPI   C1B 6605  13.531  17.067   8.703 -0.1059 -0.1454 -0.1865
  413loPI   C2B 6606  13.513  16.987   8.345 -0.2488  0.1023 -0.2803
  413loPI   C3B 6607  13.533  16.766   7.948  0.3781 -0.0881  0.1354
  413loPI   C4B 6608  13.878  16.790   7.648 -0.0643  0.0997  0.1583
  414loPI    C1 6609   5.438  10.704  10.429 -0.0760  0.2620  0.0074
  414loPI    C2 6610   5.751  10.483  10.543 -0.0853  0.1073 -0.2571
  414loPI    C3 6611   5.708  10.856  10.682  0.0131 -0.0004  0.0729
  414loPI   PO4 6612   5.382  10.671  10.086  0.2862  0.0212 -0.1465
  414loPI   GL1 6613   5.607  10.832   9.745 -0.0586 -0.0008  0.0083
  414loPI   GL2 6614   5.679  11.198   9.731  0.0085  0.0260 -0.0485
  414loPI   C1A 6615   5.724  10.745   9.317  0.0743 -0.0544  0.2790
  414loPI   C2A 6616   5.787  10.788   8.803  0.1643 -0.1962  0.2400
  414loPI   C3A 6617   6.134  10.890   8.465 -0.0370  0.0956 -0.0376
  414loPI   C4A 6618   5.979  11.003   8.055 -0.1060 -0.4730  0.1116
  414loPI   C5A 6619   6.304  11.044   7.758  0.0538  0.1203  0.1581
  414loPI   C6A 6620   6.435  11.413   7.675 -0.0294 -0.0522  0.1208
  414loPI   C1B 6621   5.715  11.338   9.360  0.2079  0.0055  0.2150
  414loPI   C2B 6622   6.085  11.083   9.147 -0.3117 -0.1730  0.2003
  414loPI   C3B 6623   6.451  11.091   8.876  0.2766  0.1084 -0.1463
  414loPI   C4B 6624   6.768  11.042   8.630 -0.2142  0.2308 -0.0255
  415loPI    C1 6625   5.015  11.575  10.565 -0.3063  0.1044 -0.2404
  415loPI    C2 6626   4.774  11.305  10.735 -0.0346  0.2156  0.3442
  415loPI    C3 6627   4.871  11.639  10.932  0.2644  0.3705 -0.0515
  415loPI   PO4 6628   5.004  11.497  10.343 -0.1220 -0.0115 -0.1278
  415loPI   GL1 6629   5.221  11.435   9.904  0.0687  0.1670 -0.0087
  415loPI   GL2 6630   5.137  11.117   9.807  0.0005  0.1607 -0.2004
  415loPI   C1A 6631   4.961  11.626   9.521 -0.2485 -0.0861  0.3019
  415loPI   C2A 6632   4.986  11.820   9.041 -0.2459  0.0005 -0.0109
  415loPI   C3A 6633   5.040  11.868   8.604  0.1218 -0.3195 -0.0302
  415loPI   C4A 6634   5.107  11.872   8.133 -0.0719  0.3181  0.0109
  415loPI   C5A 6635   5.295  11.611   7.946 -0.1105 -0.4505 -0.0208
  415loPI   C6A 6636   5.520  11.459   7.655  0.1096 -0.5004  0.2800
  415loPI   C1B 6637   5.255  11.149   9.390 -0.0358  0.2323 -0.3141
  415loPI   C2B 6638   5.423  11.073   9.048 -0.1239  0.0212 -0.0062
  415loPI   C3B 6639   5.626  11.290   8.772 -0.3648  0.0992  0.1234
  415loPI   C4B 6640   5.929  11.403   8.448  0.1576 -0.0191  0.2732
  416loPI    C1 6641   0.339  12.860   9.673  0.0302  0.1488 -0.1110
  416loPI    C2 6642   0.613  12.823   9.962  0.0924 -0.0773 -0.1964
  416loPI    C3 6643   0.324  13.098   9.994  0.2299  0.0498 -0.0266
  416loPI   PO4 6644   0.420  12.697   9.376 -0.0871 -0.0474  0.1866
  416loPI   GL1 6645   0.535  12.787   8.889  0.0752  0.0637 -0.0735
  416loPI   GL2 6646   0.634  13.088   9.014  0.4049 -0.2383  0.2041
  416loPI   C1A 6647   0.817  12.845   8.519 -0.2423  0.1807 -0.0058
  416loPI   C2A 6648   0.939  12.984   8.180 -0.2104  0.1860  0.0468
  416loPI   C3A 6649   1.123  12.789   7.801  0.0167 -0.0227 -0.3687
  416loPI   C4A 6650   1.354  12.529   7.530 -0.0344  0.1075 -0.2844
  416loPI   C5A 6651   1.775  12.350   7.669  0.3081  0.0747  0.0329
  416loPI   C6A 6652   2.222  12.489   7.683  0.5424  0.3045  0.1906
  416loPI   C1B 6653   0.670  13.316   8.644  0.2359  0.1307  0.0484
  416loPI   C2B 6654   0.805  13.510   8.279 -0.3099  0.2334 -0.1872
  416loPI   C3B 6655   1.139  13.711   8.109  0.2355 -0.1208  0.0996
  416loPI   C4B 6656   1.142  13.979   7.842 -0.2331 -0.2177 -0.1471
  417loPI    C1 6657  11.082  13.170  10.492 -0.1535 -0.1021  0.0562
  417loPI    C2 6658  11.444  13.285  10.615 -0.1725 -0.0250  0.0403
  417loPI    C3 6659  11.304  12.925  10.718 -0.2442  0.0909  0.3611
  417loPI   PO4 6660  11.070  13.225  10.191  0.0833 -0.0429 -0.2566
  417loPI   GL1 6661  10.784  13.248   9.802 -0.2548  0.0377  0.2066
  417loPI   GL2 6662  10.769  12.931   9.730  0.0998 -0.2982  0.0452
  417loPI   C1A 6663  10.968  13.214   9.330  0.0827 -0.0392  0.1911
  417loPI   C2A 6664  10.939  13.192   8.840 -0.1651 -0.1171 -0.0295
  417loPI   C3A 6665  10.845  13.332   8.515 -0.0847  0.0988 -0.2231
  417loPI   C4A 6666  10.643  13.371   8.135 -0.1099  0.0476  0.0904
  417loPI   C5A 6667  10.231  13.540   7.850  0.2025  0.3151  0.2638
  417loPI   C6A 6668   9.927  13.617   7.587 -0.1242  0.0119 -0.1636
  417loPI   C1B 6669  10.568  12.833   9.334 -0.0896 -0.4818 -0.3254
  417loPI   C2B 6670  10.401  13.075   8.923  0.2118 -0.0987  0.0062
  417loPI   C3B 6671  10.293  13.103   8.471 -0.0603 -0.1653 -0.0775
  417loPI   C4B 6672  10.409  12.918   8.128 -0.0892 -0.1856  0.0942
  418loPI    C1 6673   4.352  12.381  10.395 -0.0012 -0.0415 -0.0618
  418loPI    C2 6674   4.728  12.461  10.503  0.0707 -0.2154 -0.1800
  418loPI    C3 6675   4.438  12.462  10.777  0.1657 -0.1341 -0.0790
  418loPI   PO4 6676   4.376  12.120  10.259 -0.0701 -0.2613 -0.2315
  418loPI   GL1 6677   4.129  12.015   9.822  0.1743 -0.3078  0.3716
  418loPI   GL2 6678   4.258  12.296   9.820 -0.1181  0.0787  0.0973
  418loPI   C1A 6679   4.155  11.986   9.328 -0.4351 -0.0499 -0.0028
  418loPI   C2A 6680   4.192  11.986   8.894  0.0819  0.3985  0.1892
  418loPI   C3A 6681   4.194  12.026   8.479  0.1566  0.0512  0.1720
  418loPI   C4A 6682   4.157  11.928   8.039 -0.2947  0.0503  0.1589
  418loPI   C5A 6683   4.258  12.124   7.697  0.1491 -0.1919  0.1132
  418loPI   C6A 6684   4.117  12.101   7.240 -0.2141  0.3613 -0.0537
  418loPI   C1B 6685   4.320  12.487   9.397 -0.3253  0.2273 -0.1622
  418loPI   C2B 6686   4.269  12.708   8.982 -0.3396  0.0260 -0.1452
  418loPI   C3B 6687   4.286  12.545   8.460  0.0048 -0.0795  0.2206
  418loPI   C4B 6688   4.338  12.390   8.147 -0.2633  0.0057 -0.1632
  419loPI    C1 6689  17.652  17.436   8.995  0.2373 -0.2658 -0.0148
  419loPI    C2 6690  17.658  17.049   9.097  0.0021 -0.2356  0.1228
  419loPI    C3 6691  17.445  17.309   9.314  0.2196 -0.0148  0.0759
  419loPI   PO4 6692  17.664  17.436   8.740 -0.2497  0.0081  0.0243
  419loPI   GL1 6693  17.968  17.392   8.407  0.0238  0.1667  0.1022
  419loPI   GL2 6694  18.030  17.730   8.485 -0.0805  0.0382  0.0127
  419loPI   C1A 6695  17.930  17.466   7.948  0.1420  0.0384 -0.2669
  419loPI   C2A 6696  17.907  17.590   7.445 -0.1786 -0.2017  0.0157
  419loPI   C3A 6697  17.927  17.487   7.113 -0.2595  0.0866 -0.1272
  419loPI   C4A 6698  17.774  17.065   6.792 -0.0562 -0.1822 -0.0590
  419loPI   C5A 6699  17.529  16.815   6.525 -0.0377  0.0135 -0.3524
  419loPI   C6A 6700  17.641  16.390   6.629 -0.2122  0.3161 -0.0506
  419loPI   C1B 6701  18.121  17.929   8.156 -0.1128 -0.1270  0.2908
  419loPI   C2B 6702  18.028  18.039   7.726 -0.2670 -0.0555 -0.3106
  419loPI   C3B 6703  17.980  18.014   7.281 -0.3691 -0.1368  0.2518
  419loPI   C4B 6704  17.678  17.871   6.897 -0.3748  0.0154 -0.1134
  420loPI    C1 6705   1.533   7.472  10.001  0.0805 -0.0005 -0.2818
  420loPI    C2 6706   1.909   7.605  10.038  0.1209 -0.0326 -0.5572
  420loPI    C3 6707   1.813   7.238  10.165  0.0403  0.1957  0.0775
  420loPI   PO4 6708   1.487   7.560   9.718  0.0772 -0.1027 -0.0774
  420loPI   GL1 6709   1.793   7.646   9.343  0.0211 -0.2743 -0.0588
  420loPI   GL2 6710   1.836   7.855   9.559  0.2749 -0.2113 -0.0660
  420loPI   C1A 6711   1.507   7.662   8.968 -0.1289  0.1461  0.0519
  420loPI   C2A 6712   1.517   7.526   8.630 -0.1349 -0.1705 -0.0627
  420loPI   C3A 6713   1.622   7.645   8.126  0.0557  0.0935  0.1869
  420loPI   C4A 6714   1.687   7.596   7.642 -0.2666 -0.0637  0.2930
  420loPI   C5A 6715   2.026   7.470   7.335  0.1425 -0.0621  0.2689
  420loPI   C6A 6716   1.998   7.323   6.865  0.1135 -0.0829 -0.0263
  420loPI   C1B 6717   1.776   8.065   9.145 -0.1050 -0.0691  0.3540
  420loPI   C2B 6718   1.918   7.853   8.689  0.0421  0.0814  0.0488
  420loPI   C3B 6719   2.090   7.531   8.328 -0.0648  0.0737  0.1662
  420loPI   C4B 6720   2.054   7.347   7.977 -0.0750 -0.5420  0.0828
  421loPI    C1 6721  10.455   2.219   9.575  0.1471  0.0081  0.1193
  421loPI    C2 6722  10.263   1.910   9.742  0.0381 -0.0859 -0.1728
  421loPI    C3 6723  10.639   1.996   9.852 -0.0514 -0.1056  0.1613
  421loPI   PO4 6724  10.458   2.200   9.373 -0.0292  0.0335 -0.0505
  421loPI   GL1 6725  10.539   2.332   9.023 -0.1111  0.3658  0.5393
  421loPI   GL2 6726  10.820   2.158   9.042  0.1238 -0.1655  0.2842
  421loPI   C1A 6727  10.287   2.329   8.758  0.2139 -0.3942  0.0814
  421loPI   C2A 6728  10.057   2.457   8.479 -0.0243  0.2189  0.1753
  421loPI   C3A 6729  10.119   2.433   8.060  0.0980  0.0139 -0.0677
  421loPI   C4A 6730  10.268   2.468   7.636 -0.2112  0.0639  0.0619
  421loPI   C5A 6731  10.545   2.421   7.327 -0.2280  0.0521  0.1608
  421loPI   C6A 6732  10.937   2.532   7.147  0.1808  0.1920  0.0363
  421loPI   C1B 6733  10.838   2.110   8.613  0.1199 -0.2321  0.3791
  421loPI   C2B 6734  10.942   2.086   8.227  0.1732  0.1413  0.1513
  421loPI   C3B 6735  10.854   2.034   7.828  0.1482  0.0870  0.0402
  421loPI   C4B 6736  11.045   2.050   7.424 -0.2214 -0.0621  0.1265
  422loPI    C1 6737  12.813  14.907   9.486  0.1852  0.0363  0.0571
  422loPI    C2 6738  12.674  15.173   9.751  0.0552 -0.1070  0.1347
  422loPI    C3 6739  12.925  14.885   9.870  0.0249 -0.1500  0.0948
  422loPI   PO4 6740  12.856  15.085   9.287  0.3307  0.0747  0.0416
  422loPI   GL1 6741  13.172  15.175   8.986  0.1958  0.2111  0.3220
  422loPI   GL2 6742  12.977  14.927   8.818  0.0609 -0.0788 -0.1668
  422loPI   C1A 6743  13.239  15.338   8.719  0.1468 -0.4101 -0.1155
  422loPI   C2A 6744  13.076  15.492   8.344  0.1343 -0.2016  0.0561
  422loPI   C3A 6745  13.185  15.597   7.931 -0.3658 -0.3133 -0.1763
  422loPI   C4A 6746  13.373  15.446   7.501  0.0717  0.1526 -0.0344
  422loPI   C5A 6747  13.707  15.151   7.244 -0.1599 -0.1146 -0.1918
  422loPI   C6A 6748  13.981  14.809   7.424  0.1270  0.0142 -0.6855
  422loPI   C1B 6749  12.752  14.825   8.433  0.2889 -0.2889  0.0768
  422loPI   C2B 6750  12.544  14.981   8.099  0.0964  0.1298 -0.2490
  422loPI   C3B 6751  12.610  15.019   7.714  0.0900  0.1343  0.2891
  422loPI   C4B 6752  12.862  15.413   7.424  0.4234  0.2656  0.0094
  423loPI    C1 6753  13.933  12.032   9.904 -0.2227  0.4913  0.0324
  423loPI    C2 6754  14.151  12.344   9.783 -0.0545  0.3392 -0.0619
  423loPI    C3 6755  14.261  12.136  10.106  0.0980  0.0949 -0.2674
  423loPI   PO4 6756  13.948  11.886   9.698  0.4075 -0.0544  0.0458
  423loPI   GL1 6757  13.933  11.897   9.315  0.3344 -0.0571  0.0329
  423loPI   GL2 6758  13.683  11.678   9.307 -0.1392  0.2411  0.1891
  423loPI   C1A 6759  13.814  11.986   8.937  0.3846 -0.1961 -0.1895
  423loPI   C2A 6760  13.919  11.924   8.457  0.1850 -0.2434  0.1768
  423loPI   C3A 6761  13.762  11.850   8.039  0.2190  0.3129  0.0689
  423loPI   C4A 6762  13.705  11.579   7.621 -0.1909 -0.0636  0.0851
  423loPI   C5A 6763  13.497  11.462   7.265 -0.0100 -0.1834 -0.1085
  423loPI   C6A 6764  13.457  11.240   6.889 -0.2605 -0.0262  0.1228
  423loPI   C1B 6765  13.965  11.556   8.801  0.1037  0.2187  0.0516
  423loPI   C2B 6766  14.090  11.430   8.356  0.0234  0.0759 -0.1952
  423loPI   C3B 6767  13.917  11.288   8.003  0.3495 -0.1502  0.1647
  423loPI   C4B 6768  13.717  11.052   7.641  0.0341 -0.1649  0.0127
  424loPI    C1 6769  16.552   9.752   9.941 -0.0488 -0.3654 -0.0037
  424loPI    C2 6770  16.946   9.689   9.967  0.0196 -0.0092 -0.1196
  424loPI    C3 6771  16.719   9.677  10.297  0.1835  0.1262  0.0002
  424loPI   PO4 6772  16.494   9.606   9.646 -0.1362  0.4476  0.1634
  424loPI   GL1 6773  16.447   9.621   9.239 -0.4157  0.0053 -0.1514
  424loPI   GL2 6774  16.076   9.652   9.166  0.1135  0.1239  0.1277
  424loPI   C1A 6775  16.768   9.598   8.846 -0.2608 -0.0883  0.1152
  424loPI   C2A 6776  16.862   9.398   8.534  0.0493  0.2857 -0.3879
  424loPI   C3A 6777  16.811   9.010   8.516 -0.1182  0.0595  0.2173
  424loPI   C4A 6778  17.025   8.744   8.504 -0.0977  0.2440  0.2535
  424loPI   C5A 6779  17.182   8.349   8.762  0.2100 -0.1910 -0.1187
  424loPI   C6A 6780  17.294   8.020   8.621 -0.2296  0.0219  0.3637
  424loPI   C1B 6781  16.224   9.648   8.814 -0.1292  0.2583 -0.0648
  424loPI   C2B 6782  16.344   9.292   8.612 -0.0780  0.0568 -0.0296
  424loPI   C3B 6783  16.231   9.074   8.295 -0.2178  0.1776 -0.2459
  424loPI   C4B 6784  16.289   8.861   7.948  0.3521  0.0703  0.0941
  425loPI    C1 6785   6.460  10.522  10.166 -0.0665  0.0580 -0.0548
  425loPI    C2 6786   6.250  10.379  10.475 -0.1174  0.3979  0.0723
  425loPI    C3 6787   6.616  10.237  10.399 -0.3166 -0.0706 -0.0416
  425loPI   PO4 6788   6.300  10.510   9.970  0.0398 -0.1838 -0.2594
  425loPI   GL1 6789   6.020  10.313   9.665  0.0702  0.1890  0.0056
  425loPI   GL2 6790   5.705  10.315   9.570 -0.1169  0.0950  0.0486
  425loPI   C1A 6791   6.132  10.432   9.313 -0.1371  0.0264  0.0891
  425loPI   C2A 6792   6.134  10.398   8.873 -0.1798  0.0348 -0.2189
  425loPI   C3A 6793   6.050  10.241   8.467  0.2532  0.1111  0.1873
  425loPI   C4A 6794   5.794  10.074   8.183 -0.2122 -0.3062 -0.2626
  425loPI   C5A 6795   5.826  10.176   7.748  0.1033  0.3472  0.2780
  425loPI   C6A 6796   6.052  10.237   7.395  0.0260  0.0980  0.0619
  425loPI   C1B 6797   5.649  10.271   9.210 -0.1808  0.0907  0.1695
  425loPI   C2B 6798   5.655  10.231   8.773  0.2275  0.0180 -0.1796
  425loPI   C3B 6799   5.524  10.488   8.465  0.2583 -0.2067 -0.4548
  425loPI   C4B 6800   5.666  10.637   8.172 -0.2323 -0.0408  0.1869
  426loPI    C1 6801   4.402  14.322   9.987 -0.0652 -0.1583 -0.0651
  426loPI    C2 6802   4.026  14.203   9.920 -0.1534 -0.0070  0.1511
  426loPI    C3 6803   4.123  14.375  10.268  0.0515  0.2207 -0.0150
  426loPI   PO4 6804   4.435  14.453   9.718  0.0629  0.1043 -0.2763
  426loPI   GL1 6805   4.435  14.745   9.418 -0.0643 -0.2305  0.0736
  426loPI   GL2 6806   4.622  14.972   9.502  0.1734 -0.1238  0.2161
  426loPI   C1A 6807   4.243  14.726   9.020 -0.1983  0.3191 -0.0041
  426loPI   C2A 6808   4.489  14.540   8.752  0.0114  0.0872 -0.1557
  426loPI   C3A 6809   4.901  14.599   8.590  0.1349 -0.0116 -0.2569
  426loPI   C4A 6810   5.127  14.800   8.445  0.0930  0.2457  0.1811
  426loPI   C5A 6811   5.258  14.982   8.098 -0.0123 -0.2083  0.1834
  426loPI   C6A 6812   5.181  15.054   7.644  0.0353  0.2525 -0.3899
  426loPI   C1B 6813   4.716  15.222   9.200 -0.1268 -0.0484 -0.3769
  426loPI   C2B 6814   4.617  15.019   8.826 -0.0178 -0.1188  0.0697
  426loPI   C3B 6815   4.698  15.046   8.371 -0.3540 -0.1107  0.0466
  426loPI   C4B 6816   4.687  15.148   8.034 -0.0541  0.4229  0.0092
  427loPI    C1 6817   5.920  12.809  10.027 -0.1400 -0.1578 -0.0419
  427loPI    C2 6818   5.590  13.035  10.055  0.0488  0.1415 -0.1824
  427loPI    C3 6819   5.913  13.124  10.274  0.0850 -0.0661 -0.1495
  427loPI   PO4 6820   5.939  12.772   9.750  0.0859  0.2882  0.2215
  427loPI   GL1 6821   6.004  13.150   9.418 -0.3373  0.1258  0.0596
  427loPI   GL2 6822   6.183  12.750   9.322  0.5417 -0.2081  0.0213
  427loPI   C1A 6823   6.073  13.197   9.122 -0.0085 -0.0981 -0.1133
  427loPI   C2A 6824   6.148  13.349   8.718  0.2114 -0.1165 -0.1318
  427loPI   C3A 6825   6.283  13.366   8.318  0.1114 -0.0923 -0.1927
  427loPI   C4A 6826   6.341  12.971   8.002 -0.0183 -0.0921 -0.2634
  427loPI   C5A 6827   6.248  12.591   7.897  0.1441 -0.2562  0.0219
  427loPI   C6A 6828   5.869  12.406   7.656 -0.2269  0.1470 -0.3154
  427loPI   C1B 6829   6.023  12.750   8.846 -0.1453  0.3217 -0.1305
  427loPI   C2B 6830   5.862  12.974   8.477  0.1402  0.0693 -0.4888
  427loPI   C3B 6831   5.913  13.124   8.112  0.2900  0.3019 -0.1880
  427loPI   C4B 6832   6.072  13.362   7.830 -0.1374  0.1580 -0.0069
  428loPI    C1 6833  12.613   7.665  10.084 -0.0294  0.1443 -0.0274
  428loPI    C2 6834  12.879   7.609  10.377 -0.1574 -0.1429  0.0376
  428loPI    C3 6835  12.493   7.527  10.439 -0.2648  0.2655 -0.0578
  428loPI   PO4 6836  12.593   7.504   9.780 -0.1432  0.0719  0.0247
  428loPI   GL1 6837  12.424   7.470   9.475  0.2744 -0.0702 -0.2122
  428loPI   GL2 6838  12.156   7.490   9.402  0.3099 -0.1186 -0.1315
  428loPI   C1A 6839  12.519   7.488   9.074 -0.1807 -0.3260  0.0884
  428loPI   C2A 6840  12.284   7.436   8.709 -0.0265  0.0415 -0.2188
  428loPI   C3A 6841  12.300   7.496   8.367  0.1179  0.3710  0.2284
  428loPI   C4A 6842  12.391   7.466   7.922 -0.1129  0.0833  0.1763
  428loPI   C5A 6843  12.555   7.711   7.585 -0.3016  0.0899 -0.1603
  428loPI   C6A 6844  12.494   7.554   7.131  0.0272 -0.2287  0.3633
  428loPI   C1B 6845  11.984   7.481   9.072  0.0537 -0.0005 -0.1275
  428loPI   C2B 6846  11.622   7.439   8.836  0.0476 -0.3843  0.1037
  428loPI   C3B 6847  11.272   7.469   8.587 -0.1505 -0.0838 -0.0257
  428loPI   C4B 6848  11.078   7.325   8.183 -0.0255 -0.1841 -0.3940
  429loPI    C1 6849  16.940  11.802   9.825  0.0741 -0.0259  0.1888
  429loPI    C2 6850  17.116  12.142   9.708  0.0368 -0.0695  0.0034
  429loPI    C3 6851  16.834  12.150   9.991 -0.1605  0.0915 -0.1945
  429loPI   PO4 6852  16.954  11.595   9.520  0.0383 -0.3170 -0.1528
  429loPI   GL1 6853  17.188  11.473   9.214 -0.0873  0.1043 -0.2385
  429loPI   GL2 6854  17.383  11.758   9.241  0.0028 -0.1484 -0.3105
  429loPI   C1A 6855  17.017  11.315   8.725  0.1112  0.0965 -0.1754
  429loPI   C2A 6856  16.958  11.234   8.391  0.3231  0.0976  0.2884
  429loPI   C3A 6857  16.977  11.191   8.001  0.2767  0.0610  0.1970
  429loPI   C4A 6858  16.733  11.056   7.819  0.0208  0.0123 -0.0948
  429loPI   C5A 6859  16.321  10.997   7.705  0.2298  0.3554  0.0486
  429loPI   C6A 6860  15.964  11.023   7.464 -0.2429 -0.1971 -0.0576
  429loPI   C1B 6861  17.493  11.566   8.837 -0.0785  0.1090 -0.2076
  429loPI   C2B 6862  17.810  11.435   8.685 -0.1968 -0.3052 -0.1031
  429loPI   C3B 6863  17.970  11.058   8.712  0.0233  0.2699  0.1602
  429loPI   C4B 6864  17.852  10.581   8.868  0.3669 -0.0455 -0.0532
  430loPI    C1 6865  17.026   8.751  10.014  0.0113 -0.0731  0.1311
  430loPI    C2 6866  16.816   8.724   9.675  0.0911 -0.2496  0.0946
  430loPI    C3 6867  16.644   8.633  10.024  0.0479 -0.1971  0.0870
  430loPI   PO4 6868  17.218   8.899   9.886 -0.1330 -0.0828 -0.1862
  430loPI   GL1 6869  17.452   8.935   9.518 -0.3464  0.2299 -0.1168
  430loPI   GL2 6870  17.117   9.018   9.429 -0.1569  0.0692 -0.1810
  430loPI   C1A 6871  17.390   9.332   9.199  0.0159  0.1174 -0.1821
  430loPI   C2A 6872  17.394   9.343   8.721 -0.0315  0.1696 -0.0348
  430loPI   C3A 6873  17.239   9.306   8.267  0.3118  0.1139 -0.0803
  430loPI   C4A 6874  17.433   9.038   7.922 -0.1116 -0.1618 -0.0174
  430loPI   C5A 6875  17.462   8.751   7.607 -0.1388 -0.1430 -0.1003
  430loPI   C6A 6876  17.596   8.462   7.387 -0.1277  0.5090 -0.0941
  430loPI   C1B 6877  16.933   8.947   8.960 -0.1663 -0.2558 -0.1062
  430loPI   C2B 6878  16.719   8.560   8.852 -0.1450 -0.1355 -0.0596
  430loPI   C3B 6879  16.876   8.249   8.414  0.2847 -0.0771 -0.1305
  430loPI   C4B 6880  17.179   8.142   8.159 -0.0975 -0.3913  0.0190
  431loPI    C1 6881   1.097   4.110   9.444 -0.1770 -0.0639 -0.0408
  431loPI    C2 6882   1.248   3.912   9.757 -0.5466 -0.1153  0.1097
  431loPI    C3 6883   0.990   4.212   9.815 -0.1194  0.3113 -0.1232
  431loPI   PO4 6884   1.061   3.974   9.285 -0.0742  0.0565  0.2699
  431loPI   GL1 6885   1.311   3.779   8.908 -0.0292 -0.3204  0.6072
  431loPI   GL2 6886   1.202   4.077   8.723 -0.5161 -0.1187 -0.3945
  431loPI   C1A 6887   1.344   3.618   8.556  0.0135 -0.0490  0.1026
  431loPI   C2A 6888   1.307   3.519   8.068 -0.4100 -0.1474 -0.1376
  431loPI   C3A 6889   1.291   3.586   7.703 -0.2552 -0.0431 -0.1416
  431loPI   C4A 6890   1.269   3.582   7.259 -0.2444  0.2328  0.4308
  431loPI   C5A 6891   1.179   3.438   6.903  0.1156 -0.0746  0.1303
  431loPI   C6A 6892   0.992   3.421   6.589 -0.1795  0.2921  0.3491
  431loPI   C1B 6893   1.206   4.116   8.300  0.0025 -0.4165  0.0473
  431loPI   C2B 6894   0.964   4.165   7.918  0.1069  0.1312  0.4079
  431loPI   C3B 6895   0.583   4.241   7.787 -0.2614 -0.1267 -0.1171
  431loPI   C4B 6896   0.261   4.009   7.583  0.0344 -0.0772 -0.2395
  432loPI    C1 6897  15.938  15.222   9.628  0.1154  0.1261  0.0122
  432loPI    C2 6898  15.726  15.081   9.936 -0.0765 -0.0657 -0.2042
  432loPI    C3 6899  16.092  15.230   9.997 -0.1534 -0.0061  0.1296
  432loPI   PO4 6900  15.939  14.998   9.435 -0.0336  0.2743 -0.1120
  432loPI   GL1 6901  16.026  15.017   8.962 -0.0078  0.0747  0.1213
  432loPI   GL2 6902  16.304  15.226   8.817  0.0559 -0.0888  0.0337
  432loPI   C1A 6903  15.716  15.092   8.692 -0.0337  0.0978  0.1043
  432loPI   C2A 6904  15.681  14.986   8.336 -0.0983  0.0665 -0.1689
  432loPI   C3A 6905  15.867  15.145   7.972 -0.0529  0.2950 -0.2168
  432loPI   C4A 6906  16.024  15.163   7.525 -0.0767 -0.1544 -0.2173
  432loPI   C5A 6907  15.961  15.395   7.195  0.6737  0.1792 -0.2110
  432loPI   C6A 6908  15.920  15.740   6.886  0.1965  0.2058 -0.0158
  432loPI   C1B 6909  16.207  15.054   8.399  0.1590 -0.0831 -0.1462
  432loPI   C2B 6910  16.320  14.881   7.931 -0.0338  0.2541 -0.0485
  432loPI   C3B 6911  16.487  14.565   7.522  0.3249 -0.0953  0.0307
  432loPI   C4B 6912  16.658  14.181   7.186 -0.0862  0.1927 -0.0410
  433loPI    C1 6913   0.080   7.698   9.921  0.0616 -0.0749  0.1011
  433loPI    C2 6914  -0.171   7.825  10.205  0.2079  0.1052  0.1516
  433loPI    C3 6915   0.189   7.682  10.305  0.0958 -0.2322  0.0857
  433loPI   PO4 6916   0.010   7.884   9.663  0.0736  0.0930  0.1045
  433loPI   GL1 6917  -0.188   7.530   9.358  0.0993 -0.1312  0.0359
  433loPI   GL2 6918  -0.444   7.859   9.376  0.2579  0.1610  0.0259
  433loPI   C1A 6919   0.076   7.717   9.001 -0.2224 -0.2257 -0.1654
  433loPI   C2A 6920  -0.124   7.552   8.654 -0.1272 -0.2201 -0.3580
  433loPI   C3A 6921  -0.220   7.474   8.216  0.2513  0.6145 -0.1220
  433loPI   C4A 6922  -0.506   7.256   7.975  0.0418  0.1214  0.2154
  433loPI   C5A 6923  -0.593   7.158   7.527  0.1387  0.0235  0.1231
  433loPI   C6A 6924  -0.855   6.840   7.314 -0.2288 -0.1309 -0.0181
  433loPI   C1B 6925  -0.415   7.812   9.005  0.1101  0.5644  0.2106
  433loPI   C2B 6926  -0.475   7.811   8.438  0.0707  0.3031 -0.3380
  433loPI   C3B 6927  -0.557   7.824   7.995 -0.0307 -0.0926 -0.1338
  433loPI   C4B 6928  -0.774   7.615   7.684 -0.3971  0.0354  0.3992
  434loPI    C1 6929   4.233   7.342  10.280 -0.0687 -0.1117  0.1349
  434loPI    C2 6930   4.318   7.359  10.671  0.2192 -0.1506  0.0769
  434loPI    C3 6931   4.322   7.008  10.480  0.1766 -0.1192  0.0178
  434loPI   PO4 6932   3.954   7.458  10.190  0.1164  0.3389  0.0931
  434loPI   GL1 6933   3.852   7.735   9.748  0.1083 -0.0414 -0.1664
  434loPI   GL2 6934   3.761   8.022   9.693 -0.2129  0.1501  0.1452
  434loPI   C1A 6935   3.914   7.772   9.212  0.0029  0.1038  0.0464
  434loPI   C2A 6936   3.804   8.092   8.910  0.0896 -0.1582  0.1394
  434loPI   C3A 6937   3.876   8.391   8.582  0.0301  0.3464  0.3016
  434loPI   C4A 6938   4.151   8.630   8.373  0.1116 -0.0248 -0.0663
  434loPI   C5A 6939   4.127   8.810   7.880 -0.1601  0.3177  0.4302
  434loPI   C6A 6940   4.054   8.995   7.454  0.2247  0.2964 -0.0412
  434loPI   C1B 6941   3.536   8.167   9.322  0.0133  0.2243 -0.0623
  434loPI   C2B 6942   3.280   8.191   8.924  0.0088 -0.0411  0.1860
  434loPI   C3B 6943   3.452   8.071   8.469 -0.0256  0.0893 -0.1253
  434loPI   C4B 6944   3.782   8.033   8.224  0.1108 -0.0949  0.1624
  435loPI    C1 6945   4.161   9.582  10.640 -0.0807 -0.0291  0.1595
  435loPI    C2 6946   3.796   9.711  10.739 -0.1356 -0.0808  0.0259
  435loPI    C3 6947   4.057   9.610  11.025 -0.2251 -0.0420  0.1217
  435loPI   PO4 6948   4.279   9.714  10.401 -0.3079 -0.0238 -0.1375
  435loPI   GL1 6949   4.499   9.670  10.064  0.2941 -0.0707  0.1399
  435loPI   GL2 6950   4.237   9.905   9.950 -0.1605 -0.3234 -0.1150
  435loPI   C1A 6951   4.332   9.416   9.735 -0.3889 -0.1478 -0.0337
  435loPI   C2A 6952   4.400   9.385   9.204  0.1465  0.0394  0.0750
  435loPI   C3A 6953   4.488   9.354   8.710 -0.0587  0.0445 -0.4509
  435loPI   C4A 6954   4.616   9.388   8.210  0.1439 -0.1036 -0.1437
  435loPI   C5A 6955   4.404   9.218   7.786 -0.0142  0.0400 -0.0346
  435loPI   C6A 6956   4.540   8.730   7.612  0.0780 -0.2295  0.3521
  435loPI   C1B 6957   4.258   9.921   9.493  0.0968  0.1665 -0.1537
  435loPI   C2B 6958   4.382   9.952   9.159  0.0461 -0.0582  0.0640
  435loPI   C3B 6959   4.345   9.878   8.737  0.0732 -0.3837  0.2640
  435loPI   C4B 6960   4.308   9.710   8.452 -0.1515 -0.2607  0.2383
  436loPI    C1 6961  11.579  11.913   9.698  0.2436 -0.0892  0.0274
  436loPI    C2 6962  11.548  11.564   9.890  0.2919 -0.0179  0.1661
  436loPI    C3 6963  11.664  11.891  10.088  0.2048  0.0865  0.0463
  436loPI   PO4 6964  11.694  11.835   9.509  0.0380  0.2315  0.3713
  436loPI   GL1 6965  11.693  11.896   9.108 -0.1713  0.2587 -0.1189
  436loPI   GL2 6966  11.738  11.593   8.909 -0.2296  0.0917 -0.1097
  436loPI   C1A 6967  11.452  11.992   8.608 -0.0815 -0.1431  0.1006
  436loPI   C2A 6968  11.297  11.875   8.245 -0.2825 -0.1191 -0.1455
  436loPI   C3A 6969  11.174  11.819   7.755  0.0695  0.2933 -0.2305
  436loPI   C4A 6970  11.358  11.794   7.446  0.1756  0.0464  0.2388
  436loPI   C5A 6971  11.629  11.898   7.080  0.1156  0.0269  0.2056
  436loPI   C6A 6972  11.830  12.118   6.973 -0.0781 -0.0312  0.1959
  436loPI   C1B 6973  11.547  11.506   8.515 -0.1393 -0.1177  0.2714
  436loPI   C2B 6974  11.417  11.419   8.160  0.2426 -0.1918 -0.0207
  436loPI   C3B 6975  11.162  11.220   7.724 -0.0587  0.1076 -0.1223
  436loPI   C4B 6976  11.056  11.338   7.334  0.0264  0.2025  0.2265
  437loPI    C1 6977   4.615  15.072  10.166  0.0601  0.0152  0.0561
  437loPI    C2 6978   4.734  14.747   9.966  0.1437 -0.0255  0.1707
  437loPI    C3 6979   4.559  14.708  10.323 -0.1115  0.0403  0.0548
  437loPI   PO4 6980   4.588  15.232   9.956 -0.1519 -0.2409  0.4802
  437loPI   GL1 6981   4.431  15.494   9.695 -0.0671 -0.1439 -0.0952
  437loPI   GL2 6982   4.167  15.311   9.595 -0.1772  0.0032  0.0906
  437loPI   C1A 6983   4.502  15.661   9.286  0.2755  0.0818 -0.2942
  437loPI   C2A 6984   4.690  15.629   8.843 -0.2248 -0.1637 -0.0741
  437loPI   C3A 6985   4.566  15.516   8.554  0.2415  0.0244  0.2206
  437loPI   C4A 6986   4.359  15.522   8.163 -0.0445 -0.0627 -0.0792
  437loPI   C5A 6987   4.151  15.263   7.906  0.1384 -0.2567 -0.1189
  437loPI   C6A 6988   3.905  14.896   8.017 -0.3187 -0.0182  0.1136
  437loPI   C1B 6989   4.202  15.199   9.177  0.3051  0.0429  0.3578
  437loPI   C2B 6990   4.155  15.527   8.917 -0.1234  0.0177  0.1555
  437loPI   C3B 6991   3.910  15.566   8.477  0.2522  0.0254  0.1148
  437loPI   C4B 6992   3.842  15.384   8.276 -0.2478  0.1833 -0.1109
  438loPI    C1 6993  18.487  16.403   9.270 -0.0647  0.0680 -0.1185
  438loPI    C2 6994  18.727  16.602   9.520 -0.1321 -0.0419  0.0358
  438loPI    C3 6995  18.524  16.283   9.650 -0.1861 -0.0862 -0.1540
  438loPI   PO4 6996  18.572  16.523   9.062 -0.1881 -0.2163  0.1276
  438loPI   GL1 6997  18.819  16.561   8.694 -0.0151 -0.1158 -0.1428
  438loPI   GL2 6998  18.825  16.200   8.720 -0.0557 -0.2348  0.0970
  438loPI   C1A 6999  18.714  16.632   8.302 -0.0132 -0.1158  0.1510
  438loPI   C2A 7000  18.558  16.701   7.864  0.1294 -0.0674 -0.2866
  438loPI   C3A 7001  18.668  16.855   7.493 -0.0046  0.1022  0.0684
  438loPI   C4A 7002  18.929  17.068   7.130 -0.2002 -0.2235  0.3500
  438loPI   C5A 7003  19.040  17.290   6.735 -0.0428  0.4064  0.2801
  438loPI   C6A 7004  19.312  17.361   6.372 -0.0903  0.0091  0.3742
  438loPI   C1B 7005  18.681  16.135   8.254  0.0410  0.0239  0.0799
  438loPI   C2B 7006  18.654  16.191   7.878 -0.1478 -0.0275 -0.0029
  438loPI   C3B 7007  18.404  16.306   7.510  0.0206 -0.1750  0.0830
  438loPI   C4B 7008  18.437  16.381   7.118  0.1177 -0.1206  0.2215
  439loPI    C1 7009   2.600  17.922   9.426  0.1619 -0.1458 -0.0621
  439loPI    C2 7010   2.736  18.271   9.287 -0.1680  0.0281  0.0400
  439loPI    C3 7011   2.847  18.143   9.650  0.0675 -0.0459 -0.0558
  439loPI   PO4 7012   2.375  17.906   9.382  0.0927 -0.0568  0.1718
  439loPI   GL1 7013   2.197  17.645   9.098 -0.0836  0.1924 -0.0279
  439loPI   GL2 7014   2.021  17.319   9.083 -0.0547 -0.5128 -0.2164
  439loPI   C1A 7015   2.316  17.565   8.743 -0.1631 -0.2079  0.0167
  439loPI   C2A 7016   2.130  17.427   8.304 -0.0423  0.1264  0.4583
  439loPI   C3A 7017   2.134  17.466   7.848 -0.3409 -0.0548  0.1241
  439loPI   C4A 7018   1.899  17.305   7.506  0.0187 -0.0547  0.1726
  439loPI   C5A 7019   1.675  17.357   7.200  0.0238 -0.0614  0.1586
  439loPI   C6A 7020   1.245  17.243   7.328 -0.1277 -0.3670 -0.1050
  439loPI   C1B 7021   2.134  17.000   8.702 -0.0701  0.2458  0.0870
  439loPI   C2B 7022   2.338  16.892   8.275 -0.0188 -0.2705  0.2137
  439loPI   C3B 7023   2.607  16.862   7.973  0.2187 -0.2693  0.0137
  439loPI   C4B 7024   2.635  16.995   7.598 -0.2017  0.3418  0.1067
  440loPI    C1 7025  15.800  10.043   9.592  0.1091  0.0759 -0.0288
  440loPI    C2 7026  15.966   9.681   9.623  0.2038  0.1043 -0.1945
  440loPI    C3 7027  16.106   9.983   9.844  0.0385  0.0109  0.0420
  440loPI   PO4 7028  15.736  10.055   9.372 -0.1104 -0.1852  0.0945
  440loPI   GL1 7029  15.461  10.026   9.046  0.0106  0.1807 -0.1661
  440loPI   GL2 7030  15.253  10.080   8.731 -0.1319  0.3059  0.0899
  440loPI   C1A 7031  15.657   9.695   8.728 -0.0335  0.0840 -0.1527
  440loPI   C2A 7032  15.604   9.640   8.234  0.0925  0.0679  0.0234
  440loPI   C3A 7033  15.818   9.246   7.986  0.3219 -0.1108 -0.1251
  440loPI   C4A 7034  15.921   9.121   7.574 -0.0729  0.2203  0.0981
  440loPI   C5A 7035  16.151   8.775   7.523 -0.2724 -0.1164 -0.2628
  440loPI   C6A 7036  16.209   8.390   7.823  0.0399  0.1295  0.2439
  440loPI   C1B 7037  15.254   9.993   8.281 -0.4149 -0.0875  0.1365
  440loPI   C2B 7038  15.345   9.792   7.844  0.0066  0.0600 -0.3566
  440loPI   C3B 7039  15.562   9.587   7.467 -0.1930  0.1863 -0.2681
  440loPI   C4B 7040  15.933   9.678   7.190  0.0075  0.1095 -0.1345
  441loPI    C1 7041  15.161  15.722   9.674 -0.0820 -0.0787 -0.0088
  441loPI    C2 7042  14.782  15.831   9.740 -0.0488 -0.1862  0.3805
  441loPI    C3 7043  15.019  15.733  10.047  0.3726  0.1272  0.1656
  441loPI   PO4 7044  15.191  15.712   9.380 -0.1312  0.1125 -0.1982
  441loPI   GL1 7045  15.445  15.689   9.073  0.0513  0.1540  0.0107
  441loPI   GL2 7046  15.373  16.064   8.821  0.1771  0.1400 -0.0680
  441loPI   C1A 7047  15.479  15.463   8.559  0.0587 -0.1135  0.1306
  441loPI   C2A 7048  15.585  15.532   8.131  0.0961 -0.1754  0.3745
  441loPI   C3A 7049  15.843  15.672   7.832 -0.2102  0.1791  0.0538
  441loPI   C4A 7050  15.827  15.856   7.380  0.0560  0.2889 -0.1802
  441loPI   C5A 7051  15.650  16.199   7.007  0.0801 -0.1442 -0.0466
  441loPI   C6A 7052  15.764  16.620   6.921  0.1635 -0.0663 -0.2271
  441loPI   C1B 7053  15.236  15.860   8.425 -0.1412 -0.0154 -0.1521
  441loPI   C2B 7054  15.009  15.502   8.219 -0.3036  0.1528 -0.0456
  441loPI   C3B 7055  14.800  15.114   7.950  0.1562 -0.2476  0.1241
  441loPI   C4B 7056  14.506  15.176   7.602  0.3084 -0.0748 -0.1990
  442loPI    C1 7057  13.671   3.958   9.742 -0.0202 -0.1206  0.0087
  442loPI    C2 7058  13.796   4.060  10.108  0.0296 -0.2079  0.0164
  442loPI    C3 7059  13.407   4.080  10.016  0.0078 -0.2563  0.0971
  442loPI   PO4 7060  13.985   3.961   9.464 -0.1031  0.2533 -0.1984
  442loPI   GL1 7061  14.182   3.831   9.025 -0.1669  0.0697  0.1149
  442loPI   GL2 7062  13.900   3.719   9.050 -0.3345 -0.2392  0.1739
  442loPI   C1A 7063  14.327   4.073   8.617 -0.1758 -0.0671 -0.1016
  442loPI   C2A 7064  14.370   4.181   8.166 -0.0254 -0.2624 -0.0663
  442loPI   C3A 7065  14.116   4.559   7.959 -0.0528  0.0063  0.0007
  442loPI   C4A 7066  13.945   4.831   7.658 -0.0992  0.2177 -0.0717
  442loPI   C5A 7067  13.920   4.819   7.344  0.2950 -0.1383 -0.2032
  442loPI   C6A 7068  13.762   4.625   7.033  0.1952  0.1415 -0.2250
  442loPI   C1B 7069  13.777   3.859   8.668  0.0514 -0.1298 -0.0500
  442loPI   C2B 7070  13.738   3.605   8.308  0.4940 -0.0519  0.4396
  442loPI   C3B 7071  13.961   3.355   8.058  0.0726 -0.0918 -0.0909
  442loPI   C4B 7072  14.385   3.393   7.870 -0.4422 -0.5030  0.1648
  443loPI    C1 7073   7.383   4.128   9.924 -0.0662  0.1272  0.0435
  443loPI    C2 7074   7.465   4.376  10.228  0.0012 -0.1122  0.2233
  443loPI    C3 7075   7.085   4.311  10.119 -0.0146  0.1043  0.1443
  443loPI   PO4 7076   7.689   4.017   9.906 -0.3377 -0.0687 -0.0752
  443loPI   GL1 7077   7.872   3.914   9.607  0.2121 -0.0562 -0.1514
  443loPI   GL2 7078   8.144   3.830   9.594  0.1847  0.0876  0.2758
  443loPI   C1A 7079   8.029   3.981   9.127  0.1931  0.2068 -0.1519
  443loPI   C2A 7080   7.958   4.081   8.752 -0.4923  0.0628  0.0190
  443loPI   C3A 7081   7.974   4.284   8.436 -0.1868 -0.2982 -0.2373
  443loPI   C4A 7082   7.936   4.438   8.075 -0.1944  0.1555 -0.1094
  443loPI   C5A 7083   7.884   4.774   7.789  0.2260  0.3417 -0.2716
  443loPI   C6A 7084   7.759   5.233   7.760  0.1004  0.0670 -0.0574
  443loPI   C1B 7085   8.088   3.488   9.222 -0.0009  0.2880  0.1356
  443loPI   C2B 7086   7.972   3.502   8.795  0.1590  0.4468 -0.0877
  443loPI   C3B 7087   7.711   3.658   8.348  0.0612 -0.1092 -0.1469
  443loPI   C4B 7088   7.372   3.697   8.093 -0.1430  0.0850 -0.0036
  444loPI    C1 7089   1.395  15.501   9.316 -0.2257  0.2750 -0.1422
  444loPI    C2 7090   1.123  15.593   9.595 -0.1144  0.2126 -0.0122
  444loPI    C3 7091   1.510  15.571   9.692 -0.1126 -0.1639 -0.0909
  444loPI   PO4 7092   1.360  15.233   9.244  0.1995  0.1014 -0.0399
  444loPI   GL1 7093   1.446  14.789   9.034  0.0054  0.2681 -0.0555
  444loPI   GL2 7094   1.554  15.116   8.803  0.3523 -0.0140 -0.0533
  444loPI   C1A 7095   1.754  14.520   8.833  0.1736  0.0107 -0.4360
  444loPI   C2A 7096   1.694  14.319   8.403 -0.0257  0.2998 -0.2088
  444loPI   C3A 7097   1.559  14.201   8.010  0.0073 -0.0074 -0.0785
  444loPI   C4A 7098   1.503  14.268   7.610 -0.0798 -0.0483  0.1156
  444loPI   C5A 7099   1.324  14.372   7.183  0.3848  0.1591 -0.0229
  444loPI   C6A 7100   1.137  14.668   6.923  0.1043 -0.1707  0.4182
  444loPI   C1B 7101   1.923  15.342   8.609 -0.3891  0.0849  0.0836
  444loPI   C2B 7102   1.966  15.596   8.296  0.2262 -0.1514  0.1937
  444loPI   C3B 7103   2.029  15.474   7.853 -0.0716 -0.1161  0.0697
  444loPI   C4B 7104   1.734  15.513   7.496 -0.0484  0.1571 -0.0672
  445loPI    C1 7105   2.431  11.648  10.336  0.0910  0.0543 -0.0887
  445loPI    C2 7106   2.547  11.381  10.611 -0.2995  0.0023  0.0318
  445loPI    C3 7107   2.647  11.766  10.652 -0.2323 -0.0291  0.1694
  445loPI   PO4 7108   2.596  11.535  10.058 -0.0783  0.1199  0.1743
  445loPI   GL1 7109   2.992  11.711   9.893  0.1377 -0.0953  0.0659
  445loPI   GL2 7110   2.876  11.995   9.815 -0.0232  0.4003  0.1518
  445loPI   C1A 7111   3.236  11.748   9.534  0.0637 -0.2532  0.3096
  445loPI   C2A 7112   3.213  11.837   9.170 -0.2220  0.2286  0.2779
  445loPI   C3A 7113   3.166  11.842   8.713  0.2926 -0.4934 -0.2968
  445loPI   C4A 7114   2.889  11.664   8.375  0.2511  0.1783 -0.1713
  445loPI   C5A 7115   2.456  11.614   8.474  0.1696  0.1165 -0.1205
  445loPI   C6A 7116   2.086  11.416   8.746 -0.0377  0.0051 -0.3886
  445loPI   C1B 7117   2.643  11.913   9.445 -0.2656  0.1080  0.2541
  445loPI   C2B 7118   2.333  11.719   9.098  0.1563 -0.4109  0.0148
  445loPI   C3B 7119   2.224  11.977   8.737  0.4896  0.0313  0.0479
  445loPI   C4B 7120   2.277  12.067   8.395 -0.0416  0.0294  0.1587
  446loPI    C1 7121  19.449  19.219  10.069 -0.0547  0.0754  0.0689
  446loPI    C2 7122  19.841  19.265  10.133  0.0065  0.0300 -0.2539
  446loPI    C3 7123  19.620  19.056  10.392  0.2420 -0.1501 -0.1936
  446loPI   PO4 7124  19.473  19.209   9.779  0.2177  0.0297  0.0314
  446loPI   GL1 7125  19.411  19.179   9.256 -0.3055  0.4933 -0.3288
  446loPI   GL2 7126  19.710  18.970   9.332 -0.2890 -0.1833  0.0221
  446loPI   C1A 7127  19.512  19.071   8.878 -0.0635  0.0537 -0.0451
  446loPI   C2A 7128  19.775  19.006   8.549  0.3684  0.1004 -0.1213
  446loPI   C3A 7129  19.664  19.275   8.195 -0.2774 -0.0108  0.0059
  446loPI   C4A 7130  19.752  19.502   7.806  0.1130  0.0938 -0.0406
  446loPI   C5A 7131  20.036  19.615   7.598 -0.1338  0.1046 -0.0845
  446loPI   C6A 7132  20.338  19.627   7.203 -0.2101 -0.2407 -0.3217
  446loPI   C1B 7133  20.033  19.058   8.992  0.1348  0.4969  0.0147
  446loPI   C2B 7134  20.239  18.798   8.648  0.0836 -0.1601 -0.0956
  446loPI   C3B 7135  20.081  18.692   8.293  0.0561  0.1498 -0.0173
  446loPI   C4B 7136  20.035  18.593   7.847  0.1124  0.0133 -0.4866
  447loPI    C1 7137  14.420  14.190   9.561  0.1228  0.4738  0.0431
  447loPI    C2 7138  14.119  14.345   9.773 -0.0361  0.0108  0.1690
  447loPI    C3 7139  14.459  14.241   9.956 -0.0756 -0.1459  0.1548
  447loPI   PO4 7140  14.416  14.385   9.377  0.0892  0.4338 -0.0149
  447loPI   GL1 7141  14.709  14.525   9.105 -0.2802  0.0179 -0.0365
  447loPI   GL2 7142  14.850  14.783   9.014 -0.1815  0.0272  0.1154
  447loPI   C1A 7143  14.794  14.301   8.669 -0.4347 -0.1847 -0.0550
  447loPI   C2A 7144  14.636  14.160   8.266 -0.1571 -0.0735 -0.0904
  447loPI   C3A 7145  14.492  14.225   7.794 -0.3500  0.1259 -0.3162
  447loPI   C4A 7146  14.387  14.143   7.346  0.0290 -0.2165 -0.2586
  447loPI   C5A 7147  14.711  14.358   7.145 -0.0778 -0.2835 -0.0819
  447loPI   C6A 7148  15.084  14.698   7.020 -0.3132  0.0556  0.1063
  447loPI   C1B 7149  14.863  14.751   8.552 -0.0234  0.0032 -0.1752
  447loPI   C2B 7150  14.948  14.626   8.193  0.0274  0.3362 -0.3529
  447loPI   C3B 7151  15.053  14.311   7.993 -0.2299  0.1531 -0.1023
  447loPI   C4B 7152  15.091  14.299   7.521 -0.0381  0.0457 -0.1245
  448loPI    C1 7153  11.548   6.049   9.639  0.2626  0.2123  0.1840
  448loPI    C2 7154  11.615   5.902  10.005 -0.2090 -0.1846  0.1221
  448loPI    C3 7155  11.508   5.657   9.708 -0.4389  0.2125 -0.1317
  448loPI   PO4 7156  11.360   6.151   9.664 -0.1434 -0.0755 -0.1582
  448loPI   GL1 7157  11.196   6.414   9.353  0.0208  0.0104 -0.1801
  448loPI   GL2 7158  11.429   6.527   9.230 -0.1013  0.0688  0.0965
  448loPI   C1A 7159  11.021   6.577   8.935 -0.0885  0.3479 -0.4170
  448loPI   C2A 7160  10.648   6.531   8.599  0.0363  0.0711 -0.2219
  448loPI   C3A 7161  10.511   6.322   8.238  0.1573 -0.1995 -0.0868
  448loPI   C4A 7162  10.745   6.207   7.922 -0.0160 -0.0655  0.0044
  448loPI   C5A 7163  10.780   6.218   7.448  0.6069 -0.0657  0.1242
  448loPI   C6A 7164  10.958   6.548   7.138  0.1003  0.1964  0.1303
  448loPI   C1B 7165  11.525   6.549   8.774  0.2320  0.2106 -0.0562
  448loPI   C2B 7166  11.607   6.610   8.394  0.2062 -0.0641  0.0275
  448loPI   C3B 7167  11.841   6.813   8.001 -0.0151  0.2173 -0.3106
  448loPI   C4B 7168  11.959   6.846   7.472 -0.1436  0.1294 -0.0148
  449loPI    C1 7169  19.468   2.825   9.778 -0.0670 -0.0521 -0.1002
  449loPI    C2 7170  19.530   3.140  10.016 -0.1634 -0.0239 -0.1118
  449loPI    C3 7171  19.739   2.803  10.071  0.1387  0.1332 -0.2735
  449loPI   PO4 7172  19.374   2.880   9.517  0.0633  0.4320 -0.1743
  449loPI   GL1 7173  19.225   2.718   9.055 -0.0234  0.4607  0.0159
  449loPI   GL2 7174  19.433   2.450   8.867 -0.1872 -0.1047 -0.1670
  449loPI   C1A 7175  18.946   2.585   8.768 -0.3324  0.0628 -0.1870
  449loPI   C2A 7176  18.725   2.650   8.370 -0.0797  0.0461  0.0499
  449loPI   C3A 7177  18.512   2.643   7.940  0.0535 -0.1664 -0.1168
  449loPI   C4A 7178  18.393   2.750   7.497 -0.0875 -0.1260 -0.1558
  449loPI   C5A 7179  18.304   2.942   7.039  0.1403 -0.1935 -0.0605
  449loPI   C6A 7180  18.282   2.955   6.580 -0.1812 -0.0444 -0.0814
  449loPI   C1B 7181  19.335   2.648   8.463  0.3326 -0.2284 -0.2356
  449loPI   C2B 7182  19.337   2.647   8.054  0.0145  0.0243 -0.1022
  449loPI   C3B 7183  19.347   2.459   7.673  0.1514 -0.0168 -0.0794
  449loPI   C4B 7184  19.293   2.073   7.409  0.0933  0.1140 -0.1011
  450loPI    C1 7185  12.098   9.328   9.899  0.0158  0.0260 -0.1805
  450loPI    C2 7186  12.456   9.233  10.049 -0.1670 -0.1459  0.1577
  450loPI    C3 7187  12.264   9.560  10.179 -0.0171  0.1010 -0.2224
  450loPI   PO4 7188  12.181   9.334   9.630 -0.2411  0.0227  0.0637
  450loPI   GL1 7189  12.108   9.403   9.327 -0.2893 -0.1204 -0.2381
  450loPI   GL2 7190  11.826   9.216   9.140  0.1636 -0.0188 -0.3107
  450loPI   C1A 7191  12.087   9.583   8.926  0.0039 -0.0310  0.1890
  450loPI   C2A 7192  12.096   9.543   8.365  0.0140  0.0048 -0.4836
  450loPI   C3A 7193  12.209   9.562   7.906 -0.0128 -0.2068  0.0476
  450loPI   C4A 7194  12.337   9.800   7.569 -0.1351  0.0412  0.0443
  450loPI   C5A 7195  12.573   9.913   7.237 -0.0811 -0.2190 -0.0051
  450loPI   C6A 7196  12.721  10.056   6.852  0.1708 -0.1805 -0.2527
  450loPI   C1B 7197  11.581   9.426   8.880  0.0015 -0.2173  0.1622
  450loPI   C2B 7198  11.655   9.777   8.516  0.0475  0.1069  0.0438
  450loPI   C3B 7199  11.709  10.003   8.181  0.0468  0.0178 -0.2425
  450loPI   C4B 7200  11.786  10.103   7.800 -0.0222  0.0109 -0.2028
  451loPI    C1 7201  18.075   7.968  10.343 -0.0851 -0.1197 -0.1414
  451loPI    C2 7202  18.200   8.189  10.652  0.1599 -0.1662 -0.2054
  451loPI    C3 7203  17.998   7.849  10.717  0.0250 -0.0673 -0.1017
  451loPI   PO4 7204  17.886   8.169  10.180 -0.0420 -0.0017 -0.0034
  451loPI   GL1 7205  17.652   8.111   9.894 -0.4658  0.3381 -0.3110
  451loPI   GL2 7206  17.773   8.325   9.578  0.5736 -0.0734  0.2535
  451loPI   C1A 7207  17.435   8.019   9.429 -0.1735 -0.0909  0.0050
  451loPI   C2A 7208  17.385   7.907   9.170  0.1869  0.1141  0.0162
  451loPI   C3A 7209  17.065   7.760   8.917  0.2251  0.0374 -0.2054
  451loPI   C4A 7210  16.880   7.749   8.475  0.3075 -0.2210  0.0071
  451loPI   C5A 7211  16.729   7.778   8.105  0.1336  0.0555 -0.0832
  451loPI   C6A 7212  16.642   7.667   7.763 -0.0586 -0.1042 -0.0862
  451loPI   C1B 7213  17.740   8.367   9.171  0.0181  0.2676 -0.0308
  451loPI   C2B 7214  17.670   8.291   8.792  0.0250 -0.1258  0.0388
  451loPI   C3B 7215  17.586   8.382   8.328 -0.2295  0.0191 -0.0388
  451loPI   C4B 7216  17.691   8.430   7.899 -0.1399 -0.1088  0.0415
  452loPI    C1 7217   6.829  11.714  10.313  0.1312 -0.0147  0.0042
  452loPI    C2 7218   6.752  11.322  10.287 -0.0069  0.0084  0.0584
  452loPI    C3 7219   7.122  11.447  10.372  0.0656 -0.1069 -0.0829
  452loPI   PO4 7220   6.684  11.799  10.059  0.0932 -0.4815  0.0173
  452loPI   GL1 7221   6.472  11.918   9.599 -0.1275  0.1434  0.0105
  452loPI   GL2 7222   6.394  12.238   9.362  0.1207  0.1149  0.0186
  452loPI   C1A 7223   6.736  11.875   9.237  0.3168  0.2812 -0.2962
  452loPI   C2A 7224   6.563  11.976   8.819  0.2705 -0.2635 -0.1860
  452loPI   C3A 7225   6.794  12.063   8.369 -0.1090 -0.1773  0.1649
  452loPI   C4A 7226   7.043  12.347   8.313 -0.1455 -0.1641 -0.0278
  452loPI   C5A 7227   7.204  12.569   7.953 -0.0585  0.0085 -0.1915
  452loPI   C6A 7228   7.246  12.712   7.568 -0.1597 -0.0874 -0.0489
  452loPI   C1B 7229   6.420  12.394   8.965 -0.3077  0.0258  0.0786
  452loPI   C2B 7230   6.720  12.597   8.666 -0.4427  0.1601 -0.4947
  452loPI   C3B 7231   6.592  12.613   8.229  0.0584 -0.2515 -0.1982
  452loPI   C4B 7232   6.315  12.551   8.449 -0.0172  0.1555  0.1539
  453loPI    C1 7233  15.200  17.359   9.176  0.1114  0.0586  0.1519
  453loPI    C2 7234  15.366  17.019   9.306  0.1018  0.0592  0.1653
  453loPI    C3 7235  15.094  17.207   9.530  0.0828  0.0582  0.1432
  453loPI   PO4 7236  15.420  17.506   8.973  0.0192 -0.1154  0.1754
  453loPI   GL1 7237  15.421  17.779   8.669  0.1591 -0.1378 -0.0048
  453loPI   GL2 7238  15.466  18.093   8.778  0.2737  0.0972 -0.0915
  453loPI   C1A 7239  15.140  17.527   8.370 -0.6499  0.2333  0.0517
  453loPI   C2A 7240  15.119  17.641   8.040 -0.2136  0.0795  0.3599
  453loPI   C3A 7241  15.043  17.674   7.666 -0.0898  0.1914  0.0107
  453loPI   C4A 7242  15.025  17.775   7.233 -0.2988  0.0597  0.1144
  453loPI   C5A 7243  14.750  17.517   6.985  0.1669 -0.1187 -0.0011
  453loPI   C6A 7244  14.454  17.634   6.728  0.1125  0.0807  0.2083
  453loPI   C1B 7245  15.459  18.065   8.260  0.0400 -0.2361  0.2948
  453loPI   C2B 7246  15.428  18.015   7.768  0.2916  0.0336 -0.0593
  453loPI   C3B 7247  15.480  18.021   7.335 -0.0723  0.0357 -0.0573
  453loPI   C4B 7248  15.328  18.106   6.951  0.0923 -0.1110 -0.2383
  454loPI    C1 7249   7.851  10.478  10.490 -0.3265 -0.0654 -0.1338
  454loPI    C2 7250   7.779  10.084  10.475  0.1785 -0.1714  0.0526
  454loPI    C3 7251   7.721  10.285  10.816 -0.0726 -0.0815 -0.0407
  454loPI   PO4 7252   7.749  10.557  10.190 -0.0162  0.0825  0.0542
  454loPI   GL1 7253   7.874  10.457   9.723 -0.0984  0.0806  0.0805
  454loPI   GL2 7254   7.896  10.670   9.484 -0.2644 -0.3735  0.1178
  454loPI   C1A 7255   7.766  10.120   9.482 -0.3905 -0.0167 -0.0485
  454loPI   C2A 7256   7.912   9.864   9.110 -0.0730  0.0346 -0.0150
  454loPI   C3A 7257   7.954   9.812   8.686 -0.2375  0.0734 -0.2901
  454loPI   C4A 7258   7.946   9.617   8.204  0.2432  0.0734 -0.0427
  454loPI   C5A 7259   7.980   9.232   7.873 -0.2025  0.5461 -0.2033
  454loPI   C6A 7260   8.312   9.050   7.738 -0.2109  0.3067  0.0498
  454loPI   C1B 7261   7.557  10.854   9.252  0.0687  0.0873  0.0462
  454loPI   C2B 7262   7.639  10.771   8.755  0.2927  0.0691  0.3606
  454loPI   C3B 7263   7.618  10.940   8.293  0.0580  0.0756 -0.2064
  454loPI   C4B 7264   7.520  10.805   7.899 -0.2381 -0.0096 -0.0412
  455loPI    C1 7265   1.061  10.020  10.007  0.0180 -0.1513  0.0834
  455loPI    C2 7266   0.931  10.291  10.271 -0.0205 -0.0502 -0.0383
  455loPI    C3 7267   0.760   9.930  10.255 -0.1035 -0.0124 -0.0119
  455loPI   PO4 7268   1.029  10.198   9.763  0.0818  0.2469  0.1122
  455loPI   GL1 7269   0.931   9.938   9.344  0.2602  0.0548 -0.1665
  455loPI   GL2 7270   1.299  10.176   9.243  0.1316  0.2358 -0.2555
  455loPI   C1A 7271   0.857  10.052   8.951 -0.2674 -0.0298  0.1363
  455loPI   C2A 7272   0.625  10.320   8.718 -0.0391 -0.0804 -0.0927
  455loPI   C3A 7273   0.307  10.419   8.385 -0.0972  0.1331 -0.1008
  455loPI   C4A 7274   0.112  10.514   7.942 -0.0661  0.1943  0.2269
  455loPI   C5A 7275   0.308  10.339   7.512  0.1767 -0.0038  0.0827
  455loPI   C6A 7276   0.420  10.455   7.097  0.2820  0.3516 -0.0548
  455loPI   C1B 7277   1.608  10.120   8.927  0.4624 -0.0184 -0.1699
  455loPI   C2B 7278   1.658  10.257   8.591 -0.0810  0.0362  0.0268
  455loPI   C3B 7279   1.960  10.407   8.284  0.3058 -0.1021  0.0964
  455loPI   C4B 7280   2.105  10.505   7.826  0.2111 -0.2028 -0.0420
  456loPI    C1 7281  13.262   5.535   9.946 -0.1176  0.1566  0.0994
  456loPI    C2 7282  13.656   5.531  10.014 -0.1248 -0.1913  0.1364
  456loPI    C3 7283  13.403   5.623  10.310 -0.0769 -0.0598  0.1371
  456loPI   PO4 7284  13.299   5.313   9.650 -0.2046 -0.1628 -0.0141
  456loPI   GL1 7285  13.382   5.398   9.135  0.3750  0.1248 -0.1757
  456loPI   GL2 7286  13.348   5.089   9.227 -0.0183 -0.0590 -0.3435
  456loPI   C1A 7287  13.305   5.421   8.754  0.0586 -0.4747 -0.2157
  456loPI   C2A 7288  13.344   5.240   8.434 -0.0392  0.0809  0.0765
  456loPI   C3A 7289  13.073   5.105   8.202 -0.0286  0.0100 -0.1553
  456loPI   C4A 7290  13.065   5.054   7.859 -0.0542  0.0806 -0.0372
  456loPI   C5A 7291  13.097   5.034   7.454  0.2328 -0.2089  0.0860
  456loPI   C6A 7292  13.394   4.866   7.223  0.0186  0.1558 -0.0244
  456loPI   C1B 7293  13.104   4.979   8.791  0.0622  0.3042 -0.0510
  456loPI   C2B 7294  13.069   4.694   8.504  0.2836  0.0524  0.0267
  456loPI   C3B 7295  13.227   4.541   8.034  0.0355 -0.0580  0.1086
  456loPI   C4B 7296  13.518   4.542   7.607  0.0168  0.1834 -0.0574
  457loPI    C1 7297   0.364  10.225  10.164  0.1179  0.1280 -0.0265
  457loPI    C2 7298   0.123   9.913  10.230 -0.1272  0.3333  0.0641
  457loPI    C3 7299   0.335  10.068  10.531  0.0874  0.1806 -0.0062
  457loPI   PO4 7300   0.550  10.192   9.888  0.3320 -0.3866 -0.0188
  457loPI   GL1 7301   0.670  10.449   9.536  0.2202 -0.3160 -0.0204
  457loPI   GL2 7302   0.924  10.543   9.372 -0.0929 -0.0134 -0.0136
  457loPI   C1A 7303   0.485  10.368   9.186 -0.2099  0.0034 -0.2596
  457loPI   C2A 7304   0.220  10.130   8.940 -0.2134 -0.0736  0.0378
  457loPI   C3A 7305  -0.000  10.020   8.516 -0.1305 -0.3282 -0.3780
  457loPI   C4A 7306  -0.099   9.882   8.204  0.2042 -0.1152  0.0174
  457loPI   C5A 7307  -0.295  10.018   7.803 -0.2806 -0.1295 -0.1703
  457loPI   C6A 7308  -0.228  10.313   7.546  0.2250  0.1514  0.1296
  457loPI   C1B 7309   0.950  10.603   8.962  0.0117  0.0875 -0.1751
  457loPI   C2B 7310   1.059  10.504   8.562 -0.0232  0.0680 -0.2103
  457loPI   C3B 7311   1.043  10.320   8.195  0.1063  0.3862  0.1928
  457loPI   C4B 7312   1.166  10.284   7.816 -0.2198 -0.0108 -0.0028
  458loPI    C1 7313  16.605  15.749   9.502 -0.2700  0.1764 -0.0662
  458loPI    C2 7314  16.446  15.476   9.747  0.1890  0.0594  0.1119
  458loPI    C3 7315  16.562  15.831   9.891  0.1410  0.1231 -0.0048
  458loPI   PO4 7316  16.423  15.830   9.242 -0.0897  0.1509 -0.0309
  458loPI   GL1 7317  16.158  15.706   8.858  0.1008  0.0775  0.4383
  458loPI   GL2 7318  16.435  15.794   8.782  0.0214 -0.0726 -0.4340
  458loPI   C1A 7319  16.046  15.543   8.452  0.0039 -0.0568 -0.0148
  458loPI   C2A 7320  16.232  15.447   8.084 -0.0087 -0.0618  0.0707
  458loPI   C3A 7321  16.509  15.297   7.675  0.3340 -0.0491 -0.0321
  458loPI   C4A 7322  16.555  15.043   7.447 -0.0375 -0.1088 -0.1870
  458loPI   C5A 7323  16.473  15.003   7.074  0.3946 -0.3095 -0.6008
  458loPI   C6A 7324  16.238  15.235   6.826  0.0642 -0.1465 -0.1313
  458loPI   C1B 7325  16.542  15.591   8.442  0.0810  0.3010  0.1921
  458loPI   C2B 7326  16.690  15.591   8.010  0.0492  0.0841  0.2300
  458loPI   C3B 7327  16.902  15.686   7.601  0.1059  0.1605 -0.0271
  458loPI   C4B 7328  17.244  15.614   7.360 -0.0114  0.2201 -0.0061
  459loPI    C1 7329   9.102  12.280  10.208  0.0264 -0.0942 -0.0928
  459loPI    C2 7330   8.836  12.200  10.495  0.0360  0.2003  0.0021
  459loPI    C3 7331   9.095  11.918  10.378 -0.0395  0.0435  0.2044
  459loPI   PO4 7332   8.867  12.502  10.106  0.2176  0.3463 -0.0461
  459loPI   GL1 7333   8.883  12.754   9.800  0.1294 -0.2059  0.0817
  459loPI   GL2 7334   9.207  12.682   9.740 -0.2620  0.0743 -0.1083
  459loPI   C1A 7335   8.971  13.115   9.475 -0.4287  0.0608 -0.0819
  459loPI   C2A 7336   9.034  13.052   9.013 -0.0597 -0.2425  0.2650
  459loPI   C3A 7337   8.929  12.888   8.645  0.1652  0.1626  0.0854
  459loPI   C4A 7338   8.764  12.598   8.317 -0.0925  0.0546 -0.1526
  459loPI   C5A 7339   8.777  12.274   7.963 -0.1678  0.0524  0.0308
  459loPI   C6A 7340   8.759  12.023   7.661  0.0111 -0.2507  0.0180
  459loPI   C1B 7341   9.486  12.665   9.421  0.3012  0.1630  0.0977
  459loPI   C2B 7342   9.450  12.720   8.958  0.2654  0.1534 -0.0279
  459loPI   C3B 7343   9.467  12.653   8.470 -0.1264  0.0999 -0.1431
  459loPI   C4B 7344   9.211  12.682   8.082  0.1287  0.0006 -0.2443
  460loPI    C1 7345  14.653  12.380   9.809 -0.0790  0.3493 -0.2957
  460loPI    C2 7346  14.848  12.480  10.143 -0.0958 -0.1056 -0.1429
  460loPI    C3 7347  14.466  12.589  10.094 -0.0535  0.0773 -0.0760
  460loPI   PO4 7348  14.765  12.380   9.634  0.2278  0.3201  0.4690
  460loPI   GL1 7349  14.737  12.390   9.139 -0.2536  0.0410  0.1807
  460loPI   GL2 7350  15.032  12.292   9.146  0.1980  0.1600 -0.2070
  460loPI   C1A 7351  14.338  12.332   8.941 -0.0009  0.1406  0.1389
  460loPI   C2A 7352  14.357  12.212   8.500  0.0736  0.3538 -0.1329
  460loPI   C3A 7353  14.235  12.045   8.102 -0.3059 -0.3459  0.1711
  460loPI   C4A 7354  14.079  11.947   7.650  0.2116  0.0920 -0.0194
  460loPI   C5A 7355  14.259  12.091   7.222  0.1086 -0.1348  0.0682
  460loPI   C6A 7356  14.437  11.914   6.904 -0.0003  0.2902 -0.3258
  460loPI   C1B 7357  15.343  12.398   8.851  0.0005 -0.1476 -0.2058
  460loPI   C2B 7358  15.651  12.456   8.445 -0.2228  0.2983  0.1737
  460loPI   C3B 7359  15.808  12.653   8.122 -0.0015  0.2017  0.4814
  460loPI   C4B 7360  15.751  12.758   7.688  0.2210 -0.0003  0.1290
  461loPI    C1 7361  12.697  15.971   9.813  0.2392  0.3750  0.0913
  461loPI    C2 7362  13.092  15.915   9.780  0.1692  0.0597 -0.2905
  461loPI    C3 7363  12.864  15.636   9.954  0.1348  0.3363  0.1234
  461loPI   PO4 7364  12.706  16.187   9.647 -0.0557 -0.0645 -0.1086
  461loPI   GL1 7365  12.571  16.127   9.340  0.2688  0.1533  0.1492
  461loPI   GL2 7366  12.607  16.036   9.133 -0.1375 -0.1471  0.2172
  461loPI   C1A 7367  12.258  16.398   8.945  0.0253 -0.1400  0.2683
  461loPI   C2A 7368  12.166  16.627   8.653  0.1572  0.5781 -0.1818
  461loPI   C3A 7369  11.946  16.764   8.223 -0.0636 -0.0095 -0.0402
  461loPI   C4A 7370  11.838  16.806   7.802  0.0242  0.1038  0.0066
  461loPI   C5A 7371  11.775  16.826   7.353  0.1608  0.0769 -0.0752
  461loPI   C6A 7372  11.366  16.811   7.115 -0.0199 -0.5850 -0.2434
  461loPI   C1B 7373  12.449  15.935   8.777 -0.2763  0.1768  0.0002
  461loPI   C2B 7374  12.287  16.122   8.417 -0.0333  0.1269 -0.1736
  461loPI   C3B 7375  12.107  16.328   8.001  0.4715  0.2803 -0.3385
  461loPI   C4B 7376  12.016  16.360   7.594  0.1433 -0.2921 -0.0520
  462loPI    C1 7377   6.683   1.645  10.121  0.0535 -0.0487  0.1660
  462loPI    C2 7378   6.411   1.881  10.294 -0.1099 -0.2140  0.1379
  462loPI    C3 7379   6.769   1.829  10.466 -0.1899 -0.2018  0.3107
  462loPI   PO4 7380   6.649   1.663   9.915 -0.0223  0.1682 -0.1904
  462loPI   GL1 7381   6.554   1.760   9.525  0.0591  0.4172  0.5687
  462loPI   GL2 7382   6.320   2.042   9.333 -0.2100 -0.0535 -0.0351
  462loPI   C1A 7383   6.573   1.504   9.278 -0.0466  0.0632 -0.0799
  462loPI   C2A 7384   6.358   1.266   8.891 -0.1131 -0.0077 -0.1114
  462loPI   C3A 7385   6.082   1.455   8.589 -0.0451 -0.0261  0.2056
  462loPI   C4A 7386   6.102   1.734   8.187 -0.0974 -0.0825  0.1571
  462loPI   C5A 7387   5.890   1.990   7.879 -0.3283 -0.1067 -0.1452
  462loPI   C6A 7388   6.049   2.223   7.542 -0.0955 -0.1735 -0.1676
  462loPI   C1B 7389   6.297   1.772   8.994  0.1117  0.0773  0.0041
  462loPI   C2B 7390   6.115   1.995   8.638 -0.0114 -0.0182  0.2135
  462loPI   C3B 7391   5.892   2.260   8.377  0.0154  0.2471  0.1537
  462loPI   C4B 7392   5.555   2.176   8.233  0.2612  0.2053  0.0220
  463loPI    C1 7393   6.734  19.487  10.189  0.1337 -0.1160 -0.1877
  463loPI    C2 7394   7.089  19.305  10.181  0.1041 -0.1968  0.1705
  463loPI    C3 7395   6.798  19.165  10.417 -0.0422  0.0927  0.1655
  463loPI   PO4 7396   6.632  19.503   9.922 -0.0546  0.0797 -0.1875
  463loPI   GL1 7397   6.379  19.786   9.583  0.1207 -0.0306 -0.0041
  463loPI   GL2 7398   6.178  19.553   9.601  0.1421  0.0293 -0.1248
  463loPI   C1A 7399   6.674  19.852   9.196 -0.0356  0.1977 -0.0264
  463loPI   C2A 7400   6.684  19.614   8.879  0.0493 -0.3075  0.2471
  463loPI   C3A 7401   6.605  19.662   8.477 -0.0398  0.0737 -0.1857
  463loPI   C4A 7402   6.400  19.633   8.036  0.0375  0.3191  0.2572
  463loPI   C5A 7403   6.201  19.578   7.657  0.0058  0.0580  0.1820
  463loPI   C6A 7404   6.472  19.323   7.264 -0.1647 -0.1335  0.3908
  463loPI   C1B 7405   6.297  19.470   9.205 -0.1935 -0.1402  0.1565
  463loPI   C2B 7406   6.299  19.335   8.765 -0.1336  0.4132 -0.0274
  463loPI   C3B 7407   6.253  19.301   8.313 -0.1435 -0.1232  0.2717
  463loPI   C4B 7408   6.020  19.237   7.944 -0.0886 -0.1482 -0.2060
  464loPI    C1 7409   8.813  18.114   9.611 -0.1509  0.2129 -0.0337
  464loPI    C2 7410   8.530  17.993   9.867 -0.0709  0.1462  0.0239
  464loPI    C3 7411   8.806  18.258   9.984 -0.0542  0.1410 -0.0036
  464loPI   PO4 7412   8.688  18.290   9.281  0.1996  0.0345  0.1312
  464loPI   GL1 7413   8.714  18.159   8.973  0.2306 -0.0219 -0.2812
  464loPI   GL2 7414   8.520  17.835   8.922 -0.0411 -0.1262 -0.0250
  464loPI   C1A 7415   8.770  18.054   8.526  0.0675  0.2162 -0.0317
  464loPI   C2A 7416   9.046  17.817   8.315  0.0857  0.2020  0.0501
  464loPI   C3A 7417   8.907  17.373   8.273  0.3308  0.1924  0.0644
  464loPI   C4A 7418   8.678  17.147   8.061  0.0235  0.0827 -0.0291
  464loPI   C5A 7419   8.360  17.049   7.850  0.0470 -0.0085  0.0242
  464loPI   C6A 7420   8.324  16.989   7.351  0.0484  0.1288  0.0144
  464loPI   C1B 7421   8.624  17.617   8.579 -0.0980  0.2110 -0.1023
  464loPI   C2B 7422   8.561  17.785   8.155 -0.4579 -0.3287 -0.0862
  464loPI   C3B 7423   8.539  17.609   7.819  0.2898 -0.1540  0.2234
  464loPI   C4B 7424   8.340  17.483   7.412  0.1035  0.0536  0.3671
  465loPI    C1 7425  17.018   1.508   9.655  0.0735  0.5272 -0.1961
  465loPI    C2 7426  16.878   1.830   9.846 -0.0822  0.1312  0.3850
  465loPI    C3 7427  16.635   1.615   9.611 -0.0897  0.1970  0.3321
  465loPI   PO4 7428  17.175   1.611   9.410 -0.2917  0.3259 -0.1244
  465loPI   GL1 7429  17.302   1.804   9.017  0.1429 -0.0702 -0.1575
  465loPI   GL2 7430  17.345   2.132   9.243  0.0056 -0.1624 -0.1341
  465loPI   C1A 7431  17.414   1.940   8.521  0.1823 -0.1436  0.0581
  465loPI   C2A 7432  17.375   1.937   8.096  0.0221 -0.1188  0.0830
  465loPI   C3A 7433  17.303   1.983   7.751 -0.2468 -0.3641 -0.0722
  465loPI   C4A 7434  17.576   2.110   7.442  0.0411 -0.1081  0.0591
  465loPI   C5A 7435  17.893   2.001   7.146 -0.0199  0.4653 -0.1743
  465loPI   C6A 7436  18.109   1.973   6.802  0.1598 -0.3843  0.2451
  465loPI   C1B 7437  17.194   2.449   8.827 -0.1999 -0.0114 -0.1513
  465loPI   C2B 7438  17.327   2.613   8.522 -0.2837 -0.0237 -0.1278
  465loPI   C3B 7439  17.441   2.399   8.286  0.2301  0.1858 -0.0522
  465loPI   C4B 7440  17.581   2.374   7.889 -0.1699 -0.2064  0.0422
  466loPI    C1 7441  18.115   4.634   9.964  0.0696  0.0489  0.2522
  466loPI    C2 7442  17.880   4.898  10.151 -0.1193 -0.1353  0.2775
  466loPI    C3 7443  17.984   4.558  10.334 -0.0357 -0.1673  0.1719
  466loPI   PO4 7444  17.931   4.580   9.729 -0.0528  0.2199 -0.0714
  466loPI   GL1 7445  17.835   4.844   9.313  0.0964  0.2861 -0.0124
  466loPI   GL2 7446  18.001   4.658   9.223 -0.1560 -0.1729  0.1300
  466loPI   C1A 7447  17.468   4.782   9.188  0.3624 -0.4377 -0.0929
  466loPI   C2A 7448  17.405   4.718   8.702  0.1945 -0.3559  0.0883
  466loPI   C3A 7449  17.161   4.587   8.354 -0.0073 -0.1586  0.0335
  466loPI   C4A 7450  16.763   4.633   8.049 -0.2040 -0.1224 -0.3987
  466loPI   C5A 7451  16.561   4.557   7.589  0.0744 -0.3458  0.0931
  466loPI   C6A 7452  16.228   4.429   7.370  0.4619 -0.2810  0.4555
  466loPI   C1B 7453  17.935   4.774   8.777 -0.0795 -0.0299 -0.1579
  466loPI   C2B 7454  18.066   4.807   8.334  0.0674  0.0947  0.0059
  466loPI   C3B 7455  18.108   5.001   7.916 -0.2724 -0.2766 -0.0864
  466loPI   C4B 7456  18.183   5.336   7.623  0.1420 -0.0168  0.0257
  467loPI    C1 7457   1.579   8.438   9.892  0.0774 -0.1317  0.0679
  467loPI    C2 7458   1.891   8.658  10.013 -0.0920  0.0484  0.1818
  467loPI    C3 7459   1.518   8.774  10.099 -0.1871 -0.2475  0.1820
  467loPI   PO4 7460   1.660   8.406   9.635 -0.0350  0.2225 -0.0661
  467loPI   GL1 7461   1.536   8.518   9.221 -0.3234 -0.0615 -0.0237
  467loPI   GL2 7462   1.683   8.803   9.074  0.2059  0.0258  0.0215
  467loPI   C1A 7463   1.170   8.468   8.995 -0.3950  0.4808  0.2576
  467loPI   C2A 7464   1.121   8.472   8.408 -0.1487  0.0892  0.0440
  467loPI   C3A 7465   0.850   8.415   8.024  0.3972  0.1326 -0.3206
  467loPI   C4A 7466   0.919   8.342   7.565 -0.2395 -0.0943 -0.0602
  467loPI   C5A 7467   0.815   8.183   7.215  0.0381  0.1057 -0.0332
  467loPI   C6A 7468   0.401   8.272   7.033 -0.0955 -0.3059 -0.0225
  467loPI   C1B 7469   1.609   8.686   8.650  0.3246  0.0902  0.2682
  467loPI   C2B 7470   1.637   8.568   8.161  0.2056 -0.1149  0.0541
  467loPI   C3B 7471   1.351   8.519   7.902 -0.0421  0.0636  0.2093
  467loPI   C4B 7472   1.445   8.609   7.439 -0.4969  0.1027  0.1059
  468loPI    C1 7473   0.351   6.334  10.134  0.2842  0.2127 -0.2548
  468loPI    C2 7474   0.651   6.200  10.362  0.1427 -0.0262 -0.2052
  468loPI    C3 7475   0.598   6.593  10.312  0.3600  0.0214 -0.0765
  468loPI   PO4 7476   0.222   6.265   9.991 -0.1815 -0.2522  0.4034
  468loPI   GL1 7477   0.328   6.346   9.664  0.2362  0.1363  0.0950
  468loPI   GL2 7478   0.141   6.478   9.526 -0.0876 -0.2689  0.1226
  468loPI   C1A 7479   0.084   6.067   9.312  0.0915 -0.1130 -0.1659
  468loPI   C2A 7480   0.060   5.934   8.924 -0.1063  0.0259  0.4587
  468loPI   C3A 7481  -0.157   6.012   8.548 -0.1710  0.2137 -0.0608
  468loPI   C4A 7482  -0.226   5.716   8.262  0.3479 -0.1642 -0.2915
  468loPI   C5A 7483   0.047   5.535   7.949  0.0790 -0.2607  0.0977
  468loPI   C6A 7484   0.153   5.166   7.789  0.1556  0.0571 -0.0128
  468loPI   C1B 7485  -0.142   6.440   9.167  0.1843 -0.1232  0.3049
  468loPI   C2B 7486  -0.086   6.652   8.835  0.1768  0.1226  0.0201
  468loPI   C3B 7487  -0.083   6.525   8.362  0.0608 -0.1649 -0.1995
  468loPI   C4B 7488  -0.314   6.257   8.054  0.1356  0.0238 -0.1734
  469loPI    C1 7489   1.350  17.887   9.922  0.0666  0.0167 -0.0167
  469loPI    C2 7490   1.013  18.102   9.926 -0.1330 -0.2899  0.0255
  469loPI    C3 7491   1.201  18.017  10.269 -0.0247 -0.1426  0.0043
  469loPI   PO4 7492   1.301  17.799   9.636  0.0872  0.3592 -0.0520
  469loPI   GL1 7493   1.119  17.903   9.261  0.2584 -0.1064  0.1931
  469loPI   GL2 7494   1.387  18.084   9.187 -0.0453  0.0762 -0.2035
  469loPI   C1A 7495   0.993  17.914   8.897 -0.0084  0.0051 -0.0461
  469loPI   C2A 7496   1.120  17.886   8.543 -0.0790 -0.0052  0.1967
  469loPI   C3A 7497   1.236  17.800   8.122 -0.0425 -0.1032 -0.1553
  469loPI   C4A 7498   1.019  17.940   7.720 -0.2851 -0.1903 -0.0238
  469loPI   C5A 7499   0.836  18.261   7.633  0.1239 -0.0279 -0.2201
  469loPI   C6A 7500   0.737  18.664   7.359 -0.1688  0.3747  0.0524
  469loPI   C1B 7501   1.332  18.216   8.783 -0.2926  0.0155 -0.0160
  469loPI   C2B 7502   1.165  18.557   8.660 -0.0587 -0.2921  0.2901
  469loPI   C3B 7503   1.075  18.956   8.345  0.2762 -0.0134  0.0937
  469loPI   C4B 7504   1.015  19.423   8.155  0.2212  0.2201 -0.2653
  470loPI    C1 7505   6.457  12.663  10.015 -0.1205  0.0189  0.1624
  470loPI    C2 7506   6.275  12.369   9.814 -0.1023  0.1023  0.0226
  470loPI    C3 7507   6.255  12.380  10.213 -0.0196 -0.1443  0.0353
  470loPI   PO4 7508   6.664  12.754   9.870 -0.0592 -0.0016  0.1921
  470loPI   GL1 7509   6.657  12.706   9.366 -0.0588 -0.2380 -0.1561
  470loPI   GL2 7510   6.552  13.012   9.503 -0.1546 -0.0055  0.1469
  470loPI   C1A 7511   6.856  12.383   9.135  0.0141  0.0262  0.0142
  470loPI   C2A 7512   7.085  12.116   8.815 -0.3076 -0.3135 -0.2178
  470loPI   C3A 7513   7.272  11.762   8.606  0.2217  0.3084 -0.3098
  470loPI   C4A 7514   7.470  11.424   8.391  0.1652 -0.0661 -0.1886
  470loPI   C5A 7515   7.474  11.334   8.054 -0.3441 -0.0837 -0.0901
  470loPI   C6A 7516   7.642  11.252   7.536 -0.0589 -0.0001  0.0758
  470loPI   C1B 7517   6.510  12.944   9.008 -0.0413 -0.3606  0.3500
  470loPI   C2B 7518   6.560  12.985   8.495  0.1711 -0.4182 -0.0895
  470loPI   C3B 7519   6.869  13.104   8.298  0.0887  0.0331 -0.1017
  470loPI   C4B 7520   7.122  13.078   7.910 -0.0004  0.0167 -0.3591
  471loPI    C1 7521  12.277  14.000   9.597  0.1096  0.1592  0.0218
  471loPI    C2 7522  12.170  14.348   9.764 -0.2448 -0.1560  0.4758
  471loPI    C3 7523  12.309  14.050   9.992 -0.0095 -0.3417  0.1015
  471loPI   PO4 7524  12.211  13.962   9.330  0.0133  0.3024 -0.0093
  471loPI   GL1 7525  12.481  13.817   9.049 -0.0667 -0.3549  0.0238
  471loPI   GL2 7526  12.190  14.032   8.850  0.0868 -0.5010  0.0036
  471loPI   C1A 7527  12.195  13.514   8.849  0.0867  0.0310  0.0636
  471loPI   C2A 7528  12.275  13.218   8.551  0.0827 -0.1213 -0.0748
  471loPI   C3A 7529  12.523  13.210   8.220 -0.4559 -0.4137  0.0642
  471loPI   C4A 7530  12.544  13.399   7.866 -0.0219  0.0951 -0.1167
  471loPI   C5A 7531  12.602  13.691   7.462 -0.0053 -0.0825 -0.3512
  471loPI   C6A 7532  12.707  13.978   7.142 -0.0005 -0.2222  0.0100
  471loPI   C1B 7533  12.233  13.813   8.441  0.0582  0.3898  0.0843
  471loPI   C2B 7534  12.107  13.515   8.167  0.1844  0.0086  0.0943
  471loPI   C3B 7535  12.039  13.144   7.877  0.2962 -0.1556 -0.0044
  471loPI   C4B 7536  12.066  13.190   7.333  0.1122  0.0797  0.1048
  472loPI    C1 7537   3.036   5.231  10.069  0.3215  0.1988  0.1101
  472loPI    C2 7538   3.002   4.892  10.278 -0.0174  0.0779 -0.1314
  472loPI    C3 7539   2.873   5.237  10.434  0.0432  0.0460 -0.0088
  472loPI   PO4 7540   3.177   5.015   9.711  0.1249  0.0971 -0.1607
  472loPI   GL1 7541   3.328   5.211   9.246  0.0057 -0.2234  0.0021
  472loPI   GL2 7542   3.214   4.982   9.161  0.1462 -0.0513  0.0410
  472loPI   C1A 7543   3.666   4.934   8.964  0.0607 -0.1501 -0.0095
  472loPI   C2A 7544   3.884   4.955   8.523  0.1650 -0.0382 -0.0479
  472loPI   C3A 7545   3.882   4.939   8.116 -0.2101  0.0129  0.0523
  472loPI   C4A 7546   3.768   5.221   7.676  0.3359  0.1727 -0.0587
  472loPI   C5A 7547   3.523   5.028   7.412  0.1868  0.0717  0.1033
  472loPI   C6A 7548   3.113   4.818   7.556  0.0558 -0.0515  0.3299
  472loPI   C1B 7549   3.037   4.921   8.707  0.4195  0.1842 -0.0834
  472loPI   C2B 7550   2.998   5.147   8.402  0.0017  0.1377 -0.0414
  472loPI   C3B 7551   2.620   5.278   8.183 -0.0698 -0.0968  0.0894
  472loPI   C4B 7552   2.540   5.359   7.868 -0.0046 -0.0819  0.2387
  473loPI    C1 7553   1.212  18.672   9.871 -0.0283  0.1398  0.0634
  473loPI    C2 7554   1.500  18.776   9.614  0.0504 -0.0090  0.0904
  473loPI    C3 7555   1.549  18.840  10.006  0.0987 -0.1447  0.1071
  473loPI   PO4 7556   1.043  18.541   9.685 -0.0132 -0.1240 -0.2741
  473loPI   GL1 7557   1.144  18.529   9.291 -0.1338 -0.0024  0.2391
  473loPI   GL2 7558   0.933  18.719   9.177  0.0285 -0.1985  0.5462
  473loPI   C1A 7559   1.509  18.688   9.053  0.0922 -0.1565 -0.3160
  473loPI   C2A 7560   1.587  18.795   8.694 -0.1113 -0.0708  0.1419
  473loPI   C3A 7561   1.512  18.708   8.251 -0.3097 -0.2497 -0.0841
  473loPI   C4A 7562   1.428  18.662   7.777 -0.0094 -0.2481 -0.1110
  473loPI   C5A 7563   1.239  18.770   7.406  0.0714  0.1684  0.2572
  473loPI   C6A 7564   1.066  18.948   7.093  0.1699  0.0404  0.2776
  473loPI   C1B 7565   1.178  19.027   8.824 -0.2149 -0.0418 -0.0296
  473loPI   C2B 7566   1.269  19.382   8.563  0.0275  0.0042  0.4112
  473loPI   C3B 7567   1.171  19.799   8.466  0.3003 -0.2220 -0.2864
  473loPI   C4B 7568   1.285  20.067   8.136  0.2750  0.3201  0.2794
  474loPI    C1 7569   4.112   1.133   9.760  0.0416 -0.1540  0.0092
  474loPI    C2 7570   4.020   1.467   9.960  0.0102 -0.2164  0.0996
  474loPI    C3 7571   4.159   1.148  10.157  0.0747 -0.2447  0.0090
  474loPI   PO4 7572   4.226   1.267   9.557  0.1440 -0.0126  0.1286
  474loPI   GL1 7573   4.310   1.473   9.132 -0.0740 -0.1069 -0.3268
  474loPI   GL2 7574   4.649   1.328   9.218  0.0809 -0.1693  0.0142
  474loPI   C1A 7575   4.603   1.588   8.790 -0.2827  0.2300 -0.0531
  474loPI   C2A 7576   4.693   1.699   8.319 -0.1129  0.2940 -0.1654
  474loPI   C3A 7577   5.023   1.781   8.118  0.0278  0.0690 -0.2876
  474loPI   C4A 7578   5.301   1.800   7.818 -0.1324 -0.0891 -0.3996
  474loPI   C5A 7579   5.514   2.031   7.519  0.0818  0.3183 -0.1624
  474loPI   C6A 7580   5.574   2.381   7.264  0.0372  0.0251 -0.1276
  474loPI   C1B 7581   4.317   1.009   8.966 -0.0434  0.1366 -0.2421
  474loPI   C2B 7582   4.089   0.904   8.678  0.1662  0.0341  0.0189
  474loPI   C3B 7583   3.843   1.025   8.425 -0.3344 -0.1316  0.0197
  474loPI   C4B 7584   3.788   1.389   8.280 -0.3576 -0.1661 -0.0148
  475loPI    C1 7585   6.696   4.139  10.318 -0.0129  0.1578 -0.0580
  475loPI    C2 7586   6.680   4.421  10.602 -0.0762 -0.0194  0.1171
  475loPI    C3 7587   7.000   4.183  10.575  0.0222  0.1332 -0.0953
  475loPI   PO4 7588   6.619   4.217  10.095  0.1920 -0.0481  0.1569
  475loPI   GL1 7589   6.704   4.107   9.675  0.3630  0.1471 -0.3649
  475loPI   GL2 7590   6.821   4.460   9.603  0.1269 -0.2963  0.1811
  475loPI   C1A 7591   6.615   3.862   9.352 -0.2482 -0.1066 -0.2845
  475loPI   C2A 7592   6.457   4.002   8.948 -0.2116 -0.1656  0.2298
  475loPI   C3A 7593   6.504   4.073   8.496  0.1609  0.2454 -0.1434
  475loPI   C4A 7594   6.862   4.018   8.230  0.5355 -0.1184 -0.3499
  475loPI   C5A 7595   6.909   3.952   7.854 -0.0565 -0.0636  0.0193
  475loPI   C6A 7596   6.922   4.148   7.524 -0.2177 -0.0704 -0.3468
  475loPI   C1B 7597   6.950   4.243   9.243  0.2492  0.1063  0.2082
  475loPI   C2B 7598   6.955   4.002   8.848 -0.1219 -0.0277  0.0407
  475loPI   C3B 7599   7.073   3.677   8.522  0.0367  0.1354  0.0536
  475loPI   C4B 7600   6.884   3.512   8.110 -0.0821  0.0059 -0.0343
  476loPI    C1 7601   7.750  14.540  10.133  0.1368  0.0637 -0.0106
  476loPI    C2 7602   7.651  14.180  10.276 -0.1543  0.1380 -0.0180
  476loPI    C3 7603   7.826  14.449  10.515 -0.1050  0.0567  0.0377
  476loPI   PO4 7604   7.901  14.487   9.934 -0.6190  0.0738  0.0018
  476loPI   GL1 7605   7.769  14.311   9.493  0.1102 -0.0007  0.2201
  476loPI   GL2 7606   8.055  14.151   9.579 -0.1943  0.0124 -0.0464
  476loPI   C1A 7607   7.624  14.447   9.074  0.3672 -0.0239 -0.1649
  476loPI   C2A 7608   7.700  14.553   8.675 -0.0672  0.0355  0.1364
  476loPI   C3A 7609   7.615  14.820   8.326 -0.0042 -0.1196 -0.1576
  476loPI   C4A 7610   7.551  15.086   7.868 -0.0426  0.2017  0.1494
  476loPI   C5A 7611   7.846  15.146   7.520 -0.0569 -0.0261 -0.2158
  476loPI   C6A 7612   8.341  15.158   7.605  0.2987 -0.1453 -0.1829
  476loPI   C1B 7613   8.097  14.076   9.147 -0.1921 -0.1248 -0.2711
  476loPI   C2B 7614   7.896  14.123   8.604 -0.3256 -0.0150  0.0369
  476loPI   C3B 7615   7.906  14.344   8.241 -0.1525  0.1732  0.1895
  476loPI   C4B 7616   8.136  14.263   7.937  0.1782 -0.0156 -0.2114
  477loPI    C1 7617   8.299   3.363   9.888  0.2423  0.2789  0.1755
  477loPI    C2 7618   8.463   3.022  10.017  0.0731  0.1710  0.1086
  477loPI    C3 7619   8.265   3.257  10.273 -0.1652  0.0130  0.0726
  477loPI   PO4 7620   8.419   3.442   9.743 -0.2719 -0.0470 -0.0123
  477loPI   GL1 7621   8.766   3.449   9.437  0.0940 -0.2582 -0.0740
  477loPI   GL2 7622   8.609   3.664   9.265 -0.0024 -0.1164  0.3142
  477loPI   C1A 7623   8.891   3.326   8.986  0.0089 -0.2114 -0.0616
  477loPI   C2A 7624   8.817   3.456   8.653 -0.1192  0.5028 -0.0131
  477loPI   C3A 7625   9.083   3.582   8.230  0.0457 -0.0923  0.2295
  477loPI   C4A 7626   8.917   3.883   8.000  0.0293  0.1202 -0.1492
  477loPI   C5A 7627   8.843   4.057   7.658  0.1064 -0.0667  0.3723
  477loPI   C6A 7628   8.927   4.366   7.330  0.1458 -0.2724  0.1749
  477loPI   C1B 7629   8.423   3.763   8.869 -0.1587  0.0871 -0.0380
  477loPI   C2B 7630   8.217   3.637   8.427  0.4291 -0.0470 -0.0775
  477loPI   C3B 7631   7.984   3.849   7.996 -0.2792  0.2244  0.1184
  477loPI   C4B 7632   7.799   3.599   7.677 -0.3091  0.0601  0.2331
  478loPI    C1 7633  18.296   8.435  10.075  0.1728  0.0881  0.2103
  478loPI    C2 7634  18.666   8.358   9.942  0.0421 -0.1695 -0.0158
  478loPI    C3 7635  18.526   8.168  10.265  0.0619 -0.1658 -0.0050
  478loPI   PO4 7636  18.145   8.456   9.884 -0.4119 -0.1872  0.0176
  478loPI   GL1 7637  18.288   8.393   9.503  0.1425 -0.1040 -0.1135
  478loPI   GL2 7638  18.269   8.599   9.293  0.2298  0.1015 -0.1141
  478loPI   C1A 7639  18.108   8.102   9.245  0.2248  0.2529  0.5359
  478loPI   C2A 7640  18.190   8.069   8.729  0.2232 -0.1075  0.2060
  478loPI   C3A 7641  18.069   8.252   8.366 -0.2410  0.1571 -0.1375
  478loPI   C4A 7642  18.048   8.149   8.013 -0.0164 -0.0597  0.0115
  478loPI   C5A 7643  17.929   8.093   7.503  0.3135  0.2583 -0.1682
  478loPI   C6A 7644  17.670   8.057   7.169  0.0321 -0.0328  0.2245
  478loPI   C1B 7645  18.111   8.552   8.835 -0.1118  0.4097 -0.1795
  478loPI   C2B 7646  18.048   8.728   8.460 -0.2284  0.3270  0.0518
  478loPI   C3B 7647  18.006   8.762   8.093  0.1988  0.1029 -0.5956
  478loPI   C4B 7648  18.082   8.726   7.730  0.1623  0.2190  0.1508
  479loPI    C1 7649   5.850   4.225   9.557  0.0776 -0.2083 -0.2445
  479loPI    C2 7650   6.186   4.079   9.718  0.1034 -0.0122 -0.1173
  479loPI    C3 7651   5.831   3.980   9.872  0.1225  0.0827 -0.0110
  479loPI   PO4 7652   5.893   4.492   9.562  0.0987 -0.0589  0.2540
  479loPI   GL1 7653   6.204   4.603   9.354 -0.0722 -0.0414 -0.0627
  479loPI   GL2 7654   6.350   4.322   9.311 -0.3069  0.2075  0.2147
  479loPI   C1A 7655   6.284   4.995   9.151  0.1866 -0.1518  0.1023
  479loPI   C2A 7656   6.533   4.965   8.718 -0.3866  0.1003  0.0169
  479loPI   C3A 7657   6.572   5.027   8.167  0.1295  0.0026 -0.0149
  479loPI   C4A 7658   6.487   5.157   7.809  0.2365 -0.0422  0.3001
  479loPI   C5A 7659   6.444   4.994   7.448 -0.0106 -0.0717  0.2470
  479loPI   C6A 7660   6.606   4.896   7.114 -0.2520 -0.1087 -0.1975
  479loPI   C1B 7661   6.611   4.552   9.029 -0.2556 -0.1449 -0.1773
  479loPI   C2B 7662   6.778   4.508   8.507 -0.2845  0.0406 -0.2113
  479loPI   C3B 7663   6.681   4.504   8.027 -0.0852  0.2430 -0.3337
  479loPI   C4B 7664   6.871   4.822   7.740  0.0267  0.1957  0.0068
  480loPI    C1 7665  13.102  13.754   9.563 -0.4079  0.1194  0.1597
  480loPI    C2 7666  13.320  13.718   9.896 -0.2765  0.0729  0.0698
  480loPI    C3 7667  13.247  13.397   9.669 -0.1900  0.1412 -0.0557
  480loPI   PO4 7668  13.254  13.957   9.430 -0.0800 -0.2377  0.1598
  480loPI   GL1 7669  13.441  14.140   8.993 -0.0174 -0.3820 -0.0749
  480loPI   GL2 7670  13.676  13.849   9.085  0.2288  0.1137  0.4215
  480loPI   C1A 7671  13.368  13.980   8.631 -0.1365 -0.4165  0.0611
  480loPI   C2A 7672  13.390  13.988   8.111  0.0820  0.2970  0.1698
  480loPI   C3A 7673  13.286  14.133   7.730 -0.1402 -0.1146 -0.1369
  480loPI   C4A 7674  13.017  14.181   7.590 -0.1924  0.0224 -0.0182
  480loPI   C5A 7675  12.778  14.493   7.495  0.1322  0.2221 -0.1769
  480loPI   C6A 7676  12.450  14.694   7.400 -0.0016  0.2028  0.2440
  480loPI   C1B 7677  13.979  13.926   8.907 -0.1586 -0.2261 -0.0309
  480loPI   C2B 7678  14.271  13.996   8.622  0.0883  0.1262 -0.2635
  480loPI   C3B 7679  14.253  14.475   8.401 -0.0345 -0.0307  0.1924
  480loPI   C4B 7680  14.460  14.732   8.098 -0.0639  0.1403  0.0390
  481loPI    C1 7681  16.991   4.591  10.274 -0.1109 -0.0027 -0.0200
  481loPI    C2 7682  16.995   4.965  10.417 -0.1951  0.0065 -0.0412
  481loPI    C3 7683  16.714   4.707  10.539 -0.1390 -0.0491 -0.0289
  481loPI   PO4 7684  16.999   4.588   9.943 -0.2406 -0.3022  0.0313
  481loPI   GL1 7685  17.116   4.586   9.534  0.0656  0.0563 -0.2816
  481loPI   GL2 7686  16.913   4.869   9.526  0.0435  0.3228  0.0611
  481loPI   C1A 7687  16.905   4.538   9.135  0.1817 -0.2436  0.1315
  481loPI   C2A 7688  16.691   4.701   8.845 -0.0675  0.0853  0.0130
  481loPI   C3A 7689  16.445   4.474   8.514  0.0168  0.2799  0.1793
  481loPI   C4A 7690  16.299   4.250   8.254  0.0739  0.0492 -0.0281
  481loPI   C5A 7691  16.202   4.185   7.888  0.0622 -0.2303  0.0484
  481loPI   C6A 7692  16.252   3.779   7.757 -0.0224  0.2886 -0.2060
  481loPI   C1B 7693  17.011   5.015   9.144 -0.0898  0.0006 -0.0426
  481loPI   C2B 7694  17.066   5.068   8.760  0.0534 -0.0085  0.2268
  481loPI   C3B 7695  17.173   5.141   8.364 -0.0543 -0.1426  0.0102
  481loPI   C4B 7696  17.176   4.954   7.976 -0.0716  0.1951  0.0394
  482loPI    C1 7697   0.805   9.654   9.715  0.1298 -0.1618  0.0144
  482loPI    C2 7698   0.704   9.422  10.026  0.0487  0.1469  0.2229
  482loPI    C3 7699   0.459   9.715   9.906 -0.0178 -0.0993 -0.2681
  482loPI   PO4 7700   1.108   9.497   9.698  0.1251  0.1623  0.1676
  482loPI   GL1 7701   1.435   9.685   9.456 -0.2574  0.1075  0.0620
  482loPI   GL2 7702   1.849   9.725   9.581  0.0275 -0.1984 -0.0382
  482loPI   C1A 7703   1.340   9.729   8.994 -0.2808 -0.1314  0.0146
  482loPI   C2A 7704   1.268   9.979   8.605  0.0485  0.0502 -0.0691
  482loPI   C3A 7705   1.446  10.020   8.155 -0.3807 -0.3646  0.0412
  482loPI   C4A 7706   1.600   9.972   7.663 -0.0026 -0.1565  0.0502
  482loPI   C5A 7707   1.694   9.670   7.393  0.0603  0.1570 -0.2604
  482loPI   C6A 7708   1.939   9.318   7.551 -0.2155  0.0122  0.0511
  482loPI   C1B 7709   1.966   9.746   9.142 -0.1430 -0.0706  0.0008
  482loPI   C2B 7710   2.150   9.669   8.801  0.0161  0.4903 -0.2414
  482loPI   C3B 7711   2.141   9.419   8.403  0.1319 -0.0377 -0.3705
  482loPI   C4B 7712   1.980   9.493   8.000  0.0459 -0.1024 -0.1150
  483loPI    C1 7713   5.298  14.644  10.324 -0.2479 -0.0227  0.2204
  483loPI    C2 7714   5.607  14.395  10.373 -0.0835  0.1189 -0.0689
  483loPI    C3 7715   5.629  14.770  10.510 -0.1491  0.1134 -0.0427
  483loPI   PO4 7716   5.204  14.677  10.009  0.0206  0.1007 -0.0830
  483loPI   GL1 7717   5.244  14.506   9.749  0.0502 -0.1316 -0.0890
  483loPI   GL2 7718   4.906  14.457   9.572 -0.0975  0.0370 -0.1866
  483loPI   C1A 7719   5.324  14.528   9.300  0.2524  0.1905 -0.1631
  483loPI   C2A 7720   5.292  14.458   8.907 -0.1441 -0.2103 -0.1551
  483loPI   C3A 7721   5.516  14.495   8.634  0.0315 -0.1852 -0.2434
  483loPI   C4A 7722   5.582  14.656   8.167  0.1258 -0.4286  0.1790
  483loPI   C5A 7723   5.347  14.608   7.787  0.0146 -0.0099  0.2896
  483loPI   C6A 7724   5.580  14.357   7.434  0.0311  0.0518 -0.1863
  483loPI   C1B 7725   4.861  14.668   9.193  0.3457 -0.2777 -0.2276
  483loPI   C2B 7726   5.142  14.971   9.052 -0.1435  0.3122  0.2253
  483loPI   C3B 7727   5.024  15.272   8.711 -0.1864 -0.3299 -0.0372
  483loPI   C4B 7728   5.092  15.398   8.364 -0.0868  0.3000 -0.1065
  484loPI    C1 7729   2.289   6.735   9.921  0.1141 -0.0564  0.1448
  484loPI    C2 7730   1.898   6.785   9.990  0.1106 -0.1512  0.1946
  484loPI    C3 7731   2.095   6.483  10.163  0.1674 -0.2117  0.0272
  484loPI   PO4 7732   2.316   6.731   9.725 -0.2766  0.0839 -0.0871
  484loPI   GL1 7733   2.385   6.521   9.411 -0.0373  0.0722 -0.1238
  484loPI   GL2 7734   2.543   6.312   9.266 -0.3889 -0.1381 -0.2492
  484loPI   C1A 7735   2.200   6.875   9.051 -0.3916 -0.1138 -0.1982
  484loPI   C2A 7736   2.241   7.150   8.750  0.0149 -0.0529 -0.3143
  484loPI   C3A 7737   2.482   7.133   8.368 -0.2469 -0.0538  0.2898
  484loPI   C4A 7738   2.584   7.245   7.986  0.0552  0.2898 -0.0302
  484loPI   C5A 7739   2.704   7.125   7.509 -0.1723 -0.1277  0.0439
  484loPI   C6A 7740   2.769   7.524   7.243 -0.1728 -0.1048  0.1595
  484loPI   C1B 7741   2.397   6.291   8.808 -0.3260 -0.2521 -0.0113
  484loPI   C2B 7742   2.383   6.057   8.443 -0.4599 -0.4024  0.0837
  484loPI   C3B 7743   2.559   5.932   8.057  0.1150  0.1426  0.1968
  484loPI   C4B 7744   2.721   5.873   7.719  0.0625 -0.3386 -0.2264
  485loPI    C1 7745  15.790   1.642   9.554  0.0149 -0.1121 -0.0015
  485loPI    C2 7746  16.153   1.652   9.721 -0.0002 -0.0136  0.0260
  485loPI    C3 7747  15.829   1.611   9.951  0.0014 -0.2402 -0.0097
  485loPI   PO4 7748  15.777   1.458   9.403 -0.1298 -0.1502  0.0742
  485loPI   GL1 7749  15.954   1.355   8.981  0.0006  0.2455 -0.1857
  485loPI   GL2 7750  16.225   1.158   8.857 -0.0603  0.0356 -0.1489
  485loPI   C1A 7751  15.949   1.762   8.776  0.0076 -0.0810 -0.1008
  485loPI   C2A 7752  16.025   1.765   8.347  0.3183 -0.0713  0.1923
  485loPI   C3A 7753  16.024   1.773   7.807  0.1759 -0.0162 -0.2299
  485loPI   C4A 7754  16.160   1.610   7.457 -0.1223 -0.0445 -0.2355
  485loPI   C5A 7755  16.096   1.297   7.214 -0.1337  0.1492  0.2436
  485loPI   C6A 7756  16.314   0.995   6.904 -0.1595 -0.0275 -0.1244
  485loPI   C1B 7757  16.376   1.482   8.657  0.1521  0.0972 -0.2145
  485loPI   C2B 7758  16.627   1.539   8.321  0.0750 -0.4101  0.2776
  485loPI   C3B 7759  16.893   1.838   8.207 -0.0693  0.0633 -0.0389
  485loPI   C4B 7760  16.961   2.216   8.006  0.0495 -0.2486 -0.1316
  486loPI    C1 7761  18.641   5.129   9.840 -0.2016 -0.2159 -0.0087
  486loPI    C2 7762  18.354   5.133  10.118 -0.1149  0.1742  0.0801
  486loPI    C3 7763  18.736   5.185  10.225 -0.0392 -0.0634 -0.0696
  486loPI   PO4 7764  18.490   4.908   9.623  0.0143  0.0825  0.0343
  486loPI   GL1 7765  18.479   4.878   9.323 -0.1324 -0.1477 -0.2135
  486loPI   GL2 7766  18.812   4.824   9.253 -0.1147 -0.3650  0.0861
  486loPI   C1A 7767  18.407   4.789   8.868 -0.0329 -0.0418 -0.0356
  486loPI   C2A 7768  18.551   4.847   8.525  0.1595  0.2927 -0.2319
  486loPI   C3A 7769  18.540   4.801   8.069  0.0701  0.0151 -0.3994
  486loPI   C4A 7770  18.610   4.446   7.826 -0.0142  0.1157  0.0596
  486loPI   C5A 7771  18.857   4.390   7.385 -0.0830 -0.0749 -0.1702
  486loPI   C6A 7772  19.079   4.418   7.018 -0.0888  0.2971  0.0694
  486loPI   C1B 7773  18.794   5.180   8.856 -0.0299 -0.1963 -0.4670
  486loPI   C2B 7774  18.920   5.209   8.446 -0.0973 -0.1027 -0.0345
  486loPI   C3B 7775  19.124   5.334   8.013  0.3031 -0.1446  0.1397
  486loPI   C4B 7776  19.256   5.241   7.591 -0.1165 -0.2456 -0.1191
  487loPI    C1 7777   1.767   2.767   9.676 -0.1589 -0.0291  0.1044
  487loPI    C2 7778   1.567   2.620   9.990 -0.1863  0.0170  0.1087
  487loPI    C3 7779   1.733   2.983  10.011  0.1886 -0.1561  0.2263
  487loPI   PO4 7780   1.615   2.727   9.428 -0.2499  0.2520  0.1125
  487loPI   GL1 7781   1.760   2.619   8.977  0.0858 -0.2835  0.0581
  487loPI   GL2 7782   1.964   2.424   8.962  0.2197  0.0488 -0.0821
  487loPI   C1A 7783   1.890   2.817   8.633 -0.0589 -0.0569 -0.1122
  487loPI   C2A 7784   2.082   3.175   8.525 -0.0798  0.3467 -0.3030
  487loPI   C3A 7785   2.098   3.300   8.068 -0.2279  0.0933  0.0089
  487loPI   C4A 7786   2.119   3.121   7.724  0.0321 -0.1414 -0.0582
  487loPI   C5A 7787   1.993   3.241   7.264 -0.2495  0.0675 -0.1380
  487loPI   C6A 7788   1.721   3.411   6.989  0.0789 -0.5001  0.1146
  487loPI   C1B 7789   1.954   2.335   8.511  0.1352  0.0452  0.0108
  487loPI   C2B 7790   1.979   2.593   8.060 -0.0377  0.0609 -0.4093
  487loPI   C3B 7791   1.797   2.639   7.721 -0.3013 -0.1634 -0.0909
  487loPI   C4B 7792   1.852   2.722   7.364 -0.1596  0.0370 -0.0336
  488loPI    C1 7793   8.848  14.822   9.996 -0.0846 -0.2609  0.0072
  488loPI    C2 7794   8.671  14.957  10.328  0.0560 -0.1075  0.0210
  488loPI    C3 7795   9.034  15.092  10.225  0.0156 -0.1574 -0.1925
  488loPI   PO4 7796   8.686  14.807   9.824 -0.3384 -0.2064  0.3616
  488loPI   GL1 7797   8.866  14.774   9.423 -0.2708  0.1718 -0.1550
  488loPI   GL2 7798   8.929  15.079   9.431 -0.0954 -0.1728 -0.0161
  488loPI   C1A 7799   8.596  14.848   9.103  0.0157 -0.0251  0.1195
  488loPI   C2A 7800   8.661  14.710   8.767  0.0776  0.1149  0.0809
  488loPI   C3A 7801   8.675  14.713   8.358 -0.1450 -0.1407 -0.2268
  488loPI   C4A 7802   8.611  14.590   7.932 -0.3237  0.1520  0.0838
  488loPI   C5A 7803   8.539  14.684   7.520 -0.2545  0.1825  0.2641
  488loPI   C6A 7804   8.082  14.766   7.214  0.1021  0.2139  0.0634
  488loPI   C1B 7805   9.009  15.176   8.947  0.0898 -0.0144 -0.1156
  488loPI   C2B 7806   8.756  15.198   8.616 -0.0566  0.1907  0.1470
  488loPI   C3B 7807   8.485  15.130   8.210  0.2507 -0.1032  0.0639
  488loPI   C4B 7808   8.136  14.964   8.050 -0.0697  0.2844 -0.1026
  489loPI    C1 7809   2.863  13.015  10.131  0.0247 -0.0415 -0.1027
  489loPI    C2 7810   2.624  13.098  10.441 -0.0122  0.0983 -0.1675
  489loPI    C3 7811   2.916  12.826  10.479 -0.0858  0.0360 -0.0433
  489loPI   PO4 7812   2.934  13.266   9.970 -0.1624 -0.0788 -0.1145
  489loPI   GL1 7813   3.280  13.285   9.748  0.2130 -0.0803 -0.2108
  489loPI   GL2 7814   3.139  13.643   9.661  0.3781  0.4187  0.1950
  489loPI   C1A 7815   3.267  13.243   9.380 -0.0691 -0.0490 -0.1048
  489loPI   C2A 7816   3.495  13.300   9.002 -0.3288  0.2167  0.0996
  489loPI   C3A 7817   3.608  13.308   8.544  0.0073  0.0139  0.1754
  489loPI   C4A 7818   3.786  13.334   8.097 -0.0346  0.0380  0.0637
  489loPI   C5A 7819   3.914  13.343   7.643 -0.1474 -0.2971 -0.3243
  489loPI   C6A 7820   4.229  13.597   7.468 -0.2447 -0.0668  0.1667
  489loPI   C1B 7821   3.145  13.690   9.210  0.1868  0.0003 -0.2290
  489loPI   C2B 7822   3.221  13.734   8.845  0.0022 -0.1586  0.2177
  489loPI   C3B 7823   3.373  13.789   8.561  0.0721 -0.1949 -0.0286
  489loPI   C4B 7824   3.569  13.791   8.209 -0.0439  0.0691 -0.0528
  490loPI    C1 7825   1.947  13.187   9.985  0.3694 -0.1412 -0.1678
  490loPI    C2 7826   2.112  13.234  10.347  0.0377 -0.1573 -0.0102
  490loPI    C3 7827   1.894  12.908  10.267  0.0574 -0.1241 -0.2060
  490loPI   PO4 7828   2.151  13.173   9.705  0.0928  0.2529  0.3197
  490loPI   GL1 7829   2.396  13.060   9.478  0.0569 -0.2443 -0.0931
  490loPI   GL2 7830   2.666  13.317   9.544  0.1074  0.3796 -0.1089
  490loPI   C1A 7831   2.330  13.291   9.068 -0.0138 -0.1313 -0.1918
  490loPI   C2A 7832   2.239  13.102   8.702  0.2852  0.1125  0.0562
  490loPI   C3A 7833   2.221  13.055   8.239  0.0449 -0.1387 -0.3457
  490loPI   C4A 7834   1.963  12.602   8.113  0.3325  0.1678 -0.0496
  490loPI   C5A 7835   1.493  12.531   8.119 -0.1531  0.0083  0.0154
  490loPI   C6A 7836   1.142  12.519   8.333  0.3410  0.0665  0.3256
  490loPI   C1B 7837   2.805  13.194   9.207  0.0059  0.0403 -0.0612
  490loPI   C2B 7838   3.017  13.296   8.872  0.0678  0.1042  0.0938
  490loPI   C3B 7839   3.124  13.356   8.462 -0.0047  0.0299  0.0479
  490loPI   C4B 7840   3.284  13.344   7.965 -0.1295  0.0572  0.1258
  491loPI    C1 7841   7.941  11.624  10.056  0.0161  0.0289 -0.1063
  491loPI    C2 7842   8.126  11.359  10.291 -0.0633 -0.0188 -0.0970
  491loPI    C3 7843   7.805  11.555  10.426  0.0000  0.0887 -0.1009
  491loPI   PO4 7844   7.941  11.468   9.862  0.0184 -0.1513 -0.0429
  491loPI   GL1 7845   7.907  11.537   9.461  0.0447 -0.0266 -0.0499
  491loPI   GL2 7846   7.741  11.397   9.392 -0.0068  0.1725  0.1696
  491loPI   C1A 7847   8.079  11.841   9.167  0.3039  0.2377  0.1636
  491loPI   C2A 7848   8.120  12.165   8.791  0.1004 -0.0175  0.2495
  491loPI   C3A 7849   7.994  12.092   8.375 -0.0373  0.0484 -0.1041
  491loPI   C4A 7850   7.891  12.229   8.045  0.0765  0.0289 -0.0642
  491loPI   C5A 7851   7.669  12.519   7.844 -0.0533  0.0022  0.2466
  491loPI   C6A 7852   7.724  12.889   7.528 -0.0834 -0.1094  0.0169
  491loPI   C1B 7853   7.999  11.326   9.000 -0.2080 -0.0301  0.2205
  491loPI   C2B 7854   7.963  11.209   8.608  0.4534  0.0723 -0.5495
  491loPI   C3B 7855   8.119  11.060   8.247 -0.3397 -0.0594  0.4348
  491loPI   C4B 7856   7.995  11.025   7.942 -0.2591 -0.0597 -0.3972
  492loPI    C1 7857  14.146  12.885   9.758  0.2139  0.0848 -0.0043
  492loPI    C2 7858  13.981  12.757  10.099  0.0401  0.0796 -0.0894
  492loPI    C3 7859  14.114  13.133  10.071  0.1178  0.0597  0.0061
  492loPI   PO4 7860  13.978  12.810   9.611  0.3248  0.0330 -0.0694
  492loPI   GL1 7861  14.012  12.903   9.185 -0.2890  0.2489  0.0362
  492loPI   GL2 7862  13.924  13.106   9.124  0.3243  0.1500  0.0621
  492loPI   C1A 7863  14.013  12.939   8.683  0.2108 -0.0309 -0.0483
  492loPI   C2A 7864  14.112  12.782   8.308 -0.0365  0.0958  0.0839
  492loPI   C3A 7865  14.315  12.515   8.046  0.1503 -0.0172 -0.1541
  492loPI   C4A 7866  14.266  12.511   7.596  0.1442  0.3199  0.0492
  492loPI   C5A 7867  13.986  12.498   7.267 -0.4208 -0.1214  0.1495
  492loPI   C6A 7868  13.725  12.780   7.022 -0.1965  0.1815  0.1033
  492loPI   C1B 7869  13.789  13.409   8.924 -0.0227  0.0872 -0.2291
  492loPI   C2B 7870  13.810  13.698   8.509  0.0025 -0.1028 -0.2513
  492loPI   C3B 7871  13.876  14.140   8.209  0.0827 -0.1007 -0.3054
  492loPI   C4B 7872  14.067  14.420   7.952  0.0327 -0.5054  0.1333
  493loPI    C1 7873   8.262  11.906  10.271  0.0283 -0.2854 -0.0319
  493loPI    C2 7874   7.975  11.999  10.534 -0.0558 -0.0720 -0.1971
  493loPI    C3 7875   8.359  12.002  10.647 -0.1092 -0.2397 -0.0077
  493loPI   PO4 7876   8.181  12.077  10.032  0.1419 -0.4787 -0.0477
  493loPI   GL1 7877   8.111  12.025   9.622  0.1840 -0.1031 -0.0420
  493loPI   GL2 7878   7.823  12.153   9.467 -0.0108 -0.0568 -0.0679
  493loPI   C1A 7879   8.309  12.370   9.259 -0.1763  0.0564  0.3445
  493loPI   C2A 7880   8.399  12.702   8.934  0.3930  0.0884 -0.0760
  493loPI   C3A 7881   8.442  12.999   8.503  0.4094 -0.1002 -0.1020
  493loPI   C4A 7882   8.346  13.072   8.139 -0.1482  0.2300  0.0413
  493loPI   C5A 7883   8.254  13.334   7.761 -0.3489  0.0332  0.1291
  493loPI   C6A 7884   7.952  13.347   7.508 -0.0394 -0.0718 -0.3212
  493loPI   C1B 7885   7.812  12.427   9.118 -0.0748  0.1247 -0.0937
  493loPI   C2B 7886   7.837  12.683   8.791  0.0145  0.3561  0.1123
  493loPI   C3B 7887   8.159  12.547   8.465 -0.0825 -0.0263 -0.0438
  493loPI   C4B 7888   8.306  12.549   8.007 -0.0872  0.2303 -0.0602
  494loPI    C1 7889  11.371   4.400   9.792  0.0022  0.1450  0.1931
  494loPI    C2 7890  11.737   4.558   9.750 -0.0334  0.1820  0.0184
  494loPI    C3 7891  11.636   4.375  10.091  0.1143  0.2598  0.1043
  494loPI   PO4 7892  11.366   4.238   9.574 -0.1460  0.1248 -0.1419
  494loPI   GL1 7893  11.290   4.281   9.268 -0.2003 -0.3357 -0.0687
  494loPI   GL2 7894  11.063   4.481   9.097  0.0629 -0.2382 -0.0383
  494loPI   C1A 7895  11.425   4.715   8.920  0.0450 -0.3336  0.0371
  494loPI   C2A 7896  11.583   4.839   8.520  0.2318 -0.1794  0.0626
  494loPI   C3A 7897  11.752   4.638   8.213  0.1002  0.0234 -0.3325
  494loPI   C4A 7898  11.699   4.378   7.925 -0.1842  0.0196 -0.0695
  494loPI   C5A 7899  11.428   4.229   7.665 -0.0797  0.1418 -0.1779
  494loPI   C6A 7900  11.055   3.975   7.576  0.1517  0.2136  0.0999
  494loPI   C1B 7901  11.074   4.604   8.607 -0.0439  0.1139  0.3817
  494loPI   C2B 7902  11.164   4.803   8.284  0.0373 -0.0535  0.3935
  494loPI   C3B 7903  11.388   5.032   8.062 -0.0724  0.2479  0.0653
  494loPI   C4B 7904  11.796   5.348   7.806 -0.1754  0.0571  0.3515
  495loPI    C1 7905   2.363   7.314   9.957 -0.2255 -0.2374 -0.2112
  495loPI    C2 7906   2.255   7.057  10.244 -0.1239 -0.0924 -0.0417
  495loPI    C3 7907   2.330   7.439  10.335 -0.0238 -0.0609 -0.2507
  495loPI   PO4 7908   2.501   7.198   9.746  0.1659 -0.0013 -0.0348
  495loPI   GL1 7909   2.430   7.144   9.403 -0.2044  0.1346 -0.2436
  495loPI   GL2 7910   2.225   7.406   9.162  0.0167  0.0500  0.1042
  495loPI   C1A 7911   2.759   7.275   9.043  0.0738 -0.2946  0.2497
  495loPI   C2A 7912   2.907   7.283   8.654  0.3443 -0.2451 -0.0726
  495loPI   C3A 7913   2.976   7.231   8.236  0.0341  0.1299 -0.3247
  495loPI   C4A 7914   3.039   7.351   7.803 -0.1103 -0.0436  0.0535
  495loPI   C5A 7915   3.262   7.280   7.483  0.1907 -0.1032 -0.1053
  495loPI   C6A 7916   3.616   7.163   7.262  0.1271 -0.0886 -0.1687
  495loPI   C1B 7917   2.493   7.579   8.748 -0.0110 -0.0154  0.0479
  495loPI   C2B 7918   2.627   7.704   8.411 -0.0053 -0.0988  0.0795
  495loPI   C3B 7919   2.723   7.699   8.012  0.2835 -0.2540  0.2910
  495loPI   C4B 7920   2.965   7.816   7.683  0.0754 -0.2573  0.0205
  496loPI    C1 7921  12.550   8.831   9.726 -0.1080 -0.1382  0.1485
  496loPI    C2 7922  12.775   8.576   9.515 -0.0212  0.1509 -0.1166
  496loPI    C3 7923  12.942   8.800   9.801 -0.0286  0.1609 -0.1201
  496loPI   PO4 7924  12.460   8.928   9.617  0.2158 -0.2341  0.0845
  496loPI   GL1 7925  12.467   9.016   9.237  0.2584 -0.1699  0.1715
  496loPI   GL2 7926  12.831   8.999   9.266 -0.0349  0.0401  0.4325
  496loPI   C1A 7927  12.159   8.924   8.952  0.1594  0.0297  0.0995
  496loPI   C2A 7928  11.922   9.169   8.643 -0.2363  0.2297  0.1032
  496loPI   C3A 7929  11.681   9.276   8.317  0.1879 -0.1752 -0.1805
  496loPI   C4A 7930  11.714   9.456   7.979 -0.0327 -0.0248 -0.3047
  496loPI   C5A 7931  11.806   9.571   7.546  0.1460 -0.1790  0.0342
  496loPI   C6A 7932  11.983   9.687   7.210  0.1270 -0.3043  0.1554
  496loPI   C1B 7933  13.027   9.024   8.822 -0.1661  0.2672  0.3247
  496loPI   C2B 7934  12.895   8.809   8.502 -0.0783  0.1287  0.0327
  496loPI   C3B 7935  12.871   8.640   8.090 -0.1290 -0.4379 -0.0046
  496loPI   C4B 7936  13.112   8.535   7.769  0.0913 -0.0918 -0.1391
  497loPI    C1 7937  11.024  12.117  10.072  0.0890 -0.1999 -0.0610
  497loPI    C2 7938  10.732  11.960  10.296  0.1027 -0.1512 -0.0089
  497loPI    C3 7939  11.050  12.130  10.471  0.1363 -0.1558 -0.0654
  497loPI   PO4 7940  11.133  11.866   9.900 -0.2814  0.0694 -0.1379
  497loPI   GL1 7941  11.127  11.826   9.443  0.3964 -0.2829 -0.0014
  497loPI   GL2 7942  11.273  12.123   9.346  0.1627 -0.1502  0.1457
  497loPI   C1A 7943  10.584  11.870   9.249  0.1581 -0.3562  0.0627
  497loPI   C2A 7944  10.311  12.039   8.915 -0.1832 -0.1984  0.1569
  497loPI   C3A 7945  10.258  12.083   8.542  0.0814  0.1931 -0.1108
  497loPI   C4A 7946  10.208  12.172   8.093 -0.1203 -0.1914  0.0846
  497loPI   C5A 7947  10.151  12.220   7.609 -0.0735  0.0646 -0.0107
  497loPI   C6A 7948  10.426  12.299   7.240 -0.1663  0.1993 -0.0871
  497loPI   C1B 7949  10.949  12.154   9.025 -0.2752 -0.2011  0.2416
  497loPI   C2B 7950  10.967  12.143   8.532 -0.2184  0.0417 -0.2512
  497loPI   C3B 7951  11.131  12.372   8.133  0.0962  0.0375 -0.0005
  497loPI   C4B 7952  11.186  12.273   7.790 -0.2197 -0.1195  0.1654
  498loPI    C1 7953   3.854  13.852  10.225 -0.0662 -0.0174  0.1715
  498loPI    C2 7954   3.555  13.862  10.490 -0.3664 -0.1982 -0.1519
  498loPI    C3 7955   3.585  14.149  10.213 -0.0244  0.0179  0.1010
  498loPI   PO4 7956   3.825  13.618  10.072  0.3473 -0.0397  0.0748
  498loPI   GL1 7957   3.751  13.389   9.633 -0.1744  0.0044  0.1757
  498loPI   GL2 7958   3.597  13.721   9.617 -0.1084 -0.0695  0.0818
  498loPI   C1A 7959   3.954  13.448   9.223  0.3149 -0.1248  0.1691
  498loPI   C2A 7960   4.027  13.145   8.872  0.0897  0.3654  0.2744
  498loPI   C3A 7961   4.368  13.051   8.575  0.1007  0.1661 -0.1286
  498loPI   C4A 7962   4.474  13.112   8.224 -0.0650  0.4628 -0.2287
  498loPI   C5A 7963   4.395  13.146   7.754  0.0953  0.5940 -0.1397
  498loPI   C6A 7964   4.518  13.170   7.352  0.0435 -0.2126  0.0412
  498loPI   C1B 7965   3.608  13.829   9.149  0.3148  0.2610  0.2492
  498loPI   C2B 7966   3.807  13.727   8.778  0.0742 -0.1800 -0.1054
  498loPI   C3B 7967   4.005  13.585   8.515 -0.2185  0.1161 -0.3257
  498loPI   C4B 7968   4.168  13.669   8.048 -0.1554 -0.1449  0.0457
  499loPI    C1 7969  12.716   8.178   9.871 -0.0761 -0.2958  0.1111
  499loPI    C2 7970  12.887   8.106  10.225  0.0652 -0.2460  0.0537
  499loPI    C3 7971  12.493   8.167  10.202  0.0524 -0.2711  0.1994
  499loPI   PO4 7972  12.824   7.997   9.669  0.2232 -0.2759 -0.2208
  499loPI   GL1 7973  12.926   8.119   9.264  0.1527 -0.1070 -0.2920
  499loPI   GL2 7974  13.295   8.120   9.268 -0.0371 -0.0670  0.1654
  499loPI   C1A 7975  12.811   8.145   8.888 -0.0229 -0.1762  0.2701
  499loPI   C2A 7976  12.631   8.309   8.513  0.0679  0.1784 -0.2645
  499loPI   C3A 7977  12.278   8.390   8.230  0.0833 -0.1001  0.5526
  499loPI   C4A 7978  12.387   8.660   7.971 -0.0941  0.1093 -0.2418
  499loPI   C5A 7979  12.654   8.618   7.588  0.0298 -0.1735  0.2490
  499loPI   C6A 7980  13.045   8.944   7.427 -0.3273  0.1518 -0.2140
  499loPI   C1B 7981  13.541   7.997   8.873  0.1756 -0.0642  0.0630
  499loPI   C2B 7982  13.341   7.783   8.511  0.0838 -0.1536  0.1427
  499loPI   C3B 7983  13.082   7.517   8.203 -0.2764 -0.3422 -0.0642
  499loPI   C4B 7984  12.999   7.650   7.819  0.1327 -0.0418 -0.0385
  500loPI    C1 7985  10.950   8.649   9.457 -0.0415 -0.0961  0.1316
  500loPI    C2 7986  10.576   8.543   9.552 -0.0326  0.0161  0.2959
  500loPI    C3 7987  10.843   8.264   9.448 -0.2385 -0.0384 -0.1069
  500loPI   PO4 7988  10.905   8.948   9.385 -0.1381  0.2461 -0.1308
  500loPI   GL1 7989  10.778   9.286   9.083 -0.2377  0.0406  0.1341
  500loPI   GL2 7990  10.517   9.008   9.029 -0.1892 -0.0072 -0.0010
  500loPI   C1A 7991  10.992   9.557   8.876  0.0047  0.1791  0.1779
  500loPI   C2A 7992  11.150   9.731   8.573  0.1716 -0.1727  0.1549
  500loPI   C3A 7993  11.231   9.642   8.118  0.0511 -0.4322 -0.2325
  500loPI   C4A 7994  11.308   9.482   7.735  0.0581 -0.0402  0.3897
  500loPI   C5A 7995  11.309   9.510   7.285  0.1642  0.2568 -0.1207
  500loPI   C6A 7996  11.546   9.459   7.036  0.1335 -0.0042  0.1686
  500loPI   C1B 7997  10.587   8.768   8.591  0.0209 -0.3623  0.3453
  500loPI   C2B 7998  10.492   8.587   8.258 -0.1023  0.1999  0.0900
  500loPI   C3B 7999  10.339   8.449   7.964  0.0677 -0.0557 -0.0591
  500loPI   C4B 8000  10.446   8.332   7.525 -0.1959 -0.0626  0.2172
  501loPI    C1 8001  19.126  18.182   9.981 -0.1216 -0.0215 -0.1080
  501loPI    C2 8002  18.911  18.471  10.156  0.0734  0.0460  0.0239
  501loPI    C3 8003  18.930  18.107  10.321  0.0185  0.0247 -0.0162
  501loPI   PO4 8004  19.106  18.262   9.660 -0.0157  0.3333 -0.0547
  501loPI   GL1 8005  18.985  18.435   9.255 -0.0638 -0.0713  0.0136
  501loPI   GL2 8006  19.067  18.859   9.030 -0.0266 -0.0410 -0.4026
  501loPI   C1A 8007  19.089  18.424   8.783 -0.2028  0.3892  0.3115
  501loPI   C2A 8008  19.154  18.038   8.582 -0.0389 -0.0822 -0.2924
  501loPI   C3A 8009  19.293  18.005   8.100  0.0341  0.1506 -0.3126
  501loPI   C4A 8010  19.609  17.949   7.801  0.0229  0.1806  0.1754
  501loPI   C5A 8011  19.675  17.903   7.356 -0.0082  0.0111 -0.0856
  501loPI   C6A 8012  19.807  17.852   6.886 -0.0818  0.0582  0.0610
  501loPI   C1B 8013  19.162  18.872   8.619 -0.0980  0.1062 -0.2670
  501loPI   C2B 8014  19.206  18.975   8.211 -0.4637 -0.1330  0.2281
  501loPI   C3B 8015  19.432  18.956   7.878 -0.3647  0.0612  0.0496
  501loPI   C4B 8016  19.806  18.943   7.612 -0.0371 -0.0304  0.1817
  502loPI    C1 8017  14.035  15.792   9.311  0.2554 -0.0736 -0.2885
  502loPI    C2 8018  13.921  15.722   9.688 -0.0423 -0.0195 -0.3653
  502loPI    C3 8019  14.285  15.610   9.564  0.0830  0.0239 -0.0448
  502loPI   PO4 8020  13.986  15.980   9.250  0.1615 -0.5121  0.1377
  502loPI   GL1 8021  13.878  16.107   8.850  0.2095 -0.1935 -0.2926
  502loPI   GL2 8022  14.010  15.799   8.768  0.1402  0.1265  0.3132
  502loPI   C1A 8023  14.060  16.244   8.401  0.0241 -0.0240 -0.0257
  502loPI   C2A 8024  14.295  16.066   8.005 -0.0208  0.0004 -0.1099
  502loPI   C3A 8025  14.283  16.026   7.518  0.4051 -0.0484 -0.2526
  502loPI   C4A 8026  14.368  16.124   7.093 -0.0873 -0.1967  0.0203
  502loPI   C5A 8027  14.266  16.421   6.818  0.0780 -0.1016 -0.1414
  502loPI   C6A 8028  13.909  16.543   6.524 -0.0834  0.2216  0.0529
  502loPI   C1B 8029  14.075  15.717   8.319  0.2747 -0.2035 -0.1771
  502loPI   C2B 8030  13.980  15.711   7.822  0.0356 -0.0942 -0.0708
  502loPI   C3B 8031  14.159  15.535   7.400  0.1550 -0.1384  0.0568
  502loPI   C4B 8032  14.576  15.466   7.227  0.3101  0.0179  0.0107
  503loPI    C1 8033  15.741   7.231  10.048 -0.0083  0.3253 -0.3177
  503loPI    C2 8034  16.098   7.332  10.196 -0.0599 -0.0265  0.0648
  503loPI    C3 8035  15.780   7.566  10.263  0.0738  0.2348 -0.1902
  503loPI   PO4 8036  15.695   7.181   9.781  0.1328  0.2063 -0.2944
  503loPI   GL1 8037  15.437   7.059   9.401 -0.0091  0.1954  0.0902
  503loPI   GL2 8038  15.801   6.763   9.521 -0.3025 -0.1092  0.1427
  503loPI   C1A 8039  15.331   7.061   9.087  0.1382  0.2502  0.1014
  503loPI   C2A 8040  15.182   7.114   8.626 -0.1419  0.0546  0.0481
  503loPI   C3A 8041  15.492   6.891   8.384  0.1721  0.0440  0.0557
  503loPI   C4A 8042  15.758   6.647   7.975 -0.1947 -0.1724 -0.3218
  503loPI   C5A 8043  15.897   6.793   7.633 -0.0484 -0.4548 -0.0224
  503loPI   C6A 8044  16.075   6.577   7.262  0.2783  0.0892  0.1063
  503loPI   C1B 8045  15.834   6.992   9.120  0.3035  0.3822  0.2808
  503loPI   C2B 8046  15.816   7.079   8.688 -0.2384 -0.2116  0.1796
  503loPI   C3B 8047  15.844   7.189   8.211 -0.1543  0.0104 -0.1940
  503loPI   C4B 8048  15.659   7.286   7.783 -0.1252  0.0539  0.1125
  504loPI    C1 8049  13.733  18.980   9.463  0.0756  0.0208 -0.1645
  504loPI    C2 8050  14.028  18.893   9.719 -0.0775  0.0807  0.0348
  504loPI    C3 8051  13.683  18.691   9.735 -0.1231  0.1501 -0.0614
  504loPI   PO4 8052  13.758  18.957   9.158 -0.1060 -0.1307  0.0846
  504loPI   GL1 8053  13.513  19.089   8.794  0.0238  0.3304  0.2882
  504loPI   GL2 8054  13.737  19.211   8.596  0.1585 -0.3017 -0.2851
  504loPI   C1A 8055  13.312  19.161   8.411 -0.1083  0.2881 -0.1019
  504loPI   C2A 8056  13.147  19.066   7.996  0.1727 -0.0551 -0.0849
  504loPI   C3A 8057  12.918  19.073   7.615  0.2262  0.2981  0.1780
  504loPI   C4A 8058  12.769  19.009   7.135  0.2031  0.1765  0.1102
  504loPI   C5A 8059  12.438  18.927   6.834  0.2206  0.0745 -0.1767
  504loPI   C6A 8060  12.054  18.782   6.712 -0.2108  0.1288 -0.2429
  504loPI   C1B 8061  13.619  19.585   8.429  0.1183 -0.0693  0.1124
  504loPI   C2B 8062  13.696  19.867   8.111 -0.3249 -0.1064  0.1144
  504loPI   C3B 8063  13.754  20.228   7.933  0.1031 -0.2383 -0.0104
  504loPI   C4B 8064  13.841  20.501   7.704 -0.0121  0.1882 -0.0452
  505loPI    C1 8065   8.885  11.578  10.082  0.2777 -0.0782 -0.0844
  505loPI    C2 8066   8.862  11.219  10.256  0.0780  0.0228  0.1032
  505loPI    C3 8067   8.592  11.501  10.343 -0.0502  0.0658 -0.4018
  505loPI   PO4 8068   9.010  11.572   9.855 -0.0675  0.0262 -0.0908
  505loPI   GL1 8069   9.058  11.564   9.442  0.1412 -0.1048 -0.0010
  505loPI   GL2 8070   8.731  11.773   9.473 -0.1824 -0.1726 -0.2119
  505loPI   C1A 8071   8.927  11.604   9.026 -0.1995 -0.2717 -0.0819
  505loPI   C2A 8072   8.879  11.721   8.620 -0.2018  0.0749  0.2705
  505loPI   C3A 8073   8.960  11.721   8.136 -0.2646  0.5313 -0.0524
  505loPI   C4A 8074   9.004  11.578   7.638 -0.0105  0.1575 -0.0925
  505loPI   C5A 8075   8.641  11.583   7.399  0.0867 -0.0140 -0.3148
  505loPI   C6A 8076   8.621  11.711   7.068 -0.1703 -0.0482  0.1884
  505loPI   C1B 8077   8.592  11.999   9.080  0.0586 -0.3866 -0.0898
  505loPI   C2B 8078   8.687  12.122   8.830 -0.3973 -0.1844 -0.1222
  505loPI   C3B 8079   8.534  12.089   8.431  0.0942 -0.0469  0.0544
  505loPI   C4B 8080   8.441  11.897   8.041 -0.0350  0.1756 -0.0099
  506loPI    C1 8081  12.076   6.015   9.809  0.0979  0.1439  0.0524
  506loPI    C2 8082  11.867   6.318   9.964  0.0888  0.0791  0.1682
  506loPI    C3 8083  12.059   6.064  10.206 -0.1000 -0.1472  0.0828
  506loPI   PO4 8084  11.998   5.975   9.588 -0.0272  0.1283  0.0880
  506loPI   GL1 8085  11.944   5.971   9.206  0.1073  0.1595 -0.0833
  506loPI   GL2 8086  12.176   6.219   9.209  0.1065  0.0921  0.3103
  506loPI   C1A 8087  11.702   6.113   8.857 -0.2638  0.0109 -0.0245
  506loPI   C2A 8088  11.545   6.040   8.419 -0.0570 -0.1148  0.1059
  506loPI   C3A 8089  11.733   5.982   8.025 -0.1628 -0.3647  0.2581
  506loPI   C4A 8090  11.966   5.907   7.696  0.2426  0.1809 -0.1885
  506loPI   C5A 8091  12.369   5.858   7.446 -0.0704  0.1811 -0.0377
  506loPI   C6A 8092  12.743   5.782   7.056 -0.0433  0.1260 -0.0120
  506loPI   C1B 8093  12.074   6.408   8.785 -0.0517  0.0376  0.1182
  506loPI   C2B 8094  12.062   6.354   8.328  0.2968 -0.0134 -0.2091
  506loPI   C3B 8095  12.058   6.401   7.840  0.2663  0.1229  0.0638
  506loPI   C4B 8096  12.156   6.357   7.431  0.0405  0.1624  0.1635
  507loPI    C1 8097   4.665  13.371  10.063  0.1172  0.1173 -0.0417
  507loPI    C2 8098   5.029  13.487   9.945  0.1387 -0.1195 -0.2148
  507loPI    C3 8099   4.839  13.688  10.234  0.3373  0.1039 -0.2364
  507loPI   PO4 8100   4.668  13.159  10.068 -0.2682  0.5341  0.2857
  507loPI   GL1 8101   4.377  13.006   9.758 -0.0402 -0.0636  0.1972
  507loPI   GL2 8102   4.083  12.972   9.673 -0.0517 -0.2385 -0.1677
  507loPI   C1A 8103   4.320  13.113   9.308  0.0436 -0.2063 -0.2299
  507loPI   C2A 8104   4.607  13.227   9.034  0.0385 -0.0981 -0.1258
  507loPI   C3A 8105   4.915  13.179   8.581 -0.1137 -0.1348  0.0424
  507loPI   C4A 8106   4.901  13.359   8.225 -0.1391  0.4408 -0.1250
  507loPI   C5A 8107   4.709  13.525   7.776 -0.2054 -0.0122  0.1055
  507loPI   C6A 8108   4.485  13.899   7.778 -0.5653  0.1190 -0.2223
  507loPI   C1B 8109   3.846  12.951   9.364  0.1543  0.3249  0.1807
  507loPI   C2B 8110   3.669  12.805   8.994  0.1860 -0.1546 -0.0303
  507loPI   C3B 8111   3.830  12.792   8.470  0.2948 -0.1313 -0.1658
  507loPI   C4B 8112   4.046  12.828   8.073 -0.1553 -0.0241  0.0480
  508loPI    C1 8113  13.487   1.116   9.221  0.0515 -0.0254  0.1800
  508loPI    C2 8114  13.819   1.243   9.404  0.1207 -0.0659  0.0835
  508loPI    C3 8115  13.460   1.355   9.540  0.1796  0.2039  0.0223
  508loPI   PO4 8116  13.576   1.063   8.986  0.0115 -0.0084  0.3067
  508loPI   GL1 8117  13.526   0.657   8.758  0.2222  0.3042  0.1201
  508loPI   GL2 8118  13.843   0.548   8.844  0.1460  0.0307 -0.1432
  508loPI   C1A 8119  13.231   0.562   8.331  0.2066 -0.0537  0.2996
  508loPI   C2A 8120  13.301   0.400   7.861 -0.4093  0.0089  0.1270
  508loPI   C3A 8121  13.625   0.402   7.585  0.0455 -0.0015  0.3264
  508loPI   C4A 8122  14.015   0.107   7.383  0.1236 -0.3746 -0.0807
  508loPI   C5A 8123  14.385   0.065   7.435 -0.1334 -0.0185 -0.1196
  508loPI   C6A 8124  14.788  -0.152   7.392  0.4361 -0.2508 -0.1699
  508loPI   C1B 8125  13.979   0.562   8.429 -0.0606 -0.0884  0.0170
  508loPI   C2B 8126  14.201   0.418   8.133 -0.1311 -0.1839 -0.0094
  508loPI   C3B 8127  14.150   0.518   7.707 -0.1543 -0.0659  0.1990
  508loPI   C4B 8128  14.381   0.544   7.363  0.0317  0.0055  0.0412
  509loPI    C1 8129  12.436   0.590   9.636 -0.0260  0.0854  0.0076
  509loPI    C2 8130  12.117   0.439   9.825 -0.1652  0.2575 -0.0865
  509loPI    C3 8131  12.422   0.590  10.035 -0.0771 -0.0436  0.0065
  509loPI   PO4 8132  12.336   0.678   9.432  0.0720 -0.0107 -0.1612
  509loPI   GL1 8133  12.358   0.922   9.113 -0.2172 -0.0272 -0.1291
  509loPI   GL2 8134  12.166   0.599   8.866 -0.0598 -0.0002 -0.2046
  509loPI   C1A 8135  12.241   1.133   8.664 -0.0187  0.0246 -0.0385
  509loPI   C2A 8136  12.224   0.997   8.173 -0.2513 -0.0338  0.0556
  509loPI   C3A 8137  12.062   1.040   7.699 -0.3845 -0.1514 -0.1973
  509loPI   C4A 8138  11.691   1.022   7.502 -0.0596  0.1219 -0.1072
  509loPI   C5A 8139  11.389   0.815   7.319 -0.3629  0.0442  0.3021
  509loPI   C6A 8140  11.261   0.551   6.963 -0.2786  0.1653  0.2498
  509loPI   C1B 8141  12.273   0.583   8.444 -0.0586  0.0231 -0.0568
  509loPI   C2B 8142  12.265   0.579   7.898 -0.1977 -0.3169 -0.0037
  509loPI   C3B 8143  12.532   0.838   7.570 -0.1004 -0.0468  0.1128
  509loPI   C4B 8144  12.922   1.074   7.539 -0.2557  0.0694 -0.2200
  510loPI    C1 8145  15.835  14.087   9.847  0.1608 -0.0901 -0.0119
  510loPI    C2 8146  16.119  13.866  10.023 -0.0689 -0.1292  0.3186
  510loPI    C3 8147  16.085  14.255  10.110 -0.0739 -0.1089  0.2273
  510loPI   PO4 8148  15.813  13.850   9.559 -0.0306  0.3986  0.1143
  510loPI   GL1 8149  15.859  13.479   9.269  0.1503 -0.1100 -0.1252
  510loPI   GL2 8150  15.858  13.185   9.001 -0.0338 -0.0045  0.3580
  510loPI   C1A 8151  15.906  13.740   8.914 -0.2393  0.1925  0.1250
  510loPI   C2A 8152  15.647  13.773   8.432 -0.1106 -0.0472  0.0993
  510loPI   C3A 8153  15.453  13.573   8.033 -0.0360 -0.1199 -0.0382
  510loPI   C4A 8154  15.340  13.615   7.659 -0.1424  0.1937  0.1340
  510loPI   C5A 8155  15.326  13.825   7.340  0.1465 -0.0252  0.3526
  510loPI   C6A 8156  15.519  13.689   6.901  0.2250 -0.0116  0.2528
  510loPI   C1B 8157  16.149  13.375   8.690 -0.2103 -0.0042  0.0860
  510loPI   C2B 8158  16.151  13.505   8.298  0.1518  0.2708 -0.0706
  510loPI   C3B 8159  16.039  13.655   7.936  0.1588 -0.1373 -0.1420
  510loPI   C4B 8160  15.914  13.837   7.576  0.0291 -0.0866 -0.1454
  511loPI    C1 8161   7.425  15.317  10.051 -0.2468 -0.0014 -0.2230
  511loPI    C2 8162   7.451  14.925  10.131  0.2348  0.0417 -0.1425
  511loPI    C3 8163   7.533  15.194  10.416  0.0899  0.2028 -0.2502
  511loPI   PO4 8164   7.458  15.326   9.782  0.0544 -0.0592 -0.1652
  511loPI   GL1 8165   7.342  15.321   9.444 -0.1132  0.0860 -0.1550
  511loPI   GL2 8166   7.535  15.067   9.211 -0.0410  0.0974 -0.0841
  511loPI   C1A 8167   7.445  15.536   9.040  0.0983  0.3490  0.0512
  511loPI   C2A 8168   7.377  15.387   8.777 -0.2409  0.1691 -0.1192
  511loPI   C3A 8169   7.400  15.454   8.290 -0.0110 -0.4141 -0.1751
  511loPI   C4A 8170   7.436  15.611   7.868  0.0818 -0.2692  0.2307
  511loPI   C5A 8171   7.089  15.672   7.658 -0.2153  0.0145 -0.2631
  511loPI   C6A 8172   6.723  15.897   7.334  0.4076  0.3557 -0.0607
  511loPI   C1B 8173   7.754  14.988   8.811  0.1256  0.1997  0.2808
  511loPI   C2B 8174   8.283  15.097   8.825  0.1345  0.2139  0.0549
  511loPI   C3B 8175   8.451  15.568   9.045  0.2717  0.2192  0.2561
  511loPI   C4B 8176   8.598  15.997   8.933  0.1773 -0.0687 -0.2578
  512loPI    C1 8177  10.465   6.886   9.781  0.1258  0.0004 -0.1718
  512loPI    C2 8178  10.779   7.130   9.818  0.0140  0.0909  0.2277
  512loPI    C3 8179  10.697   6.865  10.106 -0.1242 -0.1146  0.0029
  512loPI   PO4 8180  10.374   7.031   9.546 -0.1216 -0.1992 -0.0060
  512loPI   GL1 8181  10.374   7.078   9.170 -0.0909  0.2555 -0.0701
  512loPI   GL2 8182  10.200   7.316   9.075 -0.1858 -0.1343  0.0472
  512loPI   C1A 8183  10.267   6.865   8.731  0.0050 -0.0080  0.0902
  512loPI   C2A 8184   9.897   6.744   8.405 -0.1811  0.1427 -0.3444
  512loPI   C3A 8185   9.694   6.662   7.965 -0.1839 -0.0852 -0.2562
  512loPI   C4A 8186   9.695   6.734   7.546  0.2197  0.1202  0.1809
  512loPI   C5A 8187   9.393   6.576   7.161  0.1217 -0.1229 -0.2844
  512loPI   C6A 8188   9.219   6.420   6.852  0.1725 -0.3143 -0.0092
  512loPI   C1B 8189  10.195   7.479   8.629  0.0012 -0.2225 -0.3949
  512loPI   C2B 8190  10.093   7.638   8.216 -0.0607 -0.1681 -0.0643
  512loPI   C3B 8191   9.885   7.445   7.812 -0.3467  0.0237 -0.1074
  512loPI   C4B 8192   9.662   7.299   7.461 -0.0094 -0.0839  0.1173
  513loPI    C1 8193   7.898  15.133   9.902 -0.0725 -0.3829 -0.0350
  513loPI    C2 8194   8.280  15.158  10.020 -0.1091 -0.0207  0.0193
  513loPI    C3 8195   8.018  14.942  10.232  0.0538 -0.2349  0.0061
  513loPI   PO4 8196   7.904  15.252   9.636  0.1075  0.0360  0.1211
  513loPI   GL1 8197   7.824  15.668   9.412 -0.1374  0.1252 -0.2852
  513loPI   GL2 8198   7.976  15.472   9.180  0.2676 -0.2237  0.1048
  513loPI   C1A 8199   7.915  15.999   9.099 -0.1358  0.0637 -0.0550
  513loPI   C2A 8200   8.126  15.938   8.717  0.0044  0.1178 -0.0676
  513loPI   C3A 8201   8.449  15.705   8.460 -0.0367  0.1366  0.4330
  513loPI   C4A 8202   8.466  15.548   8.019  0.0340 -0.2362 -0.2540
  513loPI   C5A 8203   8.579  15.621   7.613 -0.1093 -0.0058 -0.3973
  513loPI   C6A 8204   9.000  15.671   7.446 -0.1091  0.1286  0.2196
  513loPI   C1B 8205   7.928  15.469   8.780  0.0624 -0.0940 -0.1490
  513loPI   C2B 8206   7.931  15.252   8.370  0.4911 -0.3959 -0.0701
  513loPI   C3B 8207   7.997  15.452   7.925  0.3757 -0.1174 -0.1907
  513loPI   C4B 8208   8.091  15.581   7.490  0.2058  0.0619  0.1149
  514loPI    C1 8209  15.770   8.813   9.982  0.1255 -0.1855 -0.0482
  514loPI    C2 8210  15.416   8.632  10.024  0.0402 -0.0252 -0.0655
  514loPI    C3 8211  15.485   8.980  10.208  0.2150 -0.0914 -0.0036
  514loPI   PO4 8212  15.857   8.778   9.696 -0.1825  0.1131  0.1644
  514loPI   GL1 8213  15.756   8.873   9.292 -0.0897  0.0001  0.0667
  514loPI   GL2 8214  16.030   8.722   9.113 -0.0422  0.0756  0.0265
  514loPI   C1A 8215  15.570   8.887   8.862 -0.0355 -0.1127 -0.1239
  514loPI   C2A 8216  15.542   8.949   8.416 -0.0721  0.2830  0.2691
  514loPI   C3A 8217  15.307   9.156   8.036  0.5187 -0.2315  0.2753
  514loPI   C4A 8218  15.185   9.216   7.581  0.1491  0.0729  0.2872
  514loPI   C5A 8219  15.197   9.247   7.143  0.1603  0.0149  0.0411
  514loPI   C6A 8220  14.936   9.184   6.732  0.1372  0.1198 -0.0548
  514loPI   C1B 8221  16.302   8.793   8.704 -0.0151 -0.2898  0.0397
  514loPI   C2B 8222  16.527   8.645   8.352 -0.2240 -0.3227 -0.0195
  514loPI   C3B 8223  16.759   8.653   8.096  0.2028  0.2635  0.0863
  514loPI   C4B 8224  17.107   8.641   8.027 -0.0590  0.1689 -0.0190
  515loPI    C1 8225   0.063  12.182   9.478  0.0391  0.0359 -0.0928
  515loPI    C2 8226   0.028  12.506   9.709 -0.2038 -0.0769  0.0314
  515loPI    C3 8227  -0.143  12.499   9.348  0.0187  0.0290 -0.0775
  515loPI   PO4 8228   0.387  12.136   9.540  0.1508 -0.0141  0.3288
  515loPI   GL1 8229   0.699  12.219   9.222 -0.0144 -0.1603 -0.2885
  515loPI   GL2 8230   0.870  12.578   9.204 -0.0323  0.0922 -0.2791
  515loPI   C1A 8231   0.485  12.223   8.881  0.1864 -0.0426  0.2102
  515loPI   C2A 8232   0.052  12.128   8.792  0.3152 -0.3216  0.1350
  515loPI   C3A 8233  -0.212  11.866   8.468  0.0127 -0.1101 -0.1300
  515loPI   C4A 8234  -0.382  11.853   7.995  0.1508  0.1629  0.0374
  515loPI   C5A 8235  -0.367  11.570   7.643 -0.3010 -0.1395 -0.0052
  515loPI   C6A 8236  -0.278  11.201   7.542 -0.0496 -0.1179  0.3022
  515loPI   C1B 8237   0.989  12.364   8.794  0.0775  0.3620  0.1190
  515loPI   C2B 8238   0.688  12.387   8.462 -0.1075  0.1031 -0.2658
  515loPI   C3B 8239   0.589  12.208   8.089 -0.1267 -0.0986 -0.0245
  515loPI   C4B 8240   0.955  12.181   7.753 -0.0898  0.1681  0.1269
  516loPI    C1 8241   3.194   2.054   9.105 -0.0904 -0.0322  0.1504
  516loPI    C2 8242   3.537   1.890   9.229  0.0871  0.1715 -0.0616
  516loPI    C3 8243   3.308   2.095   9.486  0.1109  0.0144  0.0863
  516loPI   PO4 8244   3.254   2.070   8.834  0.0080 -0.5220  0.0041
  516loPI   GL1 8245   3.173   2.381   8.588  0.1955  0.2331  0.0340
  516loPI   GL2 8246   3.515   2.535   8.632  0.0517 -0.2558 -0.0530
  516loPI   C1A 8247   3.321   2.184   8.153 -0.2283  0.2045  0.0759
  516loPI   C2A 8248   3.480   2.050   7.898  0.1719 -0.0444  0.1088
  516loPI   C3A 8249   3.816   1.701   7.808 -0.0145  0.0746 -0.3324
  516loPI   C4A 8250   4.191   1.618   7.500 -0.1030 -0.1786  0.2735
  516loPI   C5A 8251   4.440   1.285   7.477  0.1103  0.2938  0.1528
  516loPI   C6A 8252   4.654   1.108   7.707  0.0631 -0.0337 -0.1861
  516loPI   C1B 8253   3.749   2.438   8.264 -0.3407 -0.0777 -0.0285
  516loPI   C2B 8254   3.777   2.465   7.894  0.2798  0.1398 -0.0871
  516loPI   C3B 8255   3.480   2.418   7.506  0.1373  0.3088 -0.2334
  516loPI   C4B 8256   3.399   2.256   7.060  0.2945  0.0081 -0.0318
  517loPI    C1 8257   1.906  13.704  10.288 -0.3056 -0.0405 -0.2874
  517loPI    C2 8258   1.613  13.432  10.296 -0.0277 -0.3397  0.0950
  517loPI    C3 8259   1.763  13.573  10.638  0.1039  0.0027 -0.0990
  517loPI   PO4 8260   1.958  13.755   9.977  0.0075  0.1801 -0.0805
  517loPI   GL1 8261   2.184  13.629   9.590  0.0092  0.4145  0.0822
  517loPI   GL2 8262   2.396  13.783   9.653 -0.0163  0.0551 -0.1594
  517loPI   C1A 8263   2.069  13.684   9.179  0.3311 -0.1658  0.0268
  517loPI   C2A 8264   2.132  13.685   8.740 -0.0963 -0.1519  0.1052
  517loPI   C3A 8265   2.226  13.556   8.429 -0.1837  0.0224 -0.0930
  517loPI   C4A 8266   2.461  13.495   8.046 -0.0828  0.2014  0.0545
  517loPI   C5A 8267   2.389  13.416   7.513  0.0436 -0.4671  0.2066
  517loPI   C6A 8268   1.939  13.312   7.287  0.0141 -0.1416 -0.3205
  517loPI   C1B 8269   2.607  13.754   9.305  0.0010 -0.1484  0.1112
  517loPI   C2B 8270   2.700  13.622   8.907  0.1483  0.1526  0.2612
  517loPI   C3B 8271   2.628  13.311   8.506  0.3056  0.0140 -0.0148
  517loPI   C4B 8272   2.792  13.102   8.200 -0.2106  0.0040 -0.0984
  518loPI    C1 8273  18.702  10.376  10.030 -0.1295  0.2231 -0.1802
  518loPI    C2 8274  18.320  10.481  10.083 -0.1921 -0.0962  0.0286
  518loPI    C3 8275  18.523  10.306  10.380  0.1150  0.0588 -0.0851
  518loPI   PO4 8276  18.644  10.214   9.809 -0.1794  0.0295 -0.2411
  518loPI   GL1 8277  18.768  10.257   9.326 -0.0469 -0.0472 -0.0337
  518loPI   GL2 8278  18.784   9.948   9.238  0.5213  0.0213  0.0597
  518loPI   C1A 8279  18.512  10.271   8.953 -0.0444 -0.2223  0.0592
  518loPI   C2A 8280  18.239  10.478   8.579  0.3017  0.4190 -0.0702
  518loPI   C3A 8281  17.908  10.482   8.280  0.2599 -0.0926  0.4324
  518loPI   C4A 8282  17.703  10.507   7.885  0.2141  0.0714  0.0329
  518loPI   C5A 8283  17.666  10.536   7.467  0.2080  0.2986 -0.0304
  518loPI   C6A 8284  18.022  10.253   7.208 -0.0778  0.1362  0.1548
  518loPI   C1B 8285  18.696   9.817   8.795  0.0440 -0.0738 -0.0377
  518loPI   C2B 8286  18.438   9.972   8.468 -0.2568 -0.0547 -0.0560
  518loPI   C3B 8287  18.209   9.964   8.089 -0.1219 -0.1753  0.1671
  518loPI   C4B 8288  18.099  10.225   7.820  0.1978  0.0037  0.2880
  519loPI    C1 8289  18.937   8.815  10.059 -0.2410  0.1730  0.0230
  519loPI    C2 8290  19.077   9.172   9.946 -0.0469  0.1478  0.1776
  519loPI    C3 8291  18.994   9.103  10.331  0.1146 -0.0390  0.1805
  519loPI   PO4 8292  19.114   8.614   9.845 -0.2693  0.0437  0.1418
  519loPI   GL1 8293  19.060   8.800   9.342  0.0329 -0.0387  0.1544
  519loPI   GL2 8294  18.770   8.586   9.358  0.4201 -0.0813 -0.2152
  519loPI   C1A 8295  19.316   8.689   8.963  0.2814  0.0105  0.1054
  519loPI   C2A 8296  19.386   8.610   8.480 -0.0271 -0.2280  0.2809
  519loPI   C3A 8297  19.392   8.492   8.102  0.1200  0.2602  0.0923
  519loPI   C4A 8298  19.315   8.198   7.860 -0.2969 -0.3019  0.2925
  519loPI   C5A 8299  19.206   8.080   7.433  0.0710 -0.0322 -0.1481
  519loPI   C6A 8300  18.790   7.915   7.248 -0.0632 -0.0732 -0.0099
  519loPI   C1B 8301  18.857   8.751   8.872 -0.2356  0.0638  0.1605
  519loPI   C2B 8302  18.900   8.757   8.432 -0.2492 -0.1373  0.2806
  519loPI   C3B 8303  18.946   8.770   8.093  0.0551 -0.2072  0.1947
  519loPI   C4B 8304  19.154   8.654   7.643 -0.3811 -0.0648  0.1003
  520loPI    C1 8305  17.956  18.463   9.442  0.1002 -0.0895 -0.1656
  520loPI    C2 8306  17.867  18.237   9.760  0.0630 -0.0839 -0.1720
  520loPI    C3 8307  18.246  18.266   9.635  0.1714  0.3842  0.2317
  520loPI   PO4 8308  17.885  18.510   9.157  0.0207 -0.0345  0.1171
  520loPI   GL1 8309  17.879  18.333   8.715 -0.3783  0.1114 -0.0306
  520loPI   GL2 8310  17.565  18.398   8.794  0.1994  0.1567 -0.4484
  520loPI   C1A 8311  17.893  18.398   8.294 -0.2181  0.0863 -0.2768
  520loPI   C2A 8312  18.084  18.470   7.924 -0.2577 -0.0540  0.0027
  520loPI   C3A 8313  18.341  18.403   7.511 -0.2513  0.2848  0.1219
  520loPI   C4A 8314  18.286  18.316   7.054  0.0735 -0.2639 -0.0391
  520loPI   C5A 8315  18.464  18.295   6.572 -0.1550  0.5281  0.1507
  520loPI   C6A 8316  18.292  18.438   6.188  0.1335 -0.1209  0.1245
  520loPI   C1B 8317  17.725  18.796   8.569 -0.0923 -0.1105 -0.2818
  520loPI   C2B 8318  17.804  18.962   8.306 -0.2074 -0.1123  0.2996
  520loPI   C3B 8319  18.002  19.013   7.892 -0.5160  0.0127  0.3173
  520loPI   C4B 8320  18.387  18.975   7.662  0.2853 -0.2808 -0.0824
  521loPI    C1 8321   4.508   0.050  10.134  0.1229  0.0231  0.0845
  521loPI    C2 8322   4.523   0.418  10.289 -0.0458  0.0429  0.0553
  521loPI    C3 8323   4.631   0.103  10.511  0.2957  0.1276  0.0144
  521loPI   PO4 8324   4.707   0.009   9.927  0.2180  0.1190  0.2530
  521loPI   GL1 8325   4.924  -0.061   9.566  0.3031  0.0222 -0.3842
  521loPI   GL2 8326   4.616  -0.052   9.400 -0.0098 -0.1708 -0.0521
  521loPI   C1A 8327   4.921  -0.437   9.351 -0.0351 -0.4189 -0.0349
  521loPI   C2A 8328   4.685  -0.823   9.238 -0.1862 -0.2639 -0.0244
  521loPI   C3A 8329   4.658  -0.995   8.790  0.2596  0.0365 -0.3566
  521loPI   C4A 8330   4.547  -1.257   8.387 -0.2291  0.2869 -0.2546
  521loPI   C5A 8331   4.531  -1.207   7.972  0.3000 -0.0347 -0.0928
  521loPI   C6A 8332   4.665  -1.091   7.614  0.1095  0.2724  0.3672
  521loPI   C1B 8333   4.810  -0.039   9.034  0.2465  0.1091  0.2002
  521loPI   C2B 8334   5.014  -0.221   8.583 -0.0744 -0.0479 -0.1012
  521loPI   C3B 8335   5.124  -0.045   8.120  0.2458  0.1160 -0.0379
  521loPI   C4B 8336   5.337   0.283   7.905  0.0465  0.0980 -0.2019
  522loPI    C1 8337   8.201   6.097  10.286  0.0597  0.2736 -0.0693
  522loPI    C2 8338   7.996   5.779  10.415 -0.0718  0.2896 -0.2348
  522loPI    C3 8339   7.831   6.143  10.432  0.0643  0.3453 -0.0799
  522loPI   PO4 8340   8.283   5.985  10.013 -0.1164 -0.1227  0.0796
  522loPI   GL1 8341   8.454   6.147   9.593  0.0146  0.2717  0.0137
  522loPI   GL2 8342   8.740   6.065   9.427  0.0429 -0.1328 -0.1581
  522loPI   C1A 8343   8.413   6.266   9.093 -0.1612  0.4040 -0.1385
  522loPI   C2A 8344   8.376   6.376   8.640 -0.0017 -0.1702  0.1710
  522loPI   C3A 8345   8.431   6.562   8.216 -0.0853 -0.0755 -0.2048
  522loPI   C4A 8346   8.430   6.772   7.957 -0.2074 -0.1532  0.2854
  522loPI   C5A 8347   8.614   6.746   7.527 -0.1327  0.0138 -0.1090
  522loPI   C6A 8348   8.875   6.612   7.164 -0.0070  0.1364  0.3331
  522loPI   C1B 8349   8.768   5.795   9.129 -0.1097  0.0842 -0.0808
  522loPI   C2B 8350   9.052   5.639   8.795 -0.0653  0.0196 -0.1249
  522loPI   C3B 8351   9.342   5.480   8.595  0.0865 -0.0225 -0.1536
  522loPI   C4B 8352   9.631   5.392   8.259  0.0652  0.1458 -0.0364
  523loPI    C1 8353   8.559   5.132  10.200  0.0113 -0.1997 -0.0596
  523loPI    C2 8354   8.393   5.426  10.415  0.1378 -0.0378 -0.1810
  523loPI    C3 8355   8.276   5.048  10.470 -0.0439  0.0373 -0.0411
  523loPI   PO4 8356   8.514   5.183   9.893 -0.1054 -0.5831  0.2467
  523loPI   GL1 8357   8.392   4.992   9.624  0.1131  0.0745 -0.0988
  523loPI   GL2 8358   8.113   4.905   9.449  0.2569  0.1120  0.0014
  523loPI   C1A 8359   8.474   5.221   9.231  0.3570 -0.1164  0.1628
  523loPI   C2A 8360   8.549   5.489   8.821 -0.3555  0.1270 -0.1403
  523loPI   C3A 8361   8.603   5.704   8.419 -0.1775 -0.1961 -0.2004
  523loPI   C4A 8362   8.616   6.134   8.304  0.1501 -0.1819 -0.1784
  523loPI   C5A 8363   8.815   6.375   7.844 -0.0450  0.2222 -0.1116
  523loPI   C6A 8364   8.997   6.224   7.470 -0.1097 -0.2541 -0.1259
  523loPI   C1B 8365   8.032   5.005   9.040  0.2214  0.0128 -0.2880
  523loPI   C2B 8366   8.059   5.310   8.802  0.1691  0.0156  0.1074
  523loPI   C3B 8367   8.094   5.470   8.326  0.0550 -0.0912  0.1960
  523loPI   C4B 8368   8.156   5.591   7.803 -0.0116  0.0092  0.0320
  524loPI    C1 8369  18.553  18.766   9.410 -0.2809 -0.0547 -0.1022
  524loPI    C2 8370  18.772  18.598   9.699 -0.0586 -0.0287 -0.2524
  524loPI    C3 8371  18.523  18.898   9.786 -0.0653 -0.0854 -0.0726
  524loPI   PO4 8372  18.425  18.584   9.275  0.2914  0.0224 -0.1557
  524loPI   GL1 8373  18.638  18.614   8.878  0.0900 -0.0527 -0.3904
  524loPI   GL2 8374  18.376  18.432   8.808  0.0249  0.0854 -0.0648
  524loPI   C1A 8375  18.770  18.609   8.481 -0.0584 -0.1287  0.0170
  524loPI   C2A 8376  19.030  18.429   8.201  0.1782  0.0921  0.1870
  524loPI   C3A 8377  19.032  18.264   7.777  0.2268 -0.0251 -0.1494
  524loPI   C4A 8378  18.827  18.445   7.418  0.1206 -0.1825 -0.0194
  524loPI   C5A 8379  18.598  18.826   7.224 -0.2737  0.0473 -0.1105
  524loPI   C6A 8380  18.540  19.158   6.965 -0.0659  0.0042 -0.0660
  524loPI   C1B 8381  18.368  18.323   8.370 -0.1763  0.0435  0.1677
  524loPI   C2B 8382  18.480  18.159   7.895  0.3657  0.3821  0.1646
  524loPI   C3B 8383  18.469  17.962   7.416  0.1033  0.2032 -0.3438
  524loPI   C4B 8384  18.688  17.924   6.916  0.0035 -0.0396  0.2531
  525loPI    C1 8385  16.092   2.633   9.622 -0.0002 -0.0135  0.1133
  525loPI    C2 8386  15.722   2.726   9.503  0.0319 -0.1826 -0.1272
  525loPI    C3 8387  15.776   2.491   9.822 -0.0619  0.0130  0.0350
  525loPI   PO4 8388  16.185   2.962   9.571  0.0179 -0.2080  0.1809
  525loPI   GL1 8389  16.080   3.220   9.211 -0.2276  0.1751 -0.0173
  525loPI   GL2 8390  15.868   3.028   9.053  0.0191 -0.1117  0.2784
  525loPI   C1A 8391  16.093   3.620   8.954  0.0578 -0.0364  0.6277
  525loPI   C2A 8392  16.112   3.681   8.556  0.1174  0.1193  0.0409
  525loPI   C3A 8393  15.981   3.602   8.181  0.2931  0.1987 -0.2805
  525loPI   C4A 8394  16.143   3.304   7.800 -0.0970  0.1850  0.2043
  525loPI   C5A 8395  16.102   3.035   7.385  0.0134  0.0944 -0.2677
  525loPI   C6A 8396  16.209   2.599   7.214 -0.2539 -0.0673  0.1618
  525loPI   C1B 8397  15.742   3.211   8.669  0.0035  0.0345  0.0604
  525loPI   C2B 8398  15.716   3.123   8.275  0.1200 -0.0436 -0.1421
  525loPI   C3B 8399  15.739   3.064   7.855  0.2062  0.3399  0.0364
  525loPI   C4B 8400  15.589   3.038   7.487  0.0509  0.1649  0.0715
  526loPI    C1 8401   9.169   6.817   9.951  0.2158  0.0067 -0.1836
  526loPI    C2 8402   9.352   7.172   9.974  0.0297  0.1059 -0.2250
  526loPI    C3 8403   9.452   6.879  10.227 -0.1686  0.3508  0.1465
  526loPI   PO4 8404   9.039   6.819   9.738  0.5171  0.1951  0.0190
  526loPI   GL1 8405   8.828   6.574   9.346 -0.1130  0.0032 -0.0325
  526loPI   GL2 8406   8.912   6.943   9.279  0.0404  0.0157 -0.1321
  526loPI   C1A 8407   9.064   6.228   9.098  0.1013 -0.0812  0.0209
  526loPI   C2A 8408   9.071   6.155   8.668 -0.1218 -0.2921 -0.0867
  526loPI   C3A 8409   9.152   5.979   8.274 -0.0172 -0.0927 -0.3357
  526loPI   C4A 8410   8.832   5.856   7.941 -0.1878  0.1003 -0.1761
  526loPI   C5A 8411   8.818   5.817   7.457  0.0863  0.1022  0.0433
  526loPI   C6A 8412   9.072   5.884   7.120 -0.3443  0.0733  0.2374
  526loPI   C1B 8413   9.013   7.080   8.761  0.1925  0.2598 -0.0871
  526loPI   C2B 8414   9.249   7.348   8.523 -0.2793 -0.0581  0.1903
  526loPI   C3B 8415   9.138   7.401   8.140  0.1284  0.0519 -0.0681
  526loPI   C4B 8416   9.261   7.535   7.699 -0.1162  0.0914  0.0819
  527loPI    C1 8417  11.205  14.314  10.147  0.0358 -0.1236  0.0292
  527loPI    C2 8418  10.933  14.110  10.358  0.0554 -0.1214  0.0567
  527loPI    C3 8419  11.100  14.438  10.512 -0.0925  0.0063 -0.0508
  527loPI   PO4 8420  11.076  14.230   9.898  0.1845  0.3404 -0.0253
  527loPI   GL1 8421  10.952  14.166   9.469 -0.0133 -0.0380  0.2736
  527loPI   GL2 8422  11.281  14.090   9.402 -0.2649 -0.0308  0.0806
  527loPI   C1A 8423  10.840  14.038   9.087  0.3338  0.2350 -0.1718
  527loPI   C2A 8424  11.010  13.783   8.769  0.0421  0.0276 -0.3193
  527loPI   C3A 8425  11.226  13.606   8.544  0.2374  0.0833 -0.3092
  527loPI   C4A 8426  11.189  13.291   8.163  0.0058  0.1616 -0.1099
  527loPI   C5A 8427  11.037  13.343   7.769 -0.0121  0.0419  0.1032
  527loPI   C6A 8428  11.086  13.585   7.472  0.3322 -0.2610 -0.0583
  527loPI   C1B 8429  11.181  13.647   9.203 -0.0110  0.1295  0.1279
  527loPI   C2B 8430  11.357  13.395   8.982  0.0169  0.0419  0.1509
  527loPI   C3B 8431  11.406  13.133   8.593 -0.2514  0.4055 -0.0090
  527loPI   C4B 8432  11.694  13.282   8.286 -0.3120 -0.1622  0.0145
  528loPI    C1 8433   1.464  11.310  10.114 -0.1364 -0.1119  0.0404
  528loPI    C2 8434   1.106  11.349  10.286 -0.2142  0.1830 -0.1800
  528loPI    C3 8435   1.289  11.669  10.133  0.1439  0.0338 -0.0731
  528loPI   PO4 8436   1.423  10.993   9.918 -0.2898  0.2397  0.0197
  528loPI   GL1 8437   1.358  10.569   9.551  0.0754  0.1848  0.2902
  528loPI   GL2 8438   1.255  10.940   9.386 -0.0143 -0.2468 -0.0229
  528loPI   C1A 8439   1.468  10.584   9.091  0.0343 -0.1224  0.1004
  528loPI   C2A 8440   1.456  10.832   8.792  0.0434 -0.0483 -0.1007
  528loPI   C3A 8441   1.505  10.754   8.449 -0.2046  0.0693 -0.0373
  528loPI   C4A 8442   1.694  10.737   8.074 -0.2457 -0.0283 -0.1312
  528loPI   C5A 8443   1.595  10.493   7.694  0.1170  0.1877  0.0817
  528loPI   C6A 8444   1.778  10.291   7.357 -0.1826  0.1954  0.0278
  528loPI   C1B 8445   1.069  11.046   9.042  0.1574  0.3719  0.2029
  528loPI   C2B 8446   1.060  11.078   8.609  0.1077 -0.1530  0.1632
  528loPI   C3B 8447   1.090  11.086   8.258 -0.1186  0.2763 -0.1491
  528loPI   C4B 8448   1.208  10.729   8.058  0.0244 -0.0548  0.1135
  529loPI    C1 8449  14.058   1.755   9.366 -0.0888 -0.0237  0.0639
  529loPI    C2 8450  14.126   1.473   9.641  0.1051  0.0670  0.1101
  529loPI    C3 8451  13.787   1.685   9.651 -0.1437 -0.3140 -0.0561
  529loPI   PO4 8452  14.152   1.616   9.128  0.2270  0.1290 -0.0266
  529loPI   GL1 8453  14.465   1.524   8.901  0.0148  0.0603  0.1154
  529loPI   GL2 8454  14.687   1.674   8.837  0.1494 -0.1879  0.1516
  529loPI   C1A 8455  14.275   1.520   8.473 -0.1534  0.0696 -0.3971
  529loPI   C2A 8456  14.240   1.474   8.065 -0.3749  0.0001  0.0096
  529loPI   C3A 8457  14.060   1.426   7.686 -0.0094 -0.0163 -0.0396
  529loPI   C4A 8458  14.195   1.019   7.387 -0.1604 -0.3739 -0.1876
  529loPI   C5A 8459  14.093   0.881   6.997  0.0403 -0.0124 -0.0289
  529loPI   C6A 8460  13.903   0.744   6.576 -0.0150  0.0630  0.0693
  529loPI   C1B 8461  14.973   1.712   8.591  0.1402 -0.2401 -0.1351
  529loPI   C2B 8462  15.078   1.896   8.255  0.1845  0.3221  0.3457
  529loPI   C3B 8463  14.920   2.009   7.889 -0.2344  0.3516 -0.2631
  529loPI   C4B 8464  14.482   2.219   7.802  0.2669  0.0223  0.0627
  530loPI    C1 8465   8.528  16.866   9.493 -0.0069  0.3049  0.0591
  530loPI    C2 8466   8.444  16.584   9.764 -0.1031  0.1287 -0.1513
  530loPI    C3 8467   8.824  16.691   9.697 -0.0821  0.2069  0.0849
  530loPI   PO4 8468   8.214  16.975   9.605 -0.0434 -0.0348 -0.2148
  530loPI   GL1 8469   7.797  17.089   9.354 -0.1135 -0.2516 -0.0729
  530loPI   GL2 8470   7.666  16.823   9.338 -0.1135  0.2127  0.0060
  530loPI   C1A 8471   7.793  17.404   8.925 -0.2813 -0.0154 -0.2808
  530loPI   C2A 8472   7.715  17.579   8.539  0.6424  0.0443  0.3312
  530loPI   C3A 8473   7.563  17.584   8.053  0.1675  0.0468  0.0881
  530loPI   C4A 8474   7.349  17.654   7.695  0.2909 -0.2107  0.0554
  530loPI   C5A 8475   7.230  17.425   7.401 -0.1177  0.1378 -0.0972
  530loPI   C6A 8476   7.405  17.318   7.009  0.1128 -0.0452  0.1238
  530loPI   C1B 8477   7.459  17.062   8.929 -0.1395 -0.3874 -0.1929
  530loPI   C2B 8478   7.360  17.191   8.507 -0.1660 -0.0265  0.1829
  530loPI   C3B 8479   7.232  17.131   8.087 -0.0461 -0.2830 -0.0112
  530loPI   C4B 8480   7.162  16.912   7.668  0.1320  0.0183  0.2791
  531loPI    C1 8481  10.034   5.861   9.887  0.0500 -0.1314  0.1605
  531loPI    C2 8482   9.942   6.249   9.923  0.1579 -0.0775 -0.1181
  531loPI    C3 8483  10.026   6.032  10.249 -0.0518  0.0946  0.0534
  531loPI   PO4 8484   9.912   5.786   9.695  0.3000 -0.1549 -0.2706
  531loPI   GL1 8485   9.732   5.612   9.303 -0.1661 -0.0171  0.1241
  531loPI   GL2 8486  10.010   5.481   9.142 -0.0631  0.2065 -0.2340
  531loPI   C1A 8487   9.401   5.367   9.072 -0.0337  0.1864 -0.1289
  531loPI   C2A 8488   9.366   5.010   8.796  0.0398 -0.2199  0.1599
  531loPI   C3A 8489   9.293   4.969   8.320 -0.0230 -0.0936  0.1354
  531loPI   C4A 8490   9.404   5.138   7.865  0.1739 -0.2019 -0.0905
  531loPI   C5A 8491   9.755   5.185   7.477  0.1452  0.1818 -0.0778
  531loPI   C6A 8492  10.059   5.086   7.209 -0.1742 -0.1260  0.0220
  531loPI   C1B 8493   9.838   5.310   8.857 -0.0150  0.3725 -0.1055
  531loPI   C2B 8494   9.801   4.928   8.565  0.1906  0.0939 -0.0258
  531loPI   C3B 8495   9.766   4.949   8.122 -0.3440  0.1585  0.1890
  531loPI   C4B 8496   9.708   4.747   7.718 -0.0509  0.0926 -0.1389
  532loPI    C1 8497  18.819   2.098   9.631 -0.0250 -0.0742 -0.0513
  532loPI    C2 8498  19.074   2.344   9.819  0.1133 -0.0918 -0.2140
  532loPI    C3 8499  18.682   2.423   9.820  0.1368  0.0242 -0.1007
  532loPI   PO4 8500  18.976   2.009   9.423 -0.1786  0.0080 -0.0102
  532loPI   GL1 8501  18.938   1.790   9.071 -0.3232  0.0763  0.0933
  532loPI   GL2 8502  19.043   2.031   8.895  0.0054 -0.1091  0.1894
  532loPI   C1A 8503  18.606   1.713   8.862 -0.1348 -0.0733  0.2506
  532loPI   C2A 8504  18.399   1.706   8.543  0.2460  0.0985 -0.0307
  532loPI   C3A 8505  18.220   1.704   8.172 -0.2082  0.2043 -0.0209
  532loPI   C4A 8506  18.339   1.492   7.767 -0.0179 -0.0534  0.2325
  532loPI   C5A 8507  18.299   1.402   7.370  0.0762 -0.3788 -0.1312
  532loPI   C6A 8508  17.938   1.518   6.992  0.0708  0.0491  0.2043
  532loPI   C1B 8509  18.744   2.113   8.615 -0.2784 -0.1835 -0.2443
  532loPI   C2B 8510  18.512   2.112   8.285  0.1692 -0.3568 -0.0315
  532loPI   C3B 8511  18.337   2.131   7.900  0.2556 -0.1800 -0.1102
  532loPI   C4B 8512  18.301   1.949   7.483  0.2612 -0.2959 -0.1041
  533loPI    C1 8513   2.642  14.267  10.153  0.3250 -0.1188 -0.0529
  533loPI    C2 8514   2.354  13.991  10.184 -0.0001  0.1771 -0.3415
  533loPI    C3 8515   2.582  14.079  10.501 -0.2362 -0.0505 -0.1036
  533loPI   PO4 8516   2.694  14.243   9.872 -0.0333  0.1947  0.0234
  533loPI   GL1 8517   2.956  14.129   9.513  0.3963  0.1123 -0.0186
  533loPI   GL2 8518   3.058  14.535   9.622 -0.4437 -0.1910  0.1171
  533loPI   C1A 8519   2.949  14.111   9.089 -0.0440  0.3540 -0.2934
  533loPI   C2A 8520   2.942  14.172   8.670  0.0112 -0.4228 -0.3513
  533loPI   C3A 8521   3.073  14.151   8.253 -0.1503 -0.1275  0.0881
  533loPI   C4A 8522   3.188  14.274   7.873 -0.0506 -0.4629 -0.1752
  533loPI   C5A 8523   3.559  14.175   7.797  0.0032  0.1705  0.0319
  533loPI   C6A 8524   3.926  14.433   7.644  0.0280 -0.3552  0.0249
  533loPI   C1B 8525   3.186  14.644   9.138  0.1820  0.0130 -0.1978
  533loPI   C2B 8526   3.377  14.740   8.694 -0.2747  0.2231 -0.1608
  533loPI   C3B 8527   3.791  14.959   8.549 -0.2541  0.2098  0.0511
  533loPI   C4B 8528   4.262  15.130   8.505 -0.0023 -0.0012  0.4060
  534loPI    C1 8529   5.862   1.255   9.920 -0.1565 -0.1737  0.0410
  534loPI    C2 8530   6.237   1.174  10.033 -0.1477 -0.1375  0.0382
  534loPI    C3 8531   6.109   1.553  10.022 -0.1080 -0.1297 -0.2000
  534loPI   PO4 8532   5.876   1.046   9.703  0.2735  0.1170 -0.0432
  534loPI   GL1 8533   5.967   0.701   9.351 -0.1352  0.2904 -0.3598
  534loPI   GL2 8534   5.774   0.954   9.221 -0.0879  0.1228  0.0677
  534loPI   C1A 8535   6.085   0.394   9.186  0.0318  0.1576  0.1111
  534loPI   C2A 8536   6.256   0.344   8.816  0.1794 -0.3578 -0.1593
  534loPI   C3A 8537   6.468   0.598   8.519 -0.0981 -0.0231  0.0502
  534loPI   C4A 8538   6.406   0.701   8.125 -0.0324  0.0531  0.1610
  534loPI   C5A 8539   6.484   0.633   7.670  0.1492  0.2064 -0.0507
  534loPI   C6A 8540   6.760   0.643   7.308  0.1381  0.3153 -0.1677
  534loPI   C1B 8541   5.596   0.569   9.040 -0.0336  0.1091 -0.1686
  534loPI   C2B 8542   5.769   0.411   8.731 -0.2867 -0.0163 -0.2293
  534loPI   C3B 8543   6.027   0.469   8.342 -0.0292  0.3301  0.0534
  534loPI   C4B 8544   6.072   0.424   7.930 -0.0499  0.2594  0.4112
  535loPI    C1 8545   3.533  11.685  10.432  0.2506 -0.2470  0.0145
  535loPI    C2 8546   3.445  11.772  10.812  0.0607 -0.0722 -0.0674
  535loPI    C3 8547   3.586  12.057  10.569  0.0369 -0.1462 -0.1684
  535loPI   PO4 8548   3.490  11.455  10.382  0.1255 -0.0593 -0.1457
  535loPI   GL1 8549   3.273  11.331   9.993 -0.0731  0.1112 -0.1079
  535loPI   GL2 8550   3.524  11.344   9.737 -0.0357  0.1675  0.0562
  535loPI   C1A 8551   3.039  11.217   9.587 -0.1778 -0.0238  0.2963
  535loPI   C2A 8552   3.090  11.327   9.201  0.3482 -0.1158 -0.1732
  535loPI   C3A 8553   3.056  11.278   8.673  0.0127 -0.3952 -0.1946
  535loPI   C4A 8554   3.057  11.224   8.171 -0.0565 -0.1199 -0.3043
  535loPI   C5A 8555   3.186  11.132   7.831 -0.2308 -0.1967 -0.0377
  535loPI   C6A 8556   3.247  10.877   7.474  0.3317 -0.1933  0.1095
  535loPI   C1B 8557   3.621  11.405   9.300 -0.0594 -0.0751  0.2432
  535loPI   C2B 8558   3.575  11.503   8.854 -0.4061 -0.1142 -0.0033
  535loPI   C3B 8559   3.491  11.465   8.383  0.2836 -0.1759 -0.0848
  535loPI   C4B 8560   3.290  11.595   7.938  0.0635 -0.2675 -0.1694
  536loPI    C1 8561   4.485  16.533   9.924 -0.0435 -0.1908  0.1351
  536loPI    C2 8562   4.405  16.292  10.233 -0.0331 -0.0888  0.2179
  536loPI    C3 8563   4.626  16.621  10.287 -0.0001 -0.0900  0.0942
  536loPI   PO4 8564   4.440  16.509   9.768  0.3504  0.2345 -0.2777
  536loPI   GL1 8565   4.295  16.501   9.342  0.0126 -0.0322  0.1054
  536loPI   GL2 8566   4.473  16.188   9.387 -0.0701 -0.0544 -0.0388
  536loPI   C1A 8567   4.014  16.426   8.911 -0.3961 -0.0150 -0.1094
  536loPI   C2A 8568   4.159  16.552   8.426  0.0935  0.4586 -0.0110
  536loPI   C3A 8569   4.178  16.800   8.018  0.0437 -0.1963 -0.1145
  536loPI   C4A 8570   4.500  17.039   7.743 -0.0029  0.2128 -0.3839
  536loPI   C5A 8571   4.704  17.324   7.473 -0.0052  0.0124 -0.2013
  536loPI   C6A 8572   4.916  17.571   7.181 -0.2711  0.0977 -0.0537
  536loPI   C1B 8573   4.376  16.046   8.924 -0.2558 -0.2582  0.2706
  536loPI   C2B 8574   4.301  16.005   8.550 -0.0612  0.2467  0.1203
  536loPI   C3B 8575   4.306  15.954   8.087 -0.1313 -0.3344  0.2883
  536loPI   C4B 8576   4.337  15.802   7.629 -0.0629  0.3961  0.0407
  537loPI    C1 8577   9.032   0.509   9.625  0.0309 -0.0177 -0.0430
  537loPI    C2 8578   9.057   0.752   9.307  0.3639  0.1629  0.1160
  537loPI    C3 8579   8.977   0.903   9.669  0.4153  0.0154  0.1902
  537loPI   PO4 8580   8.954   0.265   9.512 -0.1442  0.0397 -0.1658
  537loPI   GL1 8581   8.796   0.363   9.070  0.0802 -0.0263 -0.1451
  537loPI   GL2 8582   8.491   0.219   8.980  0.2970  0.1976 -0.3039
  537loPI   C1A 8583   8.847   0.724   8.766 -0.1983  0.1173  0.1735
  537loPI   C2A 8584   8.941   0.943   8.384 -0.1760 -0.0387 -0.1110
  537loPI   C3A 8585   8.895   0.967   7.983 -0.3880  0.3824 -0.2562
  537loPI   C4A 8586   9.066   1.168   7.689  0.0234  0.1679 -0.1218
  537loPI   C5A 8587   9.232   1.082   7.323  0.0094 -0.3894  0.1921
  537loPI   C6A 8588   9.614   0.937   7.179 -0.2948  0.2236 -0.0090
  537loPI   C1B 8589   8.613   0.098   8.612 -0.1236 -0.2577 -0.0308
  537loPI   C2B 8590   8.768  -0.082   8.247  0.0830 -0.2154 -0.0886
  537loPI   C3B 8591   9.122  -0.208   8.079 -0.0355  0.1834 -0.2677
  537loPI   C4B 8592   9.304  -0.335   7.674 -0.0872 -0.1757 -0.0334
  538loPI    C1 8593  12.075   8.342   9.926  0.0574 -0.0560 -0.1668
  538loPI    C2 8594  11.821   8.374   9.618  0.0905  0.0598 -0.1825
  538loPI    C3 8595  11.695   8.452   9.990  0.1325  0.2328 -0.2036
  538loPI   PO4 8596  12.284   8.434   9.748 -0.1968 -0.3274  0.1154
  538loPI   GL1 8597  12.246   8.548   9.278 -0.1246  0.3091  0.3947
  538loPI   GL2 8598  12.460   8.264   9.289  0.2314 -0.1316  0.1019
  538loPI   C1A 8599  12.158   8.404   8.781  0.0901  0.2642 -0.0464
  538loPI   C2A 8600  11.961   8.689   8.494  0.1661 -0.0182 -0.2764
  538loPI   C3A 8601  12.065   9.022   8.154  0.3670  0.1063 -0.0657
  538loPI   C4A 8602  12.250   9.032   7.762  0.3127 -0.0331  0.3672
  538loPI   C5A 8603  12.129   8.714   7.411 -0.2345  0.1812 -0.0952
  538loPI   C6A 8604  12.373   8.409   7.233  0.4096  0.1680 -0.2843
  538loPI   C1B 8605  12.570   8.656   8.948 -0.0547 -0.1504  0.1783
  538loPI   C2B 8606  12.430   8.747   8.570  0.1683 -0.1672 -0.2442
  538loPI   C3B 8607  12.540   9.065   8.222  0.0235 -0.2162 -0.2505
  538loPI   C4B 8608  12.743   9.115   7.798  0.0485 -0.1079  0.0746
  539loPI    C1 8609  14.806   2.540   9.490 -0.1564  0.1971 -0.2219
  539loPI    C2 8610  14.921   2.688   9.844  0.2007 -0.2470 -0.1427
  539loPI    C3 8611  14.580   2.481   9.815  0.0678 -0.0366 -0.1046
  539loPI   PO4 8612  14.806   2.705   9.328 -0.1204 -0.0478  0.1054
  539loPI   GL1 8613  14.861   3.011   9.021 -0.0838 -0.1318  0.0183
  539loPI   GL2 8614  14.668   3.138   9.137  0.2798  0.1506  0.0757
  539loPI   C1A 8615  14.816   3.149   8.562  0.4232  0.2695 -0.1684
  539loPI   C2A 8616  14.677   3.362   8.280 -0.1507  0.0143  0.2579
  539loPI   C3A 8617  14.922   3.484   7.872  0.3202  0.0858  0.2415
  539loPI   C4A 8618  15.200   3.508   7.492  0.2515 -0.0325  0.3651
  539loPI   C5A 8619  15.442   3.489   7.144 -0.2085  0.3950 -0.1397
  539loPI   C6A 8620  15.711   3.198   6.984 -0.0166  0.2725  0.0798
  539loPI   C1B 8621  14.664   3.560   8.821 -0.2048 -0.1350  0.2847
  539loPI   C2B 8622  14.777   3.853   8.446 -0.2995 -0.1114 -0.0724
  539loPI   C3B 8623  14.875   3.942   8.059  0.0045  0.1771  0.1016
  539loPI   C4B 8624  14.724   3.997   7.728  0.0388  0.1678  0.0765
  540loPI    C1 8625  13.763   2.118   9.444  0.0924 -0.2684 -0.0638
  540loPI    C2 8626  13.378   2.011   9.464  0.1413 -0.4343  0.0076
  540loPI    C3 8627  13.563   2.153   9.789 -0.0355  0.2756 -0.1823
  540loPI   PO4 8628  13.743   2.115   9.139  0.1159  0.2604  0.1916
  540loPI   GL1 8629  14.087   2.112   8.813  0.2806 -0.1301 -0.0657
  540loPI   GL2 8630  13.896   1.792   8.722  0.1928 -0.1015  0.2066
  540loPI   C1A 8631  14.225   2.031   8.394 -0.3586 -0.2112  0.2418
  540loPI   C2A 8632  14.575   1.906   8.288  0.0589  0.2159  0.1797
  540loPI   C3A 8633  14.758   2.278   8.268 -0.0184  0.0281  0.3757
  540loPI   C4A 8634  14.882   2.509   7.692  0.2349  0.1577 -0.2027
  540loPI   C5A 8635  14.681   2.412   7.364 -0.3416 -0.2766  0.2522
  540loPI   C6A 8636  14.841   1.967   7.305  0.0434 -0.0638 -0.0763
  540loPI   C1B 8637  13.872   1.713   8.181 -0.0283  0.4181  0.1026
  540loPI   C2B 8638  13.636   1.739   7.750  0.1663 -0.1691 -0.2282
  540loPI   C3B 8639  13.679   1.624   7.372 -0.1045  0.1171 -0.0291
  540loPI   C4B 8640  13.940   1.339   7.096 -0.1258 -0.1343 -0.0610
  541loPI    C1 8641  17.011   8.223  10.092  0.0936 -0.3425  0.1752
  541loPI    C2 8642  17.318   8.378  10.295  0.0805 -0.2786  0.1471
  541loPI    C3 8643  16.945   8.420  10.433  0.0228  0.1748 -0.1262
  541loPI   PO4 8644  17.125   8.044   9.963  0.1332  0.0561 -0.3423
  541loPI   GL1 8645  16.911   7.743   9.815 -0.1395 -0.0093  0.0631
  541loPI   GL2 8646  17.133   7.526   9.821  0.1252  0.3023 -0.2831
  541loPI   C1A 8647  16.843   7.650   9.427 -0.2141  0.0553 -0.1231
  541loPI   C2A 8648  16.630   7.505   9.077 -0.0789 -0.1063 -0.0953
  541loPI   C3A 8649  16.429   7.425   8.670 -0.1327  0.2017 -0.2468
  541loPI   C4A 8650  16.370   7.213   8.355  0.0646  0.1747  0.0370
  541loPI   C5A 8651  16.270   6.953   7.943 -0.2271 -0.2733 -0.1699
  541loPI   C6A 8652  16.313   6.979   7.464 -0.3321  0.1404 -0.2184
  541loPI   C1B 8653  17.297   7.514   9.469 -0.0925  0.1458  0.0391
  541loPI   C2B 8654  17.359   7.438   9.027 -0.0473  0.0988  0.3189
  541loPI   C3B 8655  17.340   7.448   8.514  0.1570 -0.1367  0.1952
  541loPI   C4B 8656  17.204   7.622   8.081  0.1271 -0.4364  0.1712
  542loPI    C1 8657   3.572   2.656   9.506  0.0121 -0.0195  0.0389
  542loPI    C2 8658   3.439   2.813   9.849 -0.2246 -0.1105 -0.0094
  542loPI    C3 8659   3.448   2.416   9.801  0.1601 -0.1104  0.0283
  542loPI   PO4 8660   3.461   2.847   9.333  0.1839  0.1908 -0.0829
  542loPI   GL1 8661   3.685   2.865   8.993  0.2402 -0.1229  0.2637
  542loPI   GL2 8662   3.382   2.956   8.882  0.3785  0.0050  0.0979
  542loPI   C1A 8663   3.845   2.933   8.565 -0.0228 -0.1829  0.0665
  542loPI   C2A 8664   3.951   2.917   8.136 -0.0393  0.1065 -0.2038
  542loPI   C3A 8665   3.857   3.083   7.756 -0.1753 -0.1552  0.1230
  542loPI   C4A 8666   3.575   3.190   7.474 -0.1003  0.0815 -0.5266
  542loPI   C5A 8667   3.133   3.273   7.410  0.3414 -0.0287 -0.0457
  542loPI   C6A 8668   2.722   3.022   7.564 -0.0214 -0.0063 -0.0317
  542loPI   C1B 8669   3.522   3.305   8.640  0.0887  0.0312  0.0560
  542loPI   C2B 8670   3.502   3.622   8.295  0.0984 -0.1933 -0.0401
  542loPI   C3B 8671   3.605   3.560   7.851  0.2747 -0.0227  0.2948
  542loPI   C4B 8672   3.934   3.533   7.503 -0.0795 -0.0339 -0.1627
  543loPI    C1 8673  17.360   9.764   9.622  0.0635 -0.1782  0.1352
  543loPI    C2 8674  17.449   9.665   9.999  0.0499 -0.1486  0.1461
  543loPI    C3 8675  17.303   9.389   9.749  0.1648 -0.1954  0.1304
  543loPI   PO4 8676  17.272  10.066   9.688 -0.1019 -0.0763 -0.1045
  543loPI   GL1 8677  17.195  10.111   9.251  0.1734 -0.1899 -0.0245
  543loPI   GL2 8678  17.214  10.376   9.072 -0.2761 -0.2261  0.1993
  543loPI   C1A 8679  17.253   9.775   8.974  0.0658  0.2303  0.3653
  543loPI   C2A 8680  17.252   9.784   8.469 -0.0387 -0.1179  0.0375
  543loPI   C3A 8681  17.188   9.811   8.075 -0.0192 -0.0043  0.0880
  543loPI   C4A 8682  17.179   9.625   7.785  0.2724 -0.0637 -0.0305
  543loPI   C5A 8683  17.545   9.515   7.689 -0.0922 -0.1672  0.0793
  543loPI   C6A 8684  17.782   9.117   7.479  0.4574  0.1566  0.4448
  543loPI   C1B 8685  17.108  10.220   8.683 -0.1331 -0.0409 -0.0121
  543loPI   C2B 8686  17.276  10.284   8.143  0.0107  0.0471  0.0992
  543loPI   C3B 8687  17.295  10.285   7.727 -0.1141 -0.1417  0.1061
  543loPI   C4B 8688  17.208  10.120   7.343 -0.2047 -0.1432 -0.3550
  544loPI    C1 8689   0.200  15.987   9.645 -0.1257  0.1451  0.1120
  544loPI    C2 8690   0.409  16.150   9.944  0.0217  0.1184  0.0252
  544loPI    C3 8691   0.238  15.792   9.992 -0.0956  0.1877  0.1328
  544loPI   PO4 8692   0.358  16.067   9.471  0.0438  0.3373 -0.0825
  544loPI   GL1 8693   0.418  16.007   9.004 -0.4198 -0.0358  0.2772
  544loPI   GL2 8694   0.317  16.365   8.830  0.1648 -0.1343 -0.1004
  544loPI   C1A 8695   0.777  15.992   8.743  0.2256 -0.0099  0.0649
  544loPI   C2A 8696   1.053  15.900   8.459 -0.2318 -0.0960 -0.2414
  544loPI   C3A 8697   1.191  15.749   8.164 -0.0282  0.1060 -0.0864
  544loPI   C4A 8698   1.511  15.777   7.854 -0.0818 -0.1082 -0.0723
  544loPI   C5A 8699   1.701  16.067   7.538  0.1437 -0.1899 -0.2770
  544loPI   C6A 8700   1.855  16.486   7.552 -0.0586  0.1073  0.1257
  544loPI   C1B 8701   0.141  16.262   8.453  0.0521 -0.0702 -0.2945
  544loPI   C2B 8702  -0.020  16.138   7.997  0.1604  0.1749 -0.1137
  544loPI   C3B 8703   0.028  15.859   7.598 -0.2215 -0.2720 -0.0763
  544loPI   C4B 8704   0.261  15.503   7.483 -0.0846 -0.1151 -0.0727
  545loPI    C1 8705   6.670  13.251  10.242  0.0845  0.2158  0.3310
  545loPI    C2 8706   6.330  13.453  10.302 -0.0108  0.0990  0.1915
  545loPI    C3 8707   6.359  13.072  10.418  0.0936  0.1264  0.2570
  545loPI   PO4 8708   6.741  13.352   9.893 -0.0632  0.2288 -0.0415
  545loPI   GL1 8709   6.671  13.481   9.539  0.1418 -0.1627  0.3031
  545loPI   GL2 8710   6.758  13.833   9.577 -0.0395 -0.1083  0.0063
  545loPI   C1A 8711   6.558  13.491   9.035  0.2011 -0.0891 -0.0553
  545loPI   C2A 8712   6.658  13.441   8.654  0.2474 -0.1956  0.1233
  545loPI   C3A 8713   6.685  13.673   8.216  0.1381 -0.1661 -0.2667
  545loPI   C4A 8714   6.583  13.832   7.865 -0.2753 -0.2583  0.2451
  545loPI   C5A 8715   6.802  13.975   7.493 -0.3997  0.2265  0.2852
  545loPI   C6A 8716   7.104  13.952   7.092  0.0104 -0.1705 -0.0410
  545loPI   C1B 8717   6.578  14.013   9.283 -0.1870  0.0569 -0.2111
  545loPI   C2B 8718   6.473  14.447   8.999 -0.2258  0.0411 -0.1480
  545loPI   C3B 8719   6.150  14.761   8.894  0.0581 -0.0586  0.0700
  545loPI   C4B 8720   5.644  14.863   9.030 -0.1314 -0.1805  0.1230
  546loPI    C1 8721   9.370   2.811  10.124 -0.1191  0.0506 -0.1168
  546loPI    C2 8722   9.141   2.493  10.043 -0.1227  0.0322 -0.0358
  546loPI    C3 8723   9.383   2.489  10.361 -0.1513  0.1258 -0.0125
  546loPI   PO4 8724   9.231   3.038  10.007 -0.2570  0.4189  0.0080
  546loPI   GL1 8725   9.155   3.201   9.633  0.0944  0.2703  0.1276
  546loPI   GL2 8726   9.352   3.445   9.590  0.0344 -0.1272  0.2478
  546loPI   C1A 8727   9.345   3.106   9.226 -0.3324  0.0961 -0.1430
  546loPI   C2A 8728   9.306   3.063   8.910 -0.2750 -0.1751  0.1123
  546loPI   C3A 8729   9.340   3.198   8.457 -0.2497  0.2106  0.0292
  546loPI   C4A 8730   9.391   3.170   8.035  0.0175  0.0746  0.1929
  546loPI   C5A 8731   9.516   3.262   7.672 -0.0548 -0.0606 -0.0100
  546loPI   C6A 8732   9.617   3.158   7.308  0.0568 -0.2366 -0.1593
  546loPI   C1B 8733   9.337   3.563   9.084  0.0258 -0.0442  0.0656
  546loPI   C2B 8734   9.327   3.761   8.677  0.0352  0.1326  0.1035
  546loPI   C3B 8735   9.364   4.035   8.338  0.1117  0.0642 -0.0282
  546loPI   C4B 8736   9.522   3.654   8.078 -0.2407  0.0787  0.4220
  547loPI    C1 8737   7.516   1.183   9.832  0.0470  0.0350 -0.3278
  547loPI    C2 8738   7.908   1.260   9.846  0.0043  0.2023  0.1599
  547loPI    C3 8739   7.750   0.983  10.088 -0.1661  0.0596 -0.1098
  547loPI   PO4 8740   7.502   1.298   9.547  0.2067  0.2799  0.2982
  547loPI   GL1 8741   7.581   1.220   9.116 -0.0465 -0.0307 -0.0529
  547loPI   GL2 8742   7.763   1.346   9.002 -0.1421 -0.0867 -0.0139
  547loPI   C1A 8743   7.381   1.107   8.806 -0.0216 -0.1968 -0.4593
  547loPI   C2A 8744   7.148   1.184   8.399 -0.0625 -0.2696 -0.0124
  547loPI   C3A 8745   6.850   0.985   8.141  0.0516 -0.1191  0.0341
  547loPI   C4A 8746   6.644   1.085   7.816 -0.0036  0.0589  0.0348
  547loPI   C5A 8747   6.342   1.468   7.520 -0.0957 -0.0405  0.1423
  547loPI   C6A 8748   6.305   1.862   7.316 -0.0167 -0.2130  0.2355
  547loPI   C1B 8749   7.494   1.616   8.845 -0.1453  0.1046 -0.0482
  547loPI   C2B 8750   7.477   1.690   8.504 -0.1520 -0.1275  0.0818
  547loPI   C3B 8751   7.252   1.604   8.208  0.0653 -0.3074  0.1796
  547loPI   C4B 8752   7.088   1.686   7.815 -0.2628 -0.2080 -0.2905
  548loPI    C1 8753   1.259   5.904   9.817 -0.1591  0.4102 -0.1657
  548loPI    C2 8754   0.918   6.012   9.994 -0.1920 -0.1130  0.1090
  548loPI    C3 8755   1.240   5.929  10.216  0.0583  0.1741 -0.1384
  548loPI   PO4 8756   1.198   6.020   9.572 -0.0690 -0.1747  0.1078
  548loPI   GL1 8757   1.046   6.305   9.477  0.0548 -0.2656 -0.0075
  548loPI   GL2 8758   0.753   6.111   9.465  0.1682 -0.0475 -0.0970
  548loPI   C1A 8759   0.983   6.287   9.022 -0.0090  0.0064  0.0612
  548loPI   C2A 8760   1.058   6.384   8.566  0.0962  0.1242  0.0602
  548loPI   C3A 8761   1.165   6.593   8.098 -0.1252 -0.0487 -0.1635
  548loPI   C4A 8762   1.312   6.696   7.730  0.1858 -0.1383 -0.1565
  548loPI   C5A 8763   1.223   6.985   7.326 -0.0516  0.1377  0.0428
  548loPI   C6A 8764   1.171   7.154   6.923 -0.2846  0.1064  0.1439
  548loPI   C1B 8765   0.574   5.991   9.155 -0.2637 -0.1171 -0.0309
  548loPI   C2B 8766   0.628   5.892   8.731  0.1118 -0.1829 -0.2957
  548loPI   C3B 8767   0.738   6.070   8.430  0.0355  0.0212 -0.0985
  548loPI   C4B 8768   0.757   6.348   8.216  0.1033 -0.0485 -0.1949
  549loPI    C1 8769   9.700   6.686   9.881 -0.0858 -0.0768 -0.3387
  549loPI    C2 8770  10.017   6.681   9.637  0.1323  0.0265 -0.0633
  549loPI    C3 8771  10.063   6.776  10.023 -0.2812  0.3406 -0.0841
  549loPI   PO4 8772   9.542   6.532   9.767 -0.0696  0.5145 -0.0592
  549loPI   GL1 8773   9.656   6.234   9.431 -0.5913  0.1398  0.1450
  549loPI   GL2 8774   9.502   6.522   9.260 -0.1233  0.1345 -0.2482
  549loPI   C1A 8775   9.901   6.063   9.073  0.2341 -0.2146  0.1853
  549loPI   C2A 8776   9.995   5.812   8.814 -0.0282 -0.2708 -0.2000
  549loPI   C3A 8777  10.098   5.605   8.482 -0.0848  0.0814 -0.0481
  549loPI   C4A 8778  10.201   5.321   8.114  0.1427  0.0897 -0.2912
  549loPI   C5A 8779  10.156   4.987   7.723 -0.2386  0.1247  0.0425
  549loPI   C6A 8780  10.186   4.640   7.402 -0.0251  0.0586  0.0981
  549loPI   C1B 8781   9.285   6.722   8.921  0.3509 -0.1660  0.2583
  549loPI   C2B 8782   9.349   6.796   8.572  0.0326 -0.2568  0.1347
  549loPI   C3B 8783   9.382   6.933   8.230 -0.0231 -0.1835 -0.3399
  549loPI   C4B 8784   9.442   7.079   7.868  0.0008  0.0479  0.0068
  550loPI    C1 8785   5.419  15.119  10.115  0.2303 -0.4291  0.3818
  550loPI    C2 8786   5.405  15.301  10.470 -0.0497  0.0003  0.1599
  550loPI    C3 8787   5.084  15.107  10.333  0.0249 -0.0797  0.0974
  550loPI   PO4 8788   5.536  15.285   9.980  0.0219  0.1489  0.2937
  550loPI   GL1 8789   5.597  15.560   9.657 -0.3033 -0.1850 -0.2842
  550loPI   GL2 8790   5.917  15.457   9.726  0.3389 -0.2569 -0.2081
  550loPI   C1A 8791   5.734  15.724   9.334  0.0283 -0.0150 -0.2147
  550loPI   C2A 8792   5.981  15.776   8.968 -0.2047  0.1395  0.1889
  550loPI   C3A 8793   5.955  15.820   8.569 -0.1124 -0.0677 -0.0600
  550loPI   C4A 8794   5.809  15.787   8.161 -0.2981  0.2155 -0.1857
  550loPI   C5A 8795   5.703  15.827   7.733  0.0888 -0.0384  0.0788
  550loPI   C6A 8796   5.911  15.834   7.318 -0.2235 -0.1949  0.3615
  550loPI   C1B 8797   5.937  15.272   9.256 -0.0364  0.3070 -0.0190
  550loPI   C2B 8798   5.957  15.214   8.858 -0.1397  0.1286  0.1792
  550loPI   C3B 8799   5.969  14.793   8.497 -0.0679  0.1032 -0.2427
  550loPI   C4B 8800   6.014  14.471   8.054  0.4474  0.2621 -0.2980
  551loPI    C1 8801   8.548  13.039  10.326  0.2110 -0.0960  0.1312
  551loPI    C2 8802   8.313  12.860  10.595 -0.1385  0.3765  0.1524
  551loPI    C3 8803   8.566  13.147  10.710 -0.0013  0.3041  0.0344
  551loPI   PO4 8804   8.518  12.854  10.150  0.1213  0.0564  0.1360
  551loPI   GL1 8805   8.324  12.942   9.705  0.0756  0.4168 -0.0690
  551loPI   GL2 8806   8.484  13.277   9.467  0.1762  0.2480 -0.0551
  551loPI   C1A 8807   8.601  12.776   9.385 -0.0079 -0.0556  0.3550
  551loPI   C2A 8808   8.860  12.561   9.059 -0.0868  0.1364  0.1890
  551loPI   C3A 8809   9.057  12.382   8.651 -0.0456  0.0307 -0.2753
  551loPI   C4A 8810   9.087  12.116   8.369  0.0612 -0.0328 -0.0001
  551loPI   C5A 8811   9.256  12.084   7.982 -0.2694 -0.1040  0.0936
  551loPI   C6A 8812   9.336  11.962   7.573  0.2553  0.0039 -0.0576
  551loPI   C1B 8813   8.528  13.222   8.972  0.0040 -0.0144  0.0622
  551loPI   C2B 8814   8.716  13.359   8.526  0.1300 -0.2551 -0.2423
  551loPI   C3B 8815   8.940  13.108   8.188 -0.1413 -0.0468 -0.3524
  551loPI   C4B 8816   8.753  12.836   7.883  0.0303 -0.1466  0.1099
  552loPI    C1 8817   3.489   7.534  10.024  0.0494  0.0143  0.0094
  552loPI    C2 8818   3.197   7.606  10.288 -0.0675  0.0466 -0.1268
  552loPI    C3 8819   3.476   7.330  10.368 -0.1014  0.0563  0.0296
  552loPI   PO4 8820   3.357   7.621   9.821 -0.1922 -0.2039 -0.0680
  552loPI   GL1 8821   3.068   7.667   9.488  0.0845 -0.0627  0.1395
  552loPI   GL2 8822   2.996   7.897   9.603  0.3048 -0.2319  0.0654
  552loPI   C1A 8823   3.394   7.695   9.146 -0.1385  0.1028  0.1252
  552loPI   C2A 8824   3.635   7.531   8.835  0.0477 -0.1961 -0.2824
  552loPI   C3A 8825   3.781   7.528   8.471  0.1760  0.0811 -0.1068
  552loPI   C4A 8826   3.865   7.447   8.070 -0.2592  0.0226 -0.0316
  552loPI   C5A 8827   3.768   7.458   7.651  0.1933  0.2757 -0.1628
  552loPI   C6A 8828   4.094   7.392   7.375 -0.2472 -0.4290 -0.4234
  552loPI   C1B 8829   2.951   8.175   9.403 -0.0069 -0.2353  0.2058
  552loPI   C2B 8830   3.115   8.529   9.273  0.3022  0.3015  0.0149
  552loPI   C3B 8831   3.188   8.961   8.995 -0.0090  0.2302 -0.0177
  552loPI   C4B 8832   3.032   9.353   8.901  0.2614  0.0034 -0.1226
  553loPI    C1 8833  18.683  15.395   9.385 -0.0209 -0.0966  0.0345
  553loPI    C2 8834  18.390  15.133   9.461  0.1851 -0.3185  0.0728
  553loPI    C3 8835  18.672  15.204   9.736 -0.0508  0.1921  0.1940
  553loPI   PO4 8836  18.727  15.354   9.177 -0.2796  0.0383 -0.0708
  553loPI   GL1 8837  18.998  15.060   8.887 -0.2417  0.2312  0.0239
  553loPI   GL2 8838  19.295  15.361   8.896 -0.0334 -0.0749  0.0192
  553loPI   C1A 8839  18.959  15.347   8.546  0.1585  0.1121  0.2932
  553loPI   C2A 8840  19.059  15.363   8.185 -0.0584  0.3111  0.0809
  553loPI   C3A 8841  19.299  15.449   7.780  0.2294  0.2490 -0.2268
  553loPI   C4A 8842  19.221  15.501   7.335  0.1440  0.1031  0.1722
  553loPI   C5A 8843  19.484  15.291   7.070 -0.1565  0.0167 -0.1501
  553loPI   C6A 8844  19.831  14.982   7.168  0.0554  0.0745 -0.0196
  553loPI   C1B 8845  19.460  15.449   8.468 -0.0664 -0.3109 -0.1438
  553loPI   C2B 8846  19.619  15.694   8.111 -0.0918  0.0559  0.1506
  553loPI   C3B 8847  20.036  15.734   7.935 -0.2155 -0.0131 -0.1349
  553loPI   C4B 8848  20.360  15.975   7.726  0.2114  0.1012  0.1025
  554loPI    C1 8849   4.361  13.844  10.399  0.2700 -0.1667 -0.0553
  554loPI    C2 8850   4.546  14.181  10.509  0.0479 -0.0662  0.0155
  554loPI    C3 8851   4.191  14.086  10.668 -0.0456 -0.1682 -0.2478
  554loPI   PO4 8852   4.369  13.825  10.109 -0.1108  0.0166  0.2019
  554loPI   GL1 8853   4.186  13.763   9.694 -0.0321 -0.0864 -0.0947
  554loPI   GL2 8854   4.207  13.470   9.776  0.0082 -0.0389 -0.0405
  554loPI   C1A 8855   3.930  14.065   9.449 -0.0169 -0.2773  0.0750
  554loPI   C2A 8856   3.966  14.137   9.016  0.2574  0.1531 -0.1693
  554loPI   C3A 8857   4.177  14.023   8.642  0.1425 -0.2281 -0.2968
  554loPI   C4A 8858   4.404  14.204   8.431 -0.0739  0.2829  0.0415
  554loPI   C5A 8859   4.731  14.312   8.136  0.1132 -0.1879 -0.0686
  554loPI   C6A 8860   4.809  14.650   7.824 -0.0572  0.1888  0.1021
  554loPI   C1B 8861   4.404  13.636   9.309 -0.1316 -0.0572 -0.3183
  554loPI   C2B 8862   4.330  13.623   8.918  0.1380 -0.3419 -0.0623
  554loPI   C3B 8863   4.554  13.622   8.546 -0.2056  0.1361 -0.1328
  554loPI   C4B 8864   4.749  13.815   8.216  0.1911 -0.1173  0.0707
  555loPI    C1 8865   0.649   8.598   9.963 -0.2161  0.0403 -0.1699
  555loPI    C2 8866   0.468   8.934  10.081 -0.1131 -0.0375  0.2243
  555loPI    C3 8867   0.373   8.586  10.252  0.2253 -0.1165  0.2596
  555loPI   PO4 8868   0.597   8.633   9.668 -0.3371  0.3808  0.3767
  555loPI   GL1 8869   0.682   8.448   9.273  0.1465 -0.1070  0.1622
  555loPI   GL2 8870   0.803   8.837   9.227 -0.1251  0.0350  0.0937
  555loPI   C1A 8871   0.685   8.380   8.811  0.0214  0.0850  0.0186
  555loPI   C2A 8872   0.646   8.316   8.436 -0.1490  0.2569 -0.2375
  555loPI   C3A 8873   0.626   7.984   8.151 -0.0381  0.1187  0.2277
  555loPI   C4A 8874   0.843   7.610   8.129  0.2242  0.0339 -0.0091
  555loPI   C5A 8875   0.703   7.307   8.445  0.0707  0.0850  0.2107
  555loPI   C6A 8876   0.869   6.846   8.566 -0.0520 -0.2062 -0.2084
  555loPI   C1B 8877   0.909   8.921   8.800  0.0859  0.1440  0.2373
  555loPI   C2B 8878   0.733   8.827   8.351 -0.2110  0.1580  0.0834
  555loPI   C3B 8879   0.661   8.858   7.865  0.2724  0.0894  0.4488
  555loPI   C4B 8880   0.518   8.632   7.509  0.0546  0.0120 -0.0089
  556loPI    C1 8881  13.000   2.551   9.643  0.1064  0.0781  0.0056
  556loPI    C2 8882  13.067   2.212   9.845 -0.1781  0.0955  0.1338
  556loPI    C3 8883  13.092   2.565  10.032  0.0451  0.1422  0.0181
  556loPI   PO4 8884  13.184   2.559   9.479 -0.1412  0.2730 -0.0943
  556loPI   GL1 8885  13.166   2.667   9.104 -0.0900 -0.3413 -0.0029
  556loPI   GL2 8886  13.148   2.334   8.919 -0.1432 -0.2044 -0.1906
  556loPI   C1A 8887  13.337   2.767   8.685  0.1763  0.0633  0.0176
  556loPI   C2A 8888  13.241   2.828   8.231 -0.1295  0.1705 -0.0136
  556loPI   C3A 8889  13.146   2.617   7.794  0.0874 -0.0994 -0.1397
  556loPI   C4A 8890  13.076   2.417   7.403 -0.0530  0.1861  0.3928
  556loPI   C5A 8891  12.903   2.324   7.090 -0.2551  0.2608  0.0334
  556loPI   C6A 8892  12.872   2.535   6.777  0.0647 -0.2985 -0.1653
  556loPI   C1B 8893  13.009   2.457   8.494 -0.1943  0.1085 -0.2259
  556loPI   C2B 8894  12.712   2.612   8.197 -0.2584  0.0279 -0.1060
  556loPI   C3B 8895  12.618   2.788   7.790  0.0708 -0.3492  0.0220
  556loPI   C4B 8896  12.202   2.819   7.499  0.0432  0.0411 -0.0075
  557loPI    C1 8897  13.274  16.747   9.600  0.0378  0.0724  0.0373
  557loPI    C2 8898  12.884  16.665   9.574  0.1032 -0.2055 -0.1130
  557loPI    C3 8899  13.133  16.398   9.737  0.2067  0.0472  0.1498
  557loPI   PO4 8900  13.338  16.822   9.360  0.7593 -0.2201 -0.1290
  557loPI   GL1 8901  13.019  16.681   9.042 -0.4254 -0.0819  0.1932
  557loPI   GL2 8902  12.788  16.530   9.054 -0.1756 -0.1670 -0.0174
  557loPI   C1A 8903  13.160  16.737   8.632 -0.1497 -0.0463 -0.0739
  557loPI   C2A 8904  13.058  16.694   8.242 -0.1084  0.1785 -0.0989
  557loPI   C3A 8905  13.012  16.658   7.784  0.0159 -0.0359 -0.1974
  557loPI   C4A 8906  12.912  16.624   7.355 -0.1139  0.2796 -0.3679
  557loPI   C5A 8907  13.130  16.714   7.026 -0.1465 -0.1824  0.0607
  557loPI   C6A 8908  13.377  16.604   6.653 -0.2547 -0.0887 -0.0290
  557loPI   C1B 8909  12.722  16.436   8.584 -0.0807 -0.0875 -0.1659
  557loPI   C2B 8910  12.728  16.306   8.168 -0.0995 -0.0292  0.3370
  557loPI   C3B 8911  12.576  16.165   7.823  0.0887  0.2925  0.0530
  557loPI   C4B 8912  12.324  15.956   7.477 -0.2610 -0.2056  0.1857
  558loPI    C1 8913   1.151   2.064   9.676  0.0421 -0.1408 -0.0343
  558loPI    C2 8914   1.374   1.780   9.505  0.2967  0.0612 -0.0436
  558loPI    C3 8915   1.315   1.777   9.900  0.3313  0.0180 -0.0388
  558loPI   PO4 8916   1.289   2.356   9.558 -0.2703  0.6847 -0.0422
  558loPI   GL1 8917   1.259   2.492   9.132  0.0202 -0.2323 -0.0602
  558loPI   GL2 8918   1.193   2.073   9.153  0.1381  0.2775  0.2678
  558loPI   C1A 8919   1.468   2.409   8.676 -0.2310  0.0950 -0.1463
  558loPI   C2A 8920   1.513   2.435   8.269  0.0431 -0.0553 -0.0371
  558loPI   C3A 8921   1.371   2.558   7.913 -0.1331 -0.0849 -0.0288
  558loPI   C4A 8922   1.341   2.726   7.494  0.1312 -0.2759 -0.0373
  558loPI   C5A 8923   1.024   2.476   7.249 -0.1363 -0.0962  0.1616
  558loPI   C6A 8924   0.751   2.291   7.245  0.0090 -0.0595  0.1508
  558loPI   C1B 8925   1.083   2.101   8.678 -0.0007 -0.0014  0.1767
  558loPI   C2B 8926   0.686   2.151   8.360 -0.1876 -0.0556 -0.0779
  558loPI   C3B 8927   0.616   2.099   7.874  0.2043 -0.1829  0.1376
  558loPI   C4B 8928   0.351   1.958   7.488  0.0598  0.3765  0.1938
  559loPI    C1 8929   0.086   0.291   9.640  0.1069  0.1113  0.0685
  559loPI    C2 8930   0.092   0.540   9.954  0.0135 -0.1389  0.2718
  559loPI    C3 8931   0.379   0.264   9.912  0.0220 -0.1103  0.1397
  559loPI   PO4 8932   0.003   0.513   9.439 -0.0736 -0.3012  0.0726
  559loPI   GL1 8933   0.369   0.650   9.065  0.0204 -0.0971 -0.0385
  559loPI   GL2 8934   0.206   0.893   9.183 -0.0125 -0.0129 -0.0390
  559loPI   C1A 8935   0.502   0.470   8.662 -0.1254  0.0344 -0.0264
  559loPI   C2A 8936   0.662   0.285   8.269 -0.0041 -0.2102  0.2007
  559loPI   C3A 8937   0.794   0.602   8.150  0.0789 -0.2118 -0.1676
  559loPI   C4A 8938   1.010   0.843   7.919  0.2378 -0.3757  0.2050
  559loPI   C5A 8939   0.995   0.670   7.472  0.1576  0.0957 -0.1147
  559loPI   C6A 8940   1.128   0.537   7.031  0.1737  0.0049 -0.2919
  559loPI   C1B 8941   0.130   1.065   8.789  0.0328 -0.1118  0.2375
  559loPI   C2B 8942   0.031   1.225   8.391 -0.0565 -0.0085  0.0648
  559loPI   C3B 8943   0.107   1.411   7.996  0.0589 -0.4264  0.2732
  559loPI   C4B 8944   0.410   1.423   7.637  0.0188 -0.0027 -0.2027
  560loPI    C1 8945   7.272  10.955  10.467  0.0798 -0.2820  0.1742
  560loPI    C2 8946   7.633  11.071  10.338 -0.0175 -0.1139  0.0476
  560loPI    C3 8947   7.467  11.249  10.656 -0.0211 -0.1394  0.0601
  560loPI   PO4 8948   7.140  10.982  10.112 -0.0310 -0.0954 -0.0298
  560loPI   GL1 8949   6.880  11.075   9.679 -0.0754  0.1159  0.1294
  560loPI   GL2 8950   6.663  11.017   9.889 -0.1081 -0.0780 -0.2076
  560loPI   C1A 8951   7.020  10.693   9.478 -0.1445 -0.0968 -0.1480
  560loPI   C2A 8952   7.383  10.381   9.383  0.2285 -0.0997  0.2542
  560loPI   C3A 8953   7.679  10.354   9.012 -0.1447  0.0783  0.0740
  560loPI   C4A 8954   7.801  10.271   8.552 -0.0569  0.0020  0.0644
  560loPI   C5A 8955   7.748  10.054   8.226 -0.1889 -0.0071  0.0776
  560loPI   C6A 8956   7.726   9.997   7.857 -0.2795 -0.2748 -0.0887
  560loPI   C1B 8957   6.508  10.961   9.389  0.1432 -0.2253  0.1367
  560loPI   C2B 8958   6.580  10.607   9.063  0.1356 -0.1296  0.1073
  560loPI   C3B 8959   6.522  10.593   8.599  0.0246  0.0907  0.0614
  560loPI   C4B 8960   6.526  10.714   8.143 -0.2187  0.0914  0.4472
  561loPI    C1 8961  14.138  13.306   9.543 -0.0354 -0.0008  0.0779
  561loPI    C2 8962  14.045  13.626   9.322  0.1328 -0.1077 -0.1517
  561loPI    C3 8963  13.754  13.394   9.470  0.0147  0.0603 -0.1173
  561loPI   PO4 8964  14.344  13.150   9.391 -0.0611  0.1722 -0.4086
  561loPI   GL1 8965  14.422  13.161   8.974  0.0020 -0.0269 -0.1255
  561loPI   GL2 8966  14.324  13.496   8.970  0.0354 -0.2484  0.0852
  561loPI   C1A 8967  14.435  12.747   8.734 -0.3166 -0.0074 -0.2140
  561loPI   C2A 8968  14.620  12.696   8.401  0.2279  0.0129 -0.2159
  561loPI   C3A 8969  14.811  12.678   8.005 -0.0934  0.1276 -0.2000
  561loPI   C4A 8970  14.853  12.616   7.616  0.0696 -0.0571 -0.0367
  561loPI   C5A 8971  15.120  12.617   7.362  0.3147  0.1064  0.3123
  561loPI   C6A 8972  15.113  12.811   7.006 -0.0110  0.1628 -0.1007
  561loPI   C1B 8973  14.236  13.410   8.576 -0.1105 -0.0687  0.0350
  561loPI   C2B 8974  14.083  13.394   8.147  0.0399 -0.1593 -0.2053
  561loPI   C3B 8975  14.188  13.415   7.723  0.1219 -0.1998  0.2293
  561loPI   C4B 8976  14.469  13.545   7.443  0.0789  0.1579  0.2470
  562loPI    C1 8977  16.448   2.108   9.710  0.2632 -0.4270 -0.0092
  562loPI    C2 8978  16.123   2.105   9.943  0.3244 -0.0112  0.0884
  562loPI    C3 8979  16.486   2.066  10.106  0.3428 -0.1611  0.0130
  562loPI   PO4 8980  16.395   2.259   9.559  0.2267 -0.0547 -0.1765
  562loPI   GL1 8981  16.470   2.381   9.168  0.1812 -0.2265 -0.0092
  562loPI   GL2 8982  16.130   2.596   9.148  0.2074  0.0807  0.2786
  562loPI   C1A 8983  16.413   2.029   8.866  0.1414  0.0953  0.0706
  562loPI   C2A 8984  16.380   2.018   8.476 -0.2584  0.2130  0.1841
  562loPI   C3A 8985  16.464   2.064   8.055 -0.1612 -0.1722  0.0481
  562loPI   C4A 8986  16.587   1.656   7.756 -0.1615 -0.1796 -0.1114
  562loPI   C5A 8987  16.969   1.512   7.596 -0.2480 -0.0987 -0.0590
  562loPI   C6A 8988  16.972   1.325   7.218 -0.0101 -0.1825  0.1328
  562loPI   C1B 8989  15.991   2.272   8.920 -0.0218 -0.1870 -0.3106
  562loPI   C2B 8990  15.743   2.188   8.621  0.0773 -0.1245  0.1624
  562loPI   C3B 8991  15.633   2.175   8.298  0.2095  0.0822  0.2703
  562loPI   C4B 8992  15.558   1.943   8.014 -0.1117  0.1613  0.1862
  563loPI    C1 8993  14.914  13.255   9.564 -0.2878  0.0832 -0.2258
  563loPI    C2 8994  14.778  12.935   9.761  0.0166  0.1176  0.0484
  563loPI    C3 8995  14.900  13.257   9.964  0.1811  0.2178 -0.2049
  563loPI   PO4 8996  14.838  13.077   9.254  0.2039  0.1917 -0.2794
  563loPI   GL1 8997  14.996  13.108   8.891 -0.0955 -0.2897 -0.0335
  563loPI   GL2 8998  14.971  12.764   8.815  0.0596 -0.0609 -0.0844
  563loPI   C1A 8999  14.747  13.169   8.565  0.1652  0.0245 -0.0036
  563loPI   C2A 9000  14.544  13.135   8.094 -0.0352  0.1119 -0.0106
  563loPI   C3A 9001  14.463  12.999   7.723  0.0038  0.1458 -0.1287
  563loPI   C4A 9002  14.136  13.079   7.396  0.0319 -0.0674  0.1294
  563loPI   C5A 9003  14.042  13.403   7.185  0.2764 -0.3579 -0.0927
  563loPI   C6A 9004  13.995  13.843   7.269 -0.2591 -0.0101  0.1113
  563loPI   C1B 9005  15.144  12.888   8.370  0.0597 -0.1960 -0.0014
  563loPI   C2B 9006  15.345  12.982   8.030 -0.0009  0.1731  0.0495
  563loPI   C3B 9007  15.236  13.078   7.671  0.3185 -0.1863 -0.0380
  563loPI   C4B 9008  15.477  13.085   7.229  0.1284  0.2385  0.2780
  564loPI    C1 9009   6.115   2.453   9.535  0.0023  0.0856  0.0225
  564loPI    C2 9010   5.857   2.693   9.346  0.0162 -0.0491 -0.1704
  564loPI    C3 9011   5.733   2.469   9.652 -0.0979 -0.1165 -0.2649
  564loPI   PO4 9012   6.396   2.614   9.374  0.1141  0.1471 -0.0788
  564loPI   GL1 9013   6.350   2.549   8.984 -0.0186 -0.1898  0.0204
  564loPI   GL2 9014   6.096   2.405   8.952  0.1928 -0.1396  0.2708
  564loPI   C1A 9015   6.770   2.632   8.751  0.0796 -0.1908  0.0959
  564loPI   C2A 9016   7.065   2.552   8.429  0.1936 -0.2578 -0.0424
  564loPI   C3A 9017   7.516   2.713   8.191  0.1930  0.2635 -0.3033
  564loPI   C4A 9018   7.563   2.763   7.704  0.1216 -0.0963  0.3151
  564loPI   C5A 9019   7.509   3.144   7.536 -0.1735 -0.0239  0.1038
  564loPI   C6A 9020   7.402   3.366   7.219 -0.0538  0.0764  0.1130
  564loPI   C1B 9021   6.340   2.494   8.513  0.2187 -0.0330 -0.0780
  564loPI   C2B 9022   6.625   2.617   8.146  0.1534 -0.0172 -0.0356
  564loPI   C3B 9023   6.988   2.577   7.919 -0.0099  0.3551  0.0329
  564loPI   C4B 9024   7.320   2.396   7.796 -0.0593  0.0842  0.0998
  565loPI    C1 9025   6.080  18.297   9.832  0.0821 -0.0208 -0.1242
  565loPI    C2 9026   6.181  18.112  10.172 -0.0891 -0.2177 -0.1788
  565loPI    C3 9027   5.841  18.322  10.152  0.1061  0.1122 -0.1157
  565loPI   PO4 9028   6.252  18.397   9.730 -0.1345  0.0501  0.1962
  565loPI   GL1 9029   6.268  18.560   9.283 -0.2743  0.0701  0.0366
  565loPI   GL2 9030   6.522  18.632   9.397  0.2170  0.0598  0.2463
  565loPI   C1A 9031   6.504  18.500   8.861 -0.0504 -0.1683  0.0314
  565loPI   C2A 9032   6.505  18.824   8.639 -0.0435  0.0978  0.0448
  565loPI   C3A 9033   6.812  19.183   8.623  0.1654 -0.1021  0.3603
  565loPI   C4A 9034   7.104  19.524   8.483 -0.1418 -0.2935  0.0857
  565loPI   C5A 9035   7.375  19.747   8.327  0.1719 -0.2237 -0.0749
  565loPI   C6A 9036   7.770  19.690   8.280  0.2317  0.0226 -0.3202
  565loPI   C1B 9037   6.518  18.938   9.089 -0.1128  0.0956 -0.0315
  565loPI   C2B 9038   6.771  19.172   9.097  0.0214  0.2490 -0.2675
  565loPI   C3B 9039   7.224  19.449   9.023  0.4271 -0.0780  0.3184
  565loPI   C4B 9040   7.575  19.532   8.728  0.4144  0.2699 -0.0358
  566loPI    C1 9041  10.445   1.385   9.465  0.0352  0.0693  0.1929
  566loPI    C2 9042  10.750   1.535   9.675  0.0195 -0.3247  0.5097
  566loPI    C3 9043  10.788   1.181   9.493 -0.0235 -0.0631 -0.0277
  566loPI   PO4 9044  10.385   1.642   9.240  0.1321  0.2340 -0.1168
  566loPI   GL1 9045  10.373   1.867   8.862 -0.0868  0.2484  0.0702
  566loPI   GL2 9046  10.539   1.685   8.713  0.2301 -0.2540  0.2141
  566loPI   C1A 9047  10.338   1.993   8.352  0.1618  0.2061  0.0976
  566loPI   C2A 9048  10.391   2.047   7.986  0.0607  0.0064 -0.2664
  566loPI   C3A 9049  10.459   1.990   7.589  0.1037 -0.3258 -0.3034
  566loPI   C4A 9050  10.343   1.950   7.125  0.1098  0.2186 -0.0993
  566loPI   C5A 9051  10.457   2.139   6.759  0.1684 -0.0281 -0.1071
  566loPI   C6A 9052  10.450   2.292   6.215 -0.1599  0.0161 -0.2296
  566loPI   C1B 9053  10.639   1.617   8.297  0.2610  0.1677 -0.0405
  566loPI   C2B 9054  10.658   1.628   7.976  0.0158 -0.2140 -0.0545
  566loPI   C3B 9055  10.711   1.581   7.596 -0.0601  0.0317  0.3210
  566loPI   C4B 9056  10.641   1.593   7.206 -0.0610  0.1813 -0.2266
  567loPI    C1 9057   1.004   8.062   9.964 -0.1857  0.0646  0.0414
  567loPI    C2 9058   0.836   8.275  10.259  0.0525  0.1987  0.0827
  567loPI    C3 9059   1.233   8.282  10.208  0.0356 -0.0137 -0.0930
  567loPI   PO4 9060   0.855   8.125   9.765  0.1832 -0.0889  0.3246
  567loPI   GL1 9061   0.849   7.933   9.312  0.0706 -0.0761  0.0589
  567loPI   GL2 9062   0.684   7.936   9.156 -0.1212  0.0947  0.0789
  567loPI   C1A 9063   1.150   7.940   9.028  0.2537 -0.2335  0.2284
  567loPI   C2A 9064   1.502   8.147   8.706  0.1827 -0.2513 -0.3246
  567loPI   C3A 9065   1.608   8.056   8.338  0.5297 -0.2518  0.1375
  567loPI   C4A 9066   1.957   8.004   8.082  0.1999  0.0607 -0.0161
  567loPI   C5A 9067   2.269   7.813   7.938  0.0659 -0.0479  0.1137
  567loPI   C6A 9068   2.409   7.648   7.561 -0.1504  0.2398  0.2700
  567loPI   C1B 9069   0.540   7.911   8.748  0.2690  0.1601 -0.0431
  567loPI   C2B 9070   0.322   7.621   8.397  0.2592  0.1275  0.1798
  567loPI   C3B 9071   0.383   7.388   8.029  0.0594  0.0199 -0.2228
  567loPI   C4B 9072   0.446   7.600   7.743 -0.0343  0.3500  0.2934
  568loPI    C1 9073   1.639   1.411   9.687  0.0891 -0.1617  0.0955
  568loPI    C2 9074   1.959   1.290   9.895  0.0257 -0.0703  0.2478
  568loPI    C3 9075   1.740   1.598  10.026 -0.0230 -0.0203  0.0516
  568loPI   PO4 9076   1.673   1.345   9.439  0.0663 -0.0454  0.1799
  568loPI   GL1 9077   1.409   1.357   9.149 -0.0112 -0.0191 -0.2478
  568loPI   GL2 9078   1.242   1.191   8.895 -0.0225 -0.0119  0.0270
  568loPI   C1A 9079   1.401   1.641   8.823 -0.3896 -0.0458 -0.0127
  568loPI   C2A 9080   1.651   1.929   8.480  0.2243  0.0227 -0.0644
  568loPI   C3A 9081   1.954   2.061   8.092 -0.0409 -0.2354 -0.1691
  568loPI   C4A 9082   1.771   2.130   7.701 -0.0876  0.0785  0.0485
  568loPI   C5A 9083   1.550   2.265   7.267 -0.3615  0.0063 -0.0410
  568loPI   C6A 9084   1.708   2.414   6.860 -0.3123 -0.0125 -0.1393
  568loPI   C1B 9085   1.474   1.182   8.520 -0.0859 -0.1322  0.3396
  568loPI   C2B 9086   1.421   1.285   8.170 -0.0983  0.0702 -0.0429
  568loPI   C3B 9087   1.030   1.317   7.817  0.0985 -0.0442 -0.0215
  568loPI   C4B 9088   0.953   1.230   7.494 -0.0858  0.1933 -0.1604
  569loPI    C1 9089  15.064   3.112   9.685  0.0092 -0.2311  0.0802
  569loPI    C2 9090  14.673   3.130   9.605  0.0411  0.2937  0.0061
  569loPI    C3 9091  14.802   3.181   9.980  0.0326 -0.0367  0.0571
  569loPI   PO4 9092  15.220   3.020   9.495 -0.0404  0.2455  0.1037
  569loPI   GL1 9093  15.369   2.849   9.142  0.0992 -0.2842 -0.2643
  569loPI   GL2 9094  15.604   2.568   8.949 -0.0375  0.2331  0.0992
  569loPI   C1A 9095  15.270   2.883   8.758 -0.0206 -0.0005 -0.1819
  569loPI   C2A 9096  15.229   2.865   8.370  0.3360 -0.1348 -0.1949
  569loPI   C3A 9097  15.243   2.818   7.893  0.2016 -0.2139 -0.1854
  569loPI   C4A 9098  15.071   3.075   7.561 -0.0421 -0.0431  0.0359
  569loPI   C5A 9099  14.959   3.268   7.140 -0.0946  0.1209 -0.0069
  569loPI   C6A 9100  15.085   3.357   6.808  0.0025 -0.1284 -0.2987
  569loPI   C1B 9101  15.674   2.714   8.528 -0.1282 -0.0522 -0.0173
  569loPI   C2B 9102  15.654   2.659   8.111 -0.0748  0.1846  0.0329
  569loPI   C3B 9103  15.729   2.565   7.645  0.2237 -0.0515 -0.0791
  569loPI   C4B 9104  15.302   2.554   7.355 -0.1363 -0.2185  0.0455
  570loPI    C1 9105   3.221   0.081   9.765  0.1953  0.1908  0.0021
  570loPI    C2 9106   3.211  -0.260   9.975  0.0957  0.1663 -0.0420
  570loPI    C3 9107   3.453   0.038  10.088  0.1531  0.0963  0.0203
  570loPI   PO4 9108   3.340   0.031   9.484  0.1148 -0.1270 -0.2896
  570loPI   GL1 9109   3.190  -0.112   8.954 -0.0004 -0.0569  0.1397
  570loPI   GL2 9110   3.216  -0.397   9.092  0.0945  0.1422  0.0127
  570loPI   C1A 9111   3.390  -0.172   8.606  0.3110  0.0310  0.2876
  570loPI   C2A 9112   3.670  -0.166   8.181 -0.0056  0.0138  0.1337
  570loPI   C3A 9113   3.618   0.131   7.851  0.2513  0.0354  0.2208
  570loPI   C4A 9114   3.470   0.307   7.416 -0.4203  0.0828  0.3280
  570loPI   C5A 9115   3.527   0.083   6.987  0.2115 -0.2803 -0.1580
  570loPI   C6A 9116   3.766   0.093   6.623  0.1865  0.1032 -0.1080
  570loPI   C1B 9117   3.606  -0.432   8.944  0.1626  0.4156  0.1144
  570loPI   C2B 9118   3.964  -0.186   8.728  0.2511  0.1509 -0.0039
  570loPI   C3B 9119   4.120   0.071   8.384  0.0355 -0.0536 -0.1532
  570loPI   C4B 9120   4.195   0.214   7.956  0.1523  0.0312 -0.2226
  571loPI    C1 9121  15.360   0.324   9.382  0.0538  0.0251 -0.1108
  571loPI    C2 9122  15.474   0.125   9.710  0.0335 -0.1078 -0.1836
  571loPI    C3 9123  15.198   0.413   9.737  0.0807 -0.0722 -0.0737
  571loPI   PO4 9124  15.517   0.469   9.258 -0.2888 -0.0364 -0.0064
  571loPI   GL1 9125  15.401   0.794   8.999 -0.0799  0.0438 -0.2294
  571loPI   GL2 9126  15.079   0.751   8.967  0.1553 -0.3434 -0.0838
  571loPI   C1A 9127  15.583   1.046   8.657  0.1178  0.1837 -0.3794
  571loPI   C2A 9128  15.942   1.260   8.420 -0.0701  0.0172  0.0650
  571loPI   C3A 9129  16.172   1.391   8.053 -0.3415  0.2188 -0.4876
  571loPI   C4A 9130  16.308   1.215   7.824 -0.0060 -0.2025  0.0132
  571loPI   C5A 9131  16.527   1.216   7.495  0.3131 -0.2346 -0.2060
  571loPI   C6A 9132  16.608   1.616   7.258 -0.0641 -0.1103 -0.1799
  571loPI   C1B 9133  15.152   0.771   8.531  0.1536  0.0090  0.1180
  571loPI   C2B 9134  15.027   0.827   8.178 -0.1850 -0.1990  0.1376
  571loPI   C3B 9135  14.956   0.994   7.847  0.2578 -0.0748 -0.0181
  571loPI   C4B 9136  14.554   1.224   7.645  0.2648 -0.2094 -0.0848
  572loPI    C1 9137   8.346  17.442   9.833 -0.0057  0.0763  0.0316
  572loPI    C2 9138   8.569  17.522  10.156 -0.0075 -0.2497  0.1167
  572loPI    C3 9139   8.170  17.514  10.185 -0.0168 -0.0621  0.0546
  572loPI   PO4 9140   8.539  17.450   9.634  0.1085 -0.0340 -0.0352
  572loPI   GL1 9141   8.533  17.376   9.205  0.2341 -0.0061  0.1012
  572loPI   GL2 9142   8.254  17.376   9.041  0.3677  0.3227 -0.0381
  572loPI   C1A 9143   8.649  17.093   8.859  0.0139  0.2222 -0.1525
  572loPI   C2A 9144   8.542  16.899   8.517  0.2373 -0.1298  0.2953
  572loPI   C3A 9145   8.195  16.896   8.337 -0.3633 -0.2284 -0.4576
  572loPI   C4A 9146   7.756  17.108   8.231 -0.4369 -0.2968  0.0091
  572loPI   C5A 9147   7.610  17.052   7.850  0.0407  0.0524 -0.0611
  572loPI   C6A 9148   7.592  17.029   7.382 -0.2114 -0.1294  0.0141
  572loPI   C1B 9149   8.200  17.311   8.649  0.1358  0.1226  0.0012
  572loPI   C2B 9150   8.210  17.386   8.214  0.3068  0.3723 -0.0416
  572loPI   C3B 9151   8.046  17.399   7.825  0.0819  0.0550 -0.1301
  572loPI   C4B 9152   7.782  17.548   7.496  0.0014 -0.1690  0.0057
  573loPI    C1 9153   1.435  19.427   9.991 -0.0285 -0.0104  0.1962
  573loPI    C2 9154   1.057  19.366  10.106 -0.0718  0.1187  0.1246
  573loPI    C3 9155   1.205  19.737  10.093 -0.0684  0.1077 -0.2346
  573loPI   PO4 9156   1.437  19.303   9.762 -0.1412  0.0273  0.3072
  573loPI   GL1 9157   1.374  19.208   9.301 -0.2761  0.0646  0.3035
  573loPI   GL2 9158   1.503  19.563   9.316 -0.1559 -0.1557  0.0179
  573loPI   C1A 9159   1.654  19.231   8.929  0.2384 -0.1798 -0.0592
  573loPI   C2A 9160   1.750  19.295   8.577 -0.1279  0.2627 -0.0162
  573loPI   C3A 9161   1.970  19.470   8.340 -0.2279 -0.3528  0.1139
  573loPI   C4A 9162   2.070  19.557   7.934 -0.0980 -0.0278  0.0027
  573loPI   C5A 9163   2.164  19.309   7.642  0.0568  0.0109  0.2280
  573loPI   C6A 9164   2.603  19.156   7.389  0.0031 -0.0162 -0.3099
  573loPI   C1B 9165   1.204  19.565   8.994 -0.0147 -0.0331 -0.2438
  573loPI   C2B 9166   0.796  19.416   8.788  0.2023  0.0131 -0.0242
  573loPI   C3B 9167   0.683  19.259   8.465 -0.2987  0.1428 -0.1945
  573loPI   C4B 9168   0.547  19.114   7.975  0.0101 -0.1937 -0.1332
  574loPI    C1 9169  13.886   2.930   9.767 -0.2673  0.0808 -0.0445
  574loPI    C2 9170  13.965   2.555   9.656 -0.1410  0.1090 -0.0515
  574loPI    C3 9171  14.108   2.695  10.002 -0.0177  0.2137 -0.1439
  574loPI   PO4 9172  13.899   3.079   9.548  0.3298 -0.1629 -0.1558
  574loPI   GL1 9173  13.748   3.128   9.137 -0.1920 -0.1696 -0.1134
  574loPI   GL2 9174  14.057   2.980   9.081 -0.1679  0.0106 -0.0033
  574loPI   C1A 9175  13.852   3.297   8.748  0.1022 -0.2923 -0.1098
  574loPI   C2A 9176  14.183   3.554   8.598  0.2989 -0.0137  0.2616
  574loPI   C3A 9177  14.294   3.688   8.233  0.0262  0.0256 -0.1460
  574loPI   C4A 9178  14.217   3.898   7.760 -0.1226  0.2134 -0.2681
  574loPI   C5A 9179  14.118   3.878   7.324 -0.0512  0.2250 -0.1217
  574loPI   C6A 9180  14.029   3.807   6.922 -0.0407  0.0233  0.2892
  574loPI   C1B 9181  14.359   3.032   8.689  0.1771  0.2023  0.1517
  574loPI   C2B 9182  14.289   3.032   8.207  0.0963 -0.1220 -0.1990
  574loPI   C3B 9183  14.125   3.005   7.769 -0.1523  0.0920 -0.0716
  574loPI   C4B 9184  14.035   3.397   7.408  0.2562 -0.1831 -0.1725
  575loPI    C1 9185   0.966   3.272   9.728  0.1379  0.1147 -0.3847
  575loPI    C2 9186   1.344   3.148   9.768 -0.0027 -0.1536  0.2291
  575loPI    C3 9187   1.205   3.443   9.999 -0.0952  0.1429 -0.1934
  575loPI   PO4 9188   0.852   3.329   9.402 -0.0800  0.2272 -0.0954
  575loPI   GL1 9189   0.993   3.430   9.040 -0.0195 -0.0632  0.2644
  575loPI   GL2 9190   0.802   3.660   8.940 -0.3616 -0.0601 -0.1443
  575loPI   C1A 9191   0.989   3.297   8.627  0.1107 -0.4479  0.0652
  575loPI   C2A 9192   1.063   3.059   8.217  0.0489 -0.0884 -0.0605
  575loPI   C3A 9193   1.147   3.098   7.824 -0.3522  0.0122 -0.1426
  575loPI   C4A 9194   1.021   3.078   7.397  0.2892 -0.0530 -0.0171
  575loPI   C5A 9195   0.683   2.840   7.208 -0.1905 -0.3339  0.0762
  575loPI   C6A 9196   0.312   2.730   7.105  0.2346  0.2069  0.2372
  575loPI   C1B 9197   0.855   3.749   8.514  0.0491  0.0067 -0.0535
  575loPI   C2B 9198   0.839   3.672   8.074  0.0846  0.3104  0.2160
  575loPI   C3B 9199   0.720   3.733   7.639 -0.3481 -0.0479  0.2447
  575loPI   C4B 9200   0.807   3.540   7.270  0.1729 -0.0822  0.3598
  576loPI    C1 9201  10.783  17.974  10.072 -0.1867  0.0871 -0.1592
  576loPI    C2 9202  11.053  18.161  10.300 -0.1180  0.1224 -0.2688
  576loPI    C3 9203  11.024  17.762  10.310 -0.2811  0.1383 -0.0169
  576loPI   PO4 9204  10.797  18.006   9.787 -0.0336  0.0810  0.2000
  576loPI   GL1 9205  10.658  18.216   9.400  0.1571  0.0145 -0.0149
  576loPI   GL2 9206  10.819  17.935   9.317  0.0415 -0.2591  0.3549
  576loPI   C1A 9207  10.333  18.229   9.038  0.3689 -0.1464 -0.4072
  576loPI   C2A 9208  10.380  18.329   8.686  0.0306 -0.1179 -0.0028
  576loPI   C3A 9209  10.403  18.539   8.326 -0.0577 -0.0184  0.0687
  576loPI   C4A 9210  10.531  18.400   7.892  0.1203  0.1403 -0.0329
  576loPI   C5A 9211  10.287  18.351   7.452  0.2044  0.3406  0.3369
  576loPI   C6A 9212  10.381  18.049   7.108  0.0725  0.1102  0.2081
  576loPI   C1B 9213  10.720  17.970   8.888 -0.4834  0.2620 -0.4355
  576loPI   C2B 9214  10.559  17.861   8.488  0.0706  0.1756  0.0042
  576loPI   C3B 9215  10.376  18.011   8.172 -0.0097  0.2429 -0.4020
  576loPI   C4B 9216  10.108  18.077   7.943 -0.1499 -0.1011 -0.0380
  577loPI    C1 9217   3.181  10.984  10.388  0.2933 -0.0877  0.0144
  577loPI    C2 9218   3.503  10.926  10.618  0.0772 -0.1192  0.3153
  577loPI    C3 9219   3.236  11.206  10.716  0.2238  0.2016 -0.1664
  577loPI   PO4 9220   3.159  10.775  10.254 -0.1697  0.0647  0.1589
  577loPI   GL1 9221   3.236  10.792   9.828 -0.2849  0.0787 -0.0620
  577loPI   GL2 9222   3.342  10.421   9.765 -0.0734  0.0983  0.0791
  577loPI   C1A 9223   3.438  10.949   9.444 -0.0243 -0.1354 -0.0618
  577loPI   C2A 9224   3.403  10.898   8.990 -0.0184 -0.2107 -0.1483
  577loPI   C3A 9225   3.407  10.976   8.535  0.0760 -0.1758  0.1492
  577loPI   C4A 9226   3.317  10.678   8.142 -0.1576 -0.0375  0.0992
  577loPI   C5A 9227   3.525  10.352   7.901 -0.0869 -0.1909  0.2305
  577loPI   C6A 9228   3.343  10.317   7.464 -0.2991  0.2130  0.0376
  577loPI   C1B 9229   3.497  10.485   9.363  0.1936  0.1619 -0.1725
  577loPI   C2B 9230   3.752  10.545   8.950  0.0434 -0.1481 -0.0125
  577loPI   C3B 9231   3.792  10.646   8.585 -0.2545 -0.1566 -0.2903
  577loPI   C4B 9232   3.852  10.631   8.170 -0.0096  0.3196 -0.2330
  578loPI    C1 9233  14.673  18.378   9.356  0.4004  0.0217 -0.2128
  578loPI    C2 9234  14.999  18.204   9.509  0.1710 -0.0696  0.1873
  578loPI    C3 9235  14.954  18.601   9.534  0.3617 -0.0282 -0.0881
  578loPI   PO4 9236  14.636  18.376   9.127 -0.2384  0.1003 -0.1283
  578loPI   GL1 9237  14.792  18.140   8.711  0.3593  0.1767  0.0779
  578loPI   GL2 9238  14.522  17.950   8.513  0.3068  0.0303 -0.0804
  578loPI   C1A 9239  14.910  18.043   8.276 -0.3074  0.2487  0.1666
  578loPI   C2A 9240  14.954  18.150   7.824  0.0720 -0.0302 -0.1766
  578loPI   C3A 9241  15.004  18.275   7.376  0.0959 -0.1036  0.0778
  578loPI   C4A 9242  14.796  18.453   7.063 -0.0661 -0.0087  0.0202
  578loPI   C5A 9243  14.417  18.432   6.825  0.1754  0.2328 -0.0051
  578loPI   C6A 9244  14.072  18.449   7.022 -0.0008 -0.1165  0.2697
  578loPI   C1B 9245  14.454  17.906   8.023  0.0888  0.0537 -0.2715
  578loPI   C2B 9246  14.604  17.854   7.553  0.0480  0.0218 -0.2086
  578loPI   C3B 9247  14.479  18.031   7.158 -0.0522  0.0260 -0.2397
  578loPI   C4B 9248  14.815  18.008   6.846 -0.0286  0.4198 -0.1132
  579loPI    C1 9249  19.470   8.390  10.240 -0.1355  0.1179  0.1320
  579loPI    C2 9250  19.089   8.319  10.339 -0.1116 -0.0011  0.1402
  579loPI    C3 9251  19.382   8.239  10.599 -0.0747  0.0131  0.1033
  579loPI   PO4 9252  19.541   8.270   9.982 -0.1172 -0.0073 -0.3573
  579loPI   GL1 9253  19.430   8.326   9.512 -0.0935  0.0446  0.2636
  579loPI   GL2 9254  19.652   8.680   9.382 -0.1879  0.2217 -0.0316
  579loPI   C1A 9255  19.109   8.287   9.140 -0.1680 -0.0587  0.3114
  579loPI   C2A 9256  19.100   8.293   8.708  0.1652 -0.0149  0.1998
  579loPI   C3A 9257  18.939   8.264   8.240 -0.0203 -0.1349 -0.3423
  579loPI   C4A 9258  18.774   8.273   7.766 -0.2173 -0.1256 -0.2195
  579loPI   C5A 9259  18.813   8.515   7.293  0.0122  0.2237 -0.0960
  579loPI   C6A 9260  19.078   8.916   7.277  0.0609 -0.1060  0.0097
  579loPI   C1B 9261  19.802   8.642   9.037  0.1653 -0.3011 -0.3413
  579loPI   C2B 9262  19.872   8.744   8.633  0.0834 -0.1259 -0.1771
  579loPI   C3B 9263  19.844   8.671   8.172 -0.1502 -0.1679 -0.1247
  579loPI   C4B 9264  19.662   8.822   7.776 -0.3421  0.1768  0.0454
  580loPI    C1 9265   4.141   2.711   9.534  0.2395 -0.0911  0.2112
  580loPI    C2 9266   3.975   2.501   9.831 -0.0574 -0.1704 -0.0055
  580loPI    C3 9267   4.373   2.543   9.813 -0.0373 -0.1402  0.4155
  580loPI   PO4 9268   4.075   2.596   9.237 -0.5865 -0.2382  0.2847
  580loPI   GL1 9269   4.156   2.527   8.826  0.0958  0.1875 -0.1667
  580loPI   GL2 9270   4.481   2.442   8.863  0.1849  0.1127 -0.2535
  580loPI   C1A 9271   4.323   2.552   8.359 -0.0335 -0.2591  0.0414
  580loPI   C2A 9272   4.413   2.406   7.905  0.0567  0.2158  0.2498
  580loPI   C3A 9273   4.454   2.224   7.420  0.0383 -0.0235 -0.2522
  580loPI   C4A 9274   4.266   1.910   7.115  0.1536  0.0892  0.2255
  580loPI   C5A 9275   4.308   1.372   6.998 -0.0482 -0.0226 -0.2369
  580loPI   C6A 9276   4.349   0.962   7.106  0.2282 -0.3088  0.0446
  580loPI   C1B 9277   4.399   2.072   8.522  0.2017  0.0936  0.0163
  580loPI   C2B 9278   4.200   1.659   8.463  0.0591  0.0057 -0.3392
  580loPI   C3B 9279   4.376   1.256   8.500 -0.2353 -0.0919  0.0904
  580loPI   C4B 9280   4.601   0.831   8.478  0.0147 -0.2371 -0.1882
  581loPI    C1 9281  12.083  19.495   9.537  0.0350 -0.1299 -0.1557
  581loPI    C2 9282  12.138  19.144   9.721  0.0538 -0.1369 -0.1746
  581loPI    C3 9283  12.436  19.410   9.705 -0.0032 -0.0637 -0.0407
  581loPI   PO4 9284  11.973  19.435   9.372  0.0606 -0.0202  0.2273
  581loPI   GL1 9285  11.957  19.349   8.983 -0.2155 -0.0389  0.3654
  581loPI   GL2 9286  11.909  19.700   8.778 -0.1490  0.2143  0.0631
  581loPI   C1A 9287  11.958  18.984   8.644  0.1061 -0.1591  0.2975
  581loPI   C2A 9288  12.217  18.914   8.323 -0.2629 -0.0949  0.0945
  581loPI   C3A 9289  12.129  18.717   7.898  0.1480 -0.1075 -0.2032
  581loPI   C4A 9290  11.847  18.650   7.503 -0.2053  0.2541 -0.0153
  581loPI   C5A 9291  11.638  18.682   7.042  0.0961 -0.3613  0.0184
  581loPI   C6A 9292  11.589  18.556   6.606  0.1787 -0.0958  0.1292
  581loPI   C1B 9293  11.800  19.769   8.364  0.2963  0.2159 -0.0941
  581loPI   C2B 9294  11.753  20.043   8.195  0.2233  0.1896 -0.1591
  581loPI   C3B 9295  11.609  20.469   7.982  0.0230 -0.0791  0.1121
  581loPI   C4B 9296  11.665  20.890   7.939 -0.2423  0.0521  0.0490
  582loPI    C1 9297  15.497   2.077   9.916 -0.2312  0.1764  0.0236
  582loPI    C2 9298  15.292   2.382  10.075 -0.2458  0.0171  0.3159
  582loPI    C3 9299  15.199   2.005  10.173 -0.0466 -0.0713  0.1720
  582loPI   PO4 9300  15.472   2.105   9.685 -0.0008 -0.1267 -0.1068
  582loPI   GL1 9301  15.429   2.094   9.175 -0.1409  0.2646  0.2011
  582loPI   GL2 9302  15.597   1.802   9.086 -0.1235  0.4435 -0.2070
  582loPI   C1A 9303  15.335   2.050   8.794 -0.0997 -0.2195 -0.0051
  582loPI   C2A 9304  15.311   2.420   8.549 -0.0264 -0.0662 -0.3903
  582loPI   C3A 9305  15.227   2.384   8.118 -0.4870  0.1211  0.1091
  582loPI   C4A 9306  15.305   2.291   7.792 -0.0985  0.1823  0.0308
  582loPI   C5A 9307  15.250   2.071   7.500  0.0221 -0.0189  0.0980
  582loPI   C6A 9308  15.484   2.191   7.098  0.3217  0.0874  0.1219
  582loPI   C1B 9309  15.507   1.560   8.795  0.2016 -0.1204  0.0438
  582loPI   C2B 9310  15.540   1.638   8.419  0.2857 -0.1163 -0.1255
  582loPI   C3B 9311  15.629   1.415   8.026 -0.0448 -0.0014  0.1392
  582loPI   C4B 9312  15.878   1.240   7.688 -0.0792  0.0554 -0.0823
  583loPI    C1 9313  15.199  10.205   9.460  0.0881 -0.2031  0.0989
  583loPI    C2 9314  15.482  10.457   9.589 -0.0585 -0.0075  0.0422
  583loPI    C3 9315  15.324  10.187   9.839 -0.1065  0.1500  0.1837
  583loPI   PO4 9316  15.159  10.412   9.167 -0.0063  0.3165 -0.0533
  583loPI   GL1 9317  15.261  10.691   8.835 -0.1637  0.2235  0.0574
  583loPI   GL2 9318  15.547  10.857   8.827  0.0184 -0.2786 -0.0129
  583loPI   C1A 9319  15.102  10.511   8.383  0.2952  0.1850  0.1458
  583loPI   C2A 9320  15.117  10.352   7.965  0.1248 -0.1818  0.0271
  583loPI   C3A 9321  15.230  10.484   7.540 -0.2621 -0.2023 -0.0062
  583loPI   C4A 9322  15.196  10.507   7.082 -0.0773 -0.6429 -0.0460
  583loPI   C5A 9323  15.101  10.578   6.710 -0.5020 -0.3313  0.3234
  583loPI   C6A 9324  14.878  10.591   6.291 -0.0286  0.1638 -0.2726
  583loPI   C1B 9325  15.545  10.830   8.405 -0.0216 -0.0498  0.2090
  583loPI   C2B 9326  15.434  10.733   8.003  0.1826 -0.2442  0.3520
  583loPI   C3B 9327  15.585  10.330   7.864  0.2821 -0.0628  0.0681
  583loPI   C4B 9328  15.753  10.146   8.210  0.1674 -0.1432  0.1842
  584loPI    C1 9329  11.823  13.774   9.736 -0.0291  0.0992  0.0743
  584loPI    C2 9330  11.482  13.911   9.894 -0.0090 -0.0836  0.2813
  584loPI    C3 9331  11.825  13.951  10.095  0.0669 -0.0448  0.1454
  584loPI   PO4 9332  11.760  13.779   9.517 -0.1326  0.2148  0.0523
  584loPI   GL1 9333  11.682  13.902   9.145 -0.3434 -0.0476 -0.1553
  584loPI   GL2 9334  11.776  14.236   9.085  0.2432 -0.1789 -0.0842
  584loPI   C1A 9335  11.706  13.736   8.665 -0.0889  0.0067  0.2037
  584loPI   C2A 9336  11.633  13.800   8.187  0.2423 -0.2115  0.0177
  584loPI   C3A 9337  11.638  13.920   7.770 -0.2696 -0.3741 -0.1922
  584loPI   C4A 9338  11.599  13.723   7.320  0.4712 -0.0650 -0.0539
  584loPI   C5A 9339  11.299  13.499   7.067 -0.0185 -0.1909  0.0812
  584loPI   C6A 9340  10.900  13.234   7.146  0.1021  0.1796 -0.3599
  584loPI   C1B 9341  11.736  14.230   8.707  0.2686  0.0253 -0.2010
  584loPI   C2B 9342  11.826  14.226   8.237 -0.1741  0.3038 -0.0450
  584loPI   C3B 9343  12.115  14.034   7.986  0.1125 -0.0566 -0.0896
  584loPI   C4B 9344  12.096  13.701   7.649 -0.1534  0.0743  0.0049
  585loPI    C1 9345   9.978   1.488   9.708 -0.0864 -0.1193 -0.2803
  585loPI    C2 9346   9.688   1.547   9.978  0.2480  0.4678 -0.0297
  585loPI    C3 9347   9.825   1.178   9.909 -0.1961  0.2473  0.2243
  585loPI   PO4 9348   9.941   1.538   9.477 -0.3124  0.0276  0.1265
  585loPI   GL1 9349  10.089   1.305   9.036  0.1551  0.1014  0.1265
  585loPI   GL2 9350   9.944   1.634   8.913 -0.0160  0.2063 -0.1599
  585loPI   C1A 9351   9.997   0.847   8.784  0.0785 -0.3182 -0.4259
  585loPI   C2A 9352   9.837   0.537   8.435 -0.0301 -0.3271 -0.0380
  585loPI   C3A 9353   9.507   0.340   8.201  0.0306 -0.2228  0.2198
  585loPI   C4A 9354   9.186   0.312   7.831  0.2572  0.3196 -0.0627
  585loPI   C5A 9355   8.826   0.546   7.589 -0.1612 -0.3593  0.0939
  585loPI   C6A 9356   8.740   0.912   7.393  0.1813  0.0158 -0.2050
  585loPI   C1B 9357  10.077   1.596   8.549 -0.4268  0.0965 -0.0148
  585loPI   C2B 9358  10.116   1.590   8.034 -0.0113  0.0365 -0.1051
  585loPI   C3B 9359  10.210   1.513   7.672 -0.1655 -0.3658  0.1701
  585loPI   C4B 9360  10.199   1.451   7.216 -0.0292 -0.3565  0.1278
  586loPI    C1 9361  12.076  16.297   9.955  0.0271  0.0727 -0.0052
  586loPI    C2 9362  12.262  16.640  10.041  0.1060  0.0334 -0.0186
  586loPI    C3 9363  12.433  16.291  10.135  0.1405 -0.0075 -0.2297
  586loPI   PO4 9364  11.976  16.266   9.727  0.0499 -0.1054 -0.0228
  586loPI   GL1 9365  11.931  16.398   9.352  0.0516  0.0548 -0.4146
  586loPI   GL2 9366  12.029  16.092   9.266  0.3423 -0.2065  0.0659
  586loPI   C1A 9367  11.638  16.410   9.026  0.1156  0.0073  0.1350
  586loPI   C2A 9368  11.368  16.535   8.609 -0.0603  0.0751 -0.0042
  586loPI   C3A 9369  11.084  16.665   8.290  0.0910  0.3613  0.0166
  586loPI   C4A 9370  11.024  16.518   7.851 -0.0842 -0.0826 -0.1975
  586loPI   C5A 9371  10.942  16.531   7.395 -0.1680 -0.0029  0.3443
  586loPI   C6A 9372  10.977  16.219   7.063  0.1703  0.0715  0.0596
  586loPI   C1B 9373  11.913  16.025   8.684  0.1134  0.1560 -0.0137
  586loPI   C2B 9374  11.818  16.315   8.431  0.0396  0.1391 -0.2660
  586loPI   C3B 9375  11.506  16.454   8.144 -0.0157  0.1790  0.0240
  586loPI   C4B 9376  11.472  16.391   7.720  0.0396  0.0316  0.2505
  587loPI    C1 9377   3.619   3.907   9.534 -0.3262  0.2392 -0.1208
  587loPI    C2 9378   3.346   3.799   9.806  0.0672  0.0475  0.2095
  587loPI    C3 9379   3.548   4.142   9.850  0.0153  0.0970  0.0676
  587loPI   PO4 9380   3.608   3.766   9.365 -0.4299  0.2305 -0.0126
  587loPI   GL1 9381   3.250   3.497   9.121  0.3125 -0.2428 -0.3262
  587loPI   GL2 9382   3.083   3.451   8.817 -0.2700  0.1023 -0.1770
  587loPI   C1A 9383   3.318   3.907   8.747  0.0024 -0.0177 -0.0452
  587loPI   C2A 9384   3.753   4.087   8.496 -0.0364 -0.0558 -0.1729
  587loPI   C3A 9385   4.018   3.863   8.108  0.0113  0.3930 -0.1556
  587loPI   C4A 9386   4.184   3.445   7.930  0.2048  0.2405  0.2083
  587loPI   C5A 9387   4.456   3.385   7.612  0.0521  0.0796  0.0849
  587loPI   C6A 9388   4.673   3.173   7.335 -0.4030 -0.2731 -0.1670
  587loPI   C1B 9389   2.896   3.690   8.488 -0.0098 -0.0844 -0.2614
  587loPI   C2B 9390   3.097   3.714   8.066 -0.0199  0.0805 -0.1124
  587loPI   C3B 9391   3.172   3.736   7.647  0.1161  0.1859  0.1528
  587loPI   C4B 9392   3.383   3.680   7.219 -0.1881  0.0983  0.1226
  588loPI    C1 9393   7.307  17.007   9.974  0.0941 -0.2057  0.0028
  588loPI    C2 9394   7.668  16.968  10.142  0.0973  0.0726  0.0656
  588loPI    C3 9395   7.399  17.219  10.301 -0.0036  0.1198 -0.1756
  588loPI   PO4 9396   7.382  17.115   9.662  0.0836 -0.3441 -0.0483
  588loPI   GL1 9397   7.155  17.498   9.407 -0.2758 -0.1011  0.2121
  588loPI   GL2 9398   7.142  17.212   9.216  0.2277  0.0117  0.1630
  588loPI   C1A 9399   7.277  17.586   8.969  0.1229  0.1109  0.0195
  588loPI   C2A 9400   7.247  17.708   8.452 -0.2114 -0.1535  0.1092
  588loPI   C3A 9401   6.966  17.545   8.106 -0.1924 -0.0542  0.4387
  588loPI   C4A 9402   6.878  17.347   7.758 -0.0179  0.1920 -0.0585
  588loPI   C5A 9403   6.813  17.119   7.340 -0.0631  0.1427  0.0237
  588loPI   C6A 9404   6.521  16.849   7.183 -0.1986  0.0694  0.0260
  588loPI   C1B 9405   6.955  17.184   8.874 -0.0956 -0.0016  0.2322
  588loPI   C2B 9406   6.899  17.143   8.442  0.0631 -0.3305 -0.1083
  588loPI   C3B 9407   6.701  16.857   8.132  0.0697 -0.2937  0.1372
  588loPI   C4B 9408   6.291  16.913   8.108  0.1527 -0.1426 -0.2435
  589loPI    C1 9409  15.714   4.332   9.901  0.0372 -0.0741  0.0603
  589loPI    C2 9410  15.966   4.401  10.204  0.1802  0.0571 -0.0863
  589loPI    C3 9411  15.887   4.025  10.091  0.1126  0.0070  0.1233
  589loPI   PO4 9412  15.822   4.563   9.724 -0.1294  0.1471 -0.1998
  589loPI   GL1 9413  15.646   4.741   9.354  0.1934 -0.1803  0.4026
  589loPI   GL2 9414  15.928   4.949   9.411  0.2123 -0.2432 -0.1559
  589loPI   C1A 9415  15.660   4.633   8.876 -0.2760  0.0481 -0.2075
  589loPI   C2A 9416  15.937   4.599   8.464 -0.0131  0.1140 -0.2117
  589loPI   C3A 9417  16.289   4.753   8.062 -0.1569  0.1303  0.3069
  589loPI   C4A 9418  16.191   4.903   7.686  0.1715  0.1031  0.1195
  589loPI   C5A 9419  16.367   5.174   7.397 -0.2034  0.0191  0.0018
  589loPI   C6A 9420  16.751   5.222   7.325  0.3538 -0.1146  0.1382
  589loPI   C1B 9421  16.388   5.098   9.126 -0.2195  0.1941 -0.2861
  589loPI   C2B 9422  16.386   5.335   8.830 -0.1575 -0.0768  0.0736
  589loPI   C3B 9423  16.387   5.388   8.373  0.1914 -0.0741  0.0872
  589loPI   C4B 9424  16.362   5.450   7.955 -0.0438 -0.1561 -0.0571
  590loPI    C1 9425   5.881   1.952   9.736  0.0353 -0.2108 -0.0888
  590loPI    C2 9426   6.273   2.004   9.800  0.0110 -0.1294 -0.0040
  590loPI    C3 9427   6.006   2.209  10.016 -0.0775 -0.1221 -0.1196
  590loPI   PO4 9428   5.838   1.956   9.554 -0.1477 -0.1006 -0.0999
  590loPI   GL1 9429   5.825   1.763   9.193  0.2574  0.1860 -0.0711
  590loPI   GL2 9430   5.728   2.101   9.057  0.1419 -0.2751 -0.3189
  590loPI   C1A 9431   5.822   1.414   9.001 -0.0917  0.1753  0.0957
  590loPI   C2A 9432   5.496   1.258   8.687  0.3364 -0.0874 -0.0399
  590loPI   C3A 9433   5.246   0.900   8.490 -0.1280 -0.1941 -0.1622
  590loPI   C4A 9434   5.068   0.772   8.098  0.1026 -0.0861 -0.2046
  590loPI   C5A 9435   5.045   0.689   7.666  0.0784  0.2763 -0.1282
  590loPI   C6A 9436   4.720   0.698   7.373  0.1772 -0.2634 -0.1373
  590loPI   C1B 9437   5.633   1.847   8.648  0.0490 -0.2102 -0.3563
  590loPI   C2B 9438   5.685   1.567   8.276 -0.4896  0.1290  0.1309
  590loPI   C3B 9439   5.749   1.448   7.868  0.0458  0.0027  0.0621
  590loPI   C4B 9440   5.870   1.602   7.492 -0.2380 -0.2083 -0.3019
  591loPI    C1 9441  18.629  11.454   9.742  0.2147  0.1323  0.1078
  591loPI    C2 9442  18.267  11.587   9.637  0.2104 -0.2023 -0.3283
  591loPI    C3 9443  18.588  11.819   9.584  0.0623  0.1121  0.0988
  591loPI   PO4 9444  18.644  11.280   9.509  0.1801  0.2596  0.0762
  591loPI   GL1 9445  18.721  11.298   9.100 -0.2445 -0.2615 -0.0431
  591loPI   GL2 9446  18.405  11.580   9.140 -0.0819 -0.0791 -0.0868
  591loPI   C1A 9447  18.899  11.537   8.854  0.0965 -0.3482  0.1004
  591loPI   C2A 9448  18.877  11.644   8.445 -0.2549 -0.0322 -0.1506
  591loPI   C3A 9449  18.743  11.580   7.997  0.1376 -0.1530  0.1664
  591loPI   C4A 9450  18.378  11.383   7.805 -0.0991 -0.1719  0.1263
  591loPI   C5A 9451  18.092  11.309   7.505 -0.0635  0.0119 -0.2538
  591loPI   C6A 9452  17.724  11.111   7.477  0.1319 -0.1705  0.0524
  591loPI   C1B 9453  18.352  11.459   8.657  0.0139  0.0126  0.0374
  591loPI   C2B 9454  18.331  11.687   8.236  0.0683 -0.3278  0.0811
  591loPI   C3B 9455  18.298  11.858   7.728 -0.1189 -0.2845 -0.0810
  591loPI   C4B 9456  18.364  11.848   7.323 -0.3254  0.0394 -0.0743
  592loPI    C1 9457  18.408  17.579   9.617  0.2850 -0.0736 -0.1380
  592loPI    C2 9458  18.205  17.819   9.863  0.3139 -0.0679 -0.1196
  592loPI    C3 9459  18.137  17.425   9.867  0.1528 -0.0428 -0.2609
  592loPI   PO4 9460  18.464  17.703   9.486 -0.0585 -0.1062  0.1199
  592loPI   GL1 9461  18.616  17.702   9.115  0.1184  0.1832 -0.0727
  592loPI   GL2 9462  18.562  17.409   9.021 -0.1420 -0.1772  0.3986
  592loPI   C1A 9463  18.666  18.038   8.674  0.0156 -0.3517 -0.3342
  592loPI   C2A 9464  18.807  17.904   8.209  0.1526  0.1394 -0.0223
  592loPI   C3A 9465  18.856  17.834   7.847  0.2833 -0.1168 -0.0171
  592loPI   C4A 9466  19.270  17.620   7.597  0.2113  0.2400 -0.3329
  592loPI   C5A 9467  19.415  17.524   7.174  0.0728  0.2215  0.1465
  592loPI   C6A 9468  19.305  17.834   6.829 -0.4354  0.1365 -0.1972
  592loPI   C1B 9469  18.516  17.588   8.612  0.0456  0.2611  0.1543
  592loPI   C2B 9470  18.459  17.563   8.193 -0.1322 -0.2841 -0.1471
  592loPI   C3B 9471  18.369  17.616   7.753 -0.1138 -0.1315  0.3598
  592loPI   C4B 9472  18.406  17.454   7.406 -0.0037 -0.0370  0.2398
  593loPI    C1 9473  13.268   9.267   9.844  0.1543 -0.0084 -0.2224
  593loPI    C2 9474  13.205   9.626   9.678 -0.0965  0.1778  0.2560
  593loPI    C3 9475  13.523   9.568   9.912  0.3702 -0.1423 -0.4235
  593loPI   PO4 9476  13.237   9.121   9.586 -0.2832 -0.0364 -0.1035
  593loPI   GL1 9477  13.304   9.262   9.354 -0.0713  0.1360 -0.0072
  593loPI   GL2 9478  13.563   9.516   9.346  0.2077 -0.0759 -0.0411
  593loPI   C1A 9479  13.498   9.092   8.969  0.0274 -0.0603  0.1251
  593loPI   C2A 9480  13.452   8.930   8.514 -0.2531  0.1723 -0.1259
  593loPI   C3A 9481  13.385   8.613   8.289  0.4827  0.0822 -0.0390
  593loPI   C4A 9482  13.651   8.449   7.942 -0.1146 -0.0051 -0.0507
  593loPI   C5A 9483  13.573   8.543   7.564  0.0778  0.1666  0.0949
  593loPI   C6A 9484  13.127   8.448   7.268 -0.1742 -0.1035 -0.5415
  593loPI   C1B 9485  13.274   9.571   8.896 -0.1755  0.1657 -0.0272
  593loPI   C2B 9486  13.034   9.510   8.658  0.1513 -0.0519  0.3813
  593loPI   C3B 9487  13.011   9.292   8.260  0.1225  0.3292  0.2425
  593loPI   C4B 9488  13.268   9.015   7.922 -0.1208 -0.1285 -0.4655
  594loPI    C1 9489  10.435  16.759  10.011  0.1059  0.0772  0.1235
  594loPI    C2 9490  10.376  17.068  10.258  0.1394  0.1190  0.0796
  594loPI    C3 9491  10.542  16.731  10.395 -0.1733  0.0094  0.1987
  594loPI   PO4 9492  10.487  16.782   9.772  0.2875  0.1346  0.0145
  594loPI   GL1 9493  10.455  17.047   9.393  0.1341 -0.0292  0.0741
  594loPI   GL2 9494  10.170  17.088   9.236  0.0693 -0.0087  0.1639
  594loPI   C1A 9495  10.719  16.832   9.022 -0.3229  0.1453  0.0150
  594loPI   C2A 9496  10.622  16.653   8.554 -0.3040 -0.1565 -0.0540
  594loPI   C3A 9497  10.579  16.641   8.081 -0.0890  0.4103 -0.1991
  594loPI   C4A 9498  10.512  16.437   7.669  0.0371  0.1619  0.0987
  594loPI   C5A 9499  10.510  16.150   7.297  0.1330  0.1747 -0.0069
  594loPI   C6A 9500  10.387  15.936   6.899  0.1869  0.1002  0.0547
  594loPI   C1B 9501  10.333  17.070   8.867  0.2523  0.0448  0.3452
  594loPI   C2B 9502  10.348  17.370   8.466  0.0152  0.1483  0.0053
  594loPI   C3B 9503  10.334  17.505   8.059 -0.2507 -0.1555  0.0214
  594loPI   C4B 9504  10.212  17.598   7.558 -0.0892 -0.3481  0.0160
  595loPI    C1 9505  12.905   6.308   9.696 -0.0417 -0.1279  0.0679
  595loPI    C2 9506  13.033   6.344  10.073 -0.0098 -0.0052  0.0461
  595loPI    C3 9507  12.846   6.650   9.896  0.0320 -0.0399 -0.0589
  595loPI   PO4 9508  13.077   6.201   9.519  0.0647  0.0389 -0.3895
  595loPI   GL1 9509  13.219   6.077   9.224  0.0544 -0.0132  0.1488
  595loPI   GL2 9510  12.826   6.002   9.079 -0.0758  0.1463 -0.4471
  595loPI   C1A 9511  13.276   6.193   8.813 -0.4364 -0.0141  0.0822
  595loPI   C2A 9512  13.118   6.273   8.497  0.0107 -0.2683 -0.5297
  595loPI   C3A 9513  12.854   6.184   8.256 -0.0050  0.1563 -0.5104
  595loPI   C4A 9514  12.831   5.883   7.917 -0.2031 -0.0582  0.0306
  595loPI   C5A 9515  12.726   5.494   7.664 -0.2171 -0.1057 -0.0964
  595loPI   C6A 9516  12.671   5.245   7.254 -0.1710  0.3086  0.1074
  595loPI   C1B 9517  12.853   5.849   8.650 -0.0451 -0.1678  0.0144
  595loPI   C2B 9518  12.608   5.615   8.281  0.2182 -0.1229  0.3521
  595loPI   C3B 9519  12.532   5.195   8.050 -0.0854  0.1569  0.0554
  595loPI   C4B 9520  12.566   4.944   7.620 -0.4256  0.3911  0.2315
  596loPI    C1 9521   4.710   7.269  10.173 -0.2523  0.0329  0.0125
  596loPI    C2 9522   4.815   6.954  10.397 -0.0696  0.0385 -0.0637
  596loPI    C3 9523   4.795   7.318  10.561 -0.0090  0.0307 -0.0389
  596loPI   PO4 9524   4.744   7.168   9.926  0.3993 -0.1017  0.1499
  596loPI   GL1 9525   4.602   7.190   9.567 -0.0136 -0.0981 -0.0475
  596loPI   GL2 9526   4.447   6.974   9.521  0.0155  0.0102 -0.0990
  596loPI   C1A 9527   4.319   7.331   9.191  0.1472 -0.1352 -0.0257
  596loPI   C2A 9528   4.187   7.644   8.815  0.0743  0.0183 -0.0307
  596loPI   C3A 9529   4.112   7.866   8.547  0.1187  0.1179 -0.2247
  596loPI   C4A 9530   4.303   8.145   8.338 -0.0719  0.0420  0.1380
  596loPI   C5A 9531   4.423   8.384   7.958  0.0400 -0.2036  0.0822
  596loPI   C6A 9532   4.601   8.220   7.647 -0.1343 -0.3156 -0.0711
  596loPI   C1B 9533   4.821   7.020   9.096  0.0475  0.2243  0.0297
  596loPI   C2B 9534   5.220   7.173   8.829  0.4036 -0.2011  0.1622
  596loPI   C3B 9535   5.218   7.055   8.375  0.2344 -0.1312 -0.3724
  596loPI   C4B 9536   5.060   6.730   8.116 -0.0184  0.1219 -0.2493
  597loPI    C1 9537  13.902   7.930   9.751 -0.0449  0.1200 -0.1814
  597loPI    C2 9538  13.694   8.174   9.512 -0.2076  0.1313 -0.0299
  597loPI    C3 9539  13.758   8.274   9.894  0.1415  0.1624 -0.0936
  597loPI   PO4 9540  14.100   7.859   9.522  0.3862 -0.1373 -0.1106
  597loPI   GL1 9541  14.148   7.985   9.042  0.6091 -0.0196  0.1306
  597loPI   GL2 9542  14.280   7.773   9.065 -0.1287  0.2753 -0.0347
  597loPI   C1A 9543  13.997   7.830   8.649  0.1052 -0.0032  0.0904
  597loPI   C2A 9544  13.795   7.498   8.421  0.1362  0.2343 -0.1440
  597loPI   C3A 9545  13.896   7.118   8.133  0.1487 -0.2052 -0.4138
  597loPI   C4A 9546  13.762   6.882   7.835 -0.1673  0.1289  0.1610
  597loPI   C5A 9547  13.670   6.460   7.765  0.1398 -0.1728  0.0686
  597loPI   C6A 9548  13.588   6.040   7.707 -0.1168 -0.0735  0.0721
  597loPI   C1B 9549  14.475   7.622   8.748 -0.1990 -0.1155  0.0677
  597loPI   C2B 9550  14.736   7.440   8.426 -0.0301  0.1041  0.2214
  597loPI   C3B 9551  14.865   7.145   8.127 -0.0224 -0.0696  0.1666
  597loPI   C4B 9552  14.937   7.009   7.716  0.0494  0.1404 -0.1617
  598loPI    C1 9553  10.112  14.316   9.948 -0.2478 -0.0725  0.0066
  598loPI    C2 9554   9.729  14.384  10.044 -0.2190  0.3503 -0.1577
  598loPI    C3 9555  10.019  14.465  10.308 -0.2543 -0.2721  0.0889
  598loPI   PO4 9556  10.078  14.249   9.685  0.0418  0.0857  0.2699
  598loPI   GL1 9557   9.739  14.089   9.590  0.1301  0.1771 -0.1508
  598loPI   GL2 9558   9.438  14.085   9.688 -0.0927 -0.1576  0.0241
  598loPI   C1A 9559   9.696  14.226   9.147  0.0877  0.2772  0.2477
  598loPI   C2A 9560   9.422  14.310   8.857  0.0578 -0.0074  0.0827
  598loPI   C3A 9561   9.054  14.429   8.558  0.1540 -0.2510 -0.0866
  598loPI   C4A 9562   8.915  14.228   8.272 -0.0517  0.0506  0.1472
  598loPI   C5A 9563   8.627  13.981   8.068 -0.0793 -0.1147  0.1342
  598loPI   C6A 9564   8.649  13.520   8.076 -0.0465 -0.0897  0.2744
  598loPI   C1B 9565   9.263  13.977   9.282 -0.0061  0.0786  0.1851
  598loPI   C2B 9566   9.002  14.014   8.829  0.0210 -0.0368  0.0207
  598loPI   C3B 9567   8.691  13.865   8.573 -0.0200  0.1231  0.0462
  598loPI   C4B 9568   8.362  14.241   8.397  0.0088 -0.1391  0.0504
  599loPI    C1 9569  10.677  15.323   9.906 -0.1500  0.1656  0.0145
  599loPI    C2 9570  10.716  15.003  10.143  0.0690  0.2190  0.0537
  599loPI    C3 9571  10.555  15.340  10.287 -0.2061  0.1139 -0.0011
  599loPI   PO4 9572  10.609  15.171   9.687 -0.0651  0.0717  0.0868
  599loPI   GL1 9573  10.448  15.079   9.318  0.1827 -0.2706  0.3366
  599loPI   GL2 9574  10.735  14.981   9.207 -0.1215 -0.0119  0.0724
  599loPI   C1A 9575  10.332  15.335   8.981 -0.1481 -0.0472  0.2391
  599loPI   C2A 9576  10.294  15.194   8.499 -0.2881 -0.1299  0.2825
  599loPI   C3A 9577  10.377  15.314   8.052  0.1858  0.1515 -0.0177
  599loPI   C4A 9578  10.322  15.313   7.669  0.1268 -0.3160 -0.2533
  599loPI   C5A 9579  10.186  15.011   7.378  0.4225 -0.0969  0.0250
  599loPI   C6A 9580   9.879  15.126   7.141 -0.0299  0.0044 -0.0053
  599loPI   C1B 9581  10.453  14.881   8.866 -0.0559  0.0437  0.1963
  599loPI   C2B 9582  10.248  14.604   8.570  0.1596 -0.0072 -0.0468
  599loPI   C3B 9583  10.223  14.340   8.308 -0.1136  0.3432 -0.1583
  599loPI   C4B 9584  10.404  14.075   8.078 -0.2419 -0.1545  0.2277
  600loPI    C1 9585  17.546  11.808   9.771 -0.0620  0.1287  0.2324
  600loPI    C2 9586  17.834  11.549   9.872 -0.2150 -0.1396 -0.0033
  600loPI    C3 9587  17.484  11.546  10.068 -0.1802 -0.0407  0.0609
  600loPI   PO4 9588  17.723  11.967   9.544  0.2164 -0.0550 -0.0156
  600loPI   GL1 9589  17.735  12.289   9.217  0.2725 -0.2866 -0.1734
  600loPI   GL2 9590  17.805  12.006   9.028  0.0143  0.2316 -0.0183
  600loPI   C1A 9591  17.791  12.451   8.776  0.0481  0.1108 -0.0394
  600loPI   C2A 9592  17.806  12.578   8.328  0.0440 -0.0025  0.0855
  600loPI   C3A 9593  17.857  12.666   8.012 -0.1987  0.0603  0.1322
  600loPI   C4A 9594  17.842  12.634   7.610 -0.1128 -0.0602  0.2854
  600loPI   C5A 9595  17.884  12.690   7.157 -0.1676 -0.2310 -0.3499
  600loPI   C6A 9596  17.635  12.806   6.890 -0.0550 -0.0889 -0.0568
  600loPI   C1B 9597  17.980  12.046   8.652  0.1937  0.2360 -0.5082
  600loPI   C2B 9598  17.951  12.097   8.237  0.1550 -0.2152 -0.0511
  600loPI   C3B 9599  17.778  12.160   7.925  0.2801  0.3473 -0.1521
  600loPI   C4B 9600  17.759  12.046   7.623  0.1930  0.2057 -0.1653
  601loPI    C1 9601   5.292  15.841  10.099  0.1880  0.1327  0.2638
  601loPI    C2 9602   5.029  15.789  10.395  0.0016  0.1583  0.1046
  601loPI    C3 9603   5.020  15.549  10.076  0.0299  0.2970 -0.0014
  601loPI   PO4 9604   5.333  16.078   9.962  0.0651 -0.0780  0.1711
  601loPI   GL1 9605   5.371  16.078   9.551  0.0139  0.1407  0.2319
  601loPI   GL2 9606   5.008  16.113   9.566 -0.2594 -0.0918 -0.0506
  601loPI   C1A 9607   5.375  15.986   9.143  0.2087 -0.0758  0.0771
  601loPI   C2A 9608   5.429  15.955   8.734 -0.1893  0.0744 -0.0299
  601loPI   C3A 9609   5.380  15.831   8.323 -0.0748 -0.1162  0.0856
  601loPI   C4A 9610   5.401  15.566   8.034  0.2157  0.0897  0.1349
  601loPI   C5A 9611   5.644  15.330   7.700  0.1887 -0.1637  0.1299
  601loPI   C6A 9612   5.582  15.389   7.211 -0.0577 -0.2492  0.3262
  601loPI   C1B 9613   4.852  16.032   9.142  0.0740 -0.1268 -0.0413
  601loPI   C2B 9614   4.914  16.031   8.740  0.0410 -0.0184 -0.0614
  601loPI   C3B 9615   4.760  15.919   8.342 -0.2683  0.1143  0.0564
  601loPI   C4B 9616   4.877  15.644   7.962 -0.1567 -0.0728 -0.0285
  602loPI    C1 9617  17.761  13.995   9.527 -0.3088 -0.1469 -0.2192
  602loPI    C2 9618  17.606  14.357   9.599 -0.1020 -0.0507 -0.2519
  602loPI    C3 9619  17.493  14.044   9.820  0.2322  0.1662  0.2445
  602loPI   PO4 9620  17.736  13.928   9.263 -0.0553 -0.1215 -0.0770
  602loPI   GL1 9621  17.729  14.104   8.874  0.1065 -0.2415  0.2763
  602loPI   GL2 9622  18.049  13.950   8.838 -0.0682 -0.0314 -0.2009
  602loPI   C1A 9623  17.608  14.279   8.543  0.2455 -0.0699  0.0295
  602loPI   C2A 9624  17.741  14.350   8.093 -0.0948  0.0178  0.0871
  602loPI   C3A 9625  17.889  14.455   7.778 -0.3221 -0.0782  0.2321
  602loPI   C4A 9626  17.750  14.341   7.323  0.0621  0.1582 -0.2748
  602loPI   C5A 9627  17.850  13.994   7.201 -0.0896 -0.0826  0.0937
  602loPI   C6A 9628  17.909  13.785   6.878 -0.2622 -0.0058  0.1870
  602loPI   C1B 9629  17.971  14.012   8.364 -0.0465 -0.0647  0.1226
  602loPI   C2B 9630  18.108  13.972   7.917 -0.0576 -0.2660  0.0490
  602loPI   C3B 9631  18.244  14.109   7.539 -0.2718  0.1288  0.1415
  602loPI   C4B 9632  18.313  13.817   7.164  0.3385 -0.0232 -0.0992
  603loPI    C1 9633  11.233   1.406   9.684 -0.0676  0.2955  0.1875
  603loPI    C2 9634  11.501   1.255   9.940  0.1378  0.1735 -0.0947
  603loPI    C3 9635  11.198   1.029   9.810  0.0997  0.1984 -0.0495
  603loPI   PO4 9636  11.211   1.523   9.513 -0.0533 -0.0465  0.1386
  603loPI   GL1 9637  11.009   1.556   9.067 -0.0464  0.2496  0.2645
  603loPI   GL2 9638  11.167   1.742   8.894  0.1657 -0.1708  0.4058
  603loPI   C1A 9639  10.936   1.267   8.653  0.0120 -0.1144 -0.0720
  603loPI   C2A 9640  10.875   1.063   8.228 -0.0014  0.6912  0.0825
  603loPI   C3A 9641  10.584   0.959   7.929  0.2476  0.1337 -0.1327
  603loPI   C4A 9642  10.557   1.094   7.475  0.1757 -0.1030  0.3671
  603loPI   C5A 9643  10.411   1.023   7.086  0.0595  0.2143  0.2921
  603loPI   C6A 9644  10.263   0.838   6.703 -0.3472 -0.1091  0.0830
  603loPI   C1B 9645  11.229   1.682   8.482  0.2146  0.0156  0.0503
  603loPI   C2B 9646  11.269   1.729   8.021 -0.1413  0.4334  0.1045
  603loPI   C3B 9647  11.392   1.647   7.497 -0.0024 -0.2274  0.1422
  603loPI   C4B 9648  11.493   1.343   7.189  0.0697 -0.2101 -0.0450
  604loPI    C1 9649   2.353   4.984   9.746 -0.0027  0.1094  0.1142
  604loPI    C2 9650   2.671   5.222   9.696 -0.1314  0.2783  0.0872
  604loPI    C3 9651   2.695   4.903   9.937  0.0722  0.2613  0.0465
  604loPI   PO4 9652   2.230   5.016   9.458 -0.1498  0.2656  0.2292
  604loPI   GL1 9653   2.476   5.358   9.220  0.2030  0.0618 -0.0459
  604loPI   GL2 9654   2.788   5.427   9.246  0.2453 -0.0448 -0.1882
  604loPI   C1A 9655   2.565   5.186   8.768 -0.1505 -0.5548  0.0520
  604loPI   C2A 9656   2.281   5.093   8.444 -0.3851 -0.0744  0.1193
  604loPI   C3A 9657   2.227   4.938   8.047 -0.1283 -0.0264  0.1408
  604loPI   C4A 9658   1.977   5.076   7.707 -0.1743  0.1225 -0.1079
  604loPI   C5A 9659   1.892   5.061   7.318  0.1478 -0.0147  0.0860
  604loPI   C6A 9660   1.811   5.106   6.894 -0.0312 -0.2069  0.0312
  604loPI   C1B 9661   2.963   5.458   8.863 -0.0111  0.1575  0.3061
  604loPI   C2B 9662   3.328   5.319   8.786  0.2404  0.0959  0.2713
  604loPI   C3B 9663   3.505   5.295   8.358 -0.0447 -0.0473  0.2804
  604loPI   C4B 9664   3.701   5.598   8.106  0.2903 -0.0203  0.1431
  605loPI    C1 9665   1.908   9.147  10.005  0.1556  0.0790  0.1321
  605loPI    C2 9666   1.578   9.267   9.815  0.2380  0.0720 -0.0168
  605loPI    C3 9667   1.599   9.292  10.213  0.0499  0.0520 -0.0047
  605loPI   PO4 9668   2.164   9.261   9.829  0.1345  0.1232 -0.0954
  605loPI   GL1 9669   2.063   9.278   9.426  0.2227 -0.1605  0.2362
  605loPI   GL2 9670   1.757   9.299   9.270 -0.0845 -0.1927  0.0418
  605loPI   C1A 9671   2.212   9.039   9.005 -0.0396 -0.0811 -0.1073
  605loPI   C2A 9672   2.036   9.042   8.677  0.0359  0.2380  0.4477
  605loPI   C3A 9673   1.828   8.967   8.298  0.0946 -0.0804  0.2952
  605loPI   C4A 9674   1.700   9.040   7.903 -0.0979  0.1051  0.0298
  605loPI   C5A 9675   1.869   8.736   7.623 -0.0399  0.1369 -0.1017
  605loPI   C6A 9676   1.904   8.254   7.719  0.2923  0.0333  0.1678
  605loPI   C1B 9677   1.730   9.394   8.909 -0.0285  0.0346  0.0406
  605loPI   C2B 9678   1.571   9.602   8.562 -0.0586  0.0059  0.2467
  605loPI   C3B 9679   1.456   9.485   8.226 -0.1479  0.1600  0.4826
  605loPI   C4B 9680   1.485   9.467   7.834  0.1262  0.0364 -0.2954
  606loPI    C1 9681  16.670   6.552  10.502  0.0534 -0.0771  0.1518
  606loPI    C2 9682  17.053   6.664  10.529  0.0849 -0.1576  0.0489
  606loPI    C3 9683  16.843   6.590  10.861  0.1747 -0.1686  0.1038
  606loPI   PO4 9684  16.569   6.731  10.243 -0.0755  0.1342 -0.3132
  606loPI   GL1 9685  16.459   6.482   9.898  0.1423  0.1194 -0.2067
  606loPI   GL2 9686  16.760   6.628   9.690 -0.2003 -0.0838  0.0622
  606loPI   C1A 9687  16.379   6.485   9.480  0.0670  0.2512  0.1841
  606loPI   C2A 9688  16.612   6.513   9.181 -0.1145  0.1325  0.2413
  606loPI   C3A 9689  16.602   6.385   8.705  0.1439 -0.1463  0.0838
  606loPI   C4A 9690  16.478   6.370   8.233 -0.0225 -0.0690  0.1367
  606loPI   C5A 9691  16.430   6.035   7.877  0.1125  0.1760 -0.0479
  606loPI   C6A 9692  16.129   5.820   7.650 -0.1991 -0.0248 -0.4774
  606loPI   C1B 9693  17.095   6.548   9.387 -0.3482 -0.0149  0.2647
  606loPI   C2B 9694  17.139   6.600   8.919  0.2120 -0.0024  0.2437
  606loPI   C3B 9695  17.008   6.510   8.474  0.1769 -0.0106  0.2558
  606loPI   C4B 9696  16.896   6.651   8.170 -0.1368 -0.0305  0.1119
  607loPI    C1 9697  14.109   4.982   9.974  0.0664  0.0216  0.1672
  607loPI    C2 9698  14.473   5.148   9.980  0.0274  0.1443 -0.3903
  607loPI    C3 9699  14.149   5.376   9.919 -0.1235  0.0005 -0.1442
  607loPI   PO4 9700  14.156   4.797   9.760  0.3865 -0.4226  0.1482
  607loPI   GL1 9701  14.150   4.780   9.447 -0.3890  0.1576 -0.1899
  607loPI   GL2 9702  14.178   4.554   9.248 -0.1669 -0.0550 -0.0398
  607loPI   C1A 9703  14.262   4.970   9.055  0.2338  0.0708 -0.1783
  607loPI   C2A 9704  14.250   5.053   8.663  0.0076 -0.3188 -0.3051
  607loPI   C3A 9705  14.274   5.402   8.423 -0.0251  0.2958  0.0287
  607loPI   C4A 9706  14.557   5.467   8.038 -0.0214  0.0474 -0.2770
  607loPI   C5A 9707  14.627   5.430   7.657 -0.3045 -0.0605  0.0649
  607loPI   C6A 9708  14.511   5.353   7.225  0.2610  0.0148 -0.1567
  607loPI   C1B 9709  14.263   4.555   8.750  0.3327 -0.1553 -0.1546
  607loPI   C2B 9710  14.308   4.623   8.443  0.0275  0.0364 -0.3391
  607loPI   C3B 9711  14.426   5.012   8.094  0.0636  0.0335 -0.2269
  607loPI   C4B 9712  14.095   5.227   7.987 -0.0648  0.2809  0.2263
  608loPI    C1 9713   3.828  15.848   9.980  0.0720  0.1105  0.0560
  608loPI    C2 9714   4.040  15.939  10.307  0.0116 -0.0658  0.1455
  608loPI    C3 9715   3.680  15.769  10.343 -0.0247 -0.0239 -0.0119
  608loPI   PO4 9716   3.976  15.707   9.873 -0.3996  0.2012 -0.4856
  608loPI   GL1 9717   4.040  15.782   9.440 -0.1476  0.0111 -0.1502
  608loPI   GL2 9718   3.841  15.554   9.324 -0.5239  0.1635 -0.0671
  608loPI   C1A 9719   3.884  15.998   8.999 -0.1489  0.1705  0.2096
  608loPI   C2A 9720   3.865  16.128   8.497 -0.1409 -0.0972 -0.2240
  608loPI   C3A 9721   3.856  16.245   8.069 -0.2333 -0.1660 -0.1662
  608loPI   C4A 9722   3.797  16.457   7.739 -0.1337 -0.0622 -0.4795
  608loPI   C5A 9723   3.584  16.349   7.340  0.0424 -0.0328 -0.1869
  608loPI   C6A 9724   3.553  16.162   6.967 -0.0545 -0.2835 -0.4409
  608loPI   C1B 9725   3.662  15.361   8.992 -0.2263  0.0012 -0.0630
  608loPI   C2B 9726   3.425  15.304   8.560  0.0236 -0.0339 -0.2103
  608loPI   C3B 9727   3.440  15.076   8.212  0.2368  0.0068  0.2561
  608loPI   C4B 9728   3.414  14.867   7.795 -0.0176  0.1544  0.0367
  609POPI    C1 9729  18.337   2.123   9.602  0.1750  0.0211 -0.0279
  609POPI    C2 9730  18.154   2.209   9.947  0.1663  0.1864 -0.0730
  609POPI    C3 9731  18.434   1.924   9.936 -0.2071 -0.1933 -0.0385
  609POPI   PO4 9732  18.169   2.072   9.450 -0.0499 -0.1515  0.1287
  609POPI   GL1 9733  18.139   1.874   9.040  0.1255 -0.1039  0.0830
  609POPI   GL2 9734  17.818   2.118   9.023 -0.2349  0.0810  0.1509
  609POPI   C1A 9735  17.989   1.952   8.573  0.2541 -0.0586 -0.0239
  609POPI   D2A 9736  17.807   2.111   8.329 -0.2091 -0.1257 -0.0334
  609POPI   C3A 9737  17.899   1.959   7.872  0.2874 -0.0575 -0.0131
  609POPI   C4A 9738  17.881   1.711   7.529 -0.2238  0.0449  0.0112
  609POPI   C1B 9739  17.792   2.482   8.691 -0.0682 -0.2721 -0.1276
  609POPI   C2B 9740  17.803   2.826   8.442  0.1424 -0.1857  0.0062
  609POPI   C3B 9741  17.581   2.828   8.104  0.2410  0.2552  0.1404
  609POPI   C4B 9742  17.140   2.674   8.072 -0.1715  0.0907 -0.1171
  610POPI    C1 9743   6.690  18.484   9.860  0.0623  0.0753  0.1556
  610POPI    C2 9744   6.985  18.434  10.125  0.1228 -0.1621  0.0465
  610POPI    C3 9745   6.639  18.240  10.173  0.0676 -0.0637  0.0495
  610POPI   PO4 9746   6.908  18.440   9.623 -0.3059  0.0170 -0.1596
  610POPI   GL1 9747   6.820  18.249   9.249  0.2598 -0.1193  0.0219
  610POPI   GL2 9748   6.504  18.034   9.083  0.2350 -0.1979  0.0750
  610POPI   C1A 9749   6.953  18.063   8.923 -0.0798  0.0109  0.0504
  610POPI   D2A 9750   7.008  18.153   8.454 -0.0935  0.0237  0.0806
  610POPI   C3A 9751   7.268  17.988   8.065  0.0217 -0.1940  0.2506
  610POPI   C4A 9752   7.652  18.049   7.791 -0.3880  0.0632 -0.1178
  610POPI   C1B 9753   6.486  18.063   8.683 -0.2546  0.2282 -0.0256
  610POPI   C2B 9754   6.500  18.305   8.431 -0.0105 -0.1864 -0.1998
  610POPI   C3B 9755   6.333  18.650   8.111  0.3193  0.0433 -0.1456
  610POPI   C4B 9756   6.297  18.883   7.709 -0.1472 -0.0269 -0.0488
  611POPI    C1 9757  12.512   3.197   9.961  0.1465  0.1732 -0.2155
  611POPI    C2 9758  12.623   2.841   9.817  0.0445  0.0735 -0.0509
  611POPI    C3 9759  12.730   2.949  10.187 -0.1119  0.1213 -0.0189
  611POPI   PO4 9760  12.441   3.365   9.642  0.2399  0.1308 -0.0705
  611POPI   GL1 9761  12.522   3.534   9.207  0.0525  0.0794  0.1330
  611POPI   GL2 9762  12.247   3.729   9.269 -0.1761 -0.0496  0.1933
  611POPI   C1A 9763  12.476   3.918   8.864 -0.0368 -0.2453  0.3871
  611POPI   D2A 9764  12.290   4.184   8.571 -0.2461 -0.1819 -0.1742
  611POPI   C3A 9765  12.079   4.029   8.071 -0.2573  0.0286  0.1273
  611POPI   C4A 9766  11.759   3.836   7.876 -0.1411 -0.1742  0.3423
  611POPI   C1B 9767  12.187   3.510   8.865  0.0076  0.0017  0.0367
  611POPI   C2B 9768  12.375   3.295   8.528  0.0311 -0.1484 -0.0705
  611POPI   C3B 9769  12.399   3.241   8.073  0.0582  0.2300  0.3422
  611POPI   C4B 9770  12.552   3.285   7.626 -0.1318  0.1442 -0.1599
  612POPI    C1 9771   2.763   1.393   9.790 -0.1534 -0.1196 -0.0739
  612POPI    C2 9772   2.532   1.262  10.090 -0.1383  0.3502  0.1526
  612POPI    C3 9773   2.907   1.380  10.163  0.0179  0.0458 -0.1327
  612POPI   PO4 9774   2.608   1.156   9.595  0.0756  0.2030  0.3088
  612POPI   GL1 9775   2.506   0.825   9.261  0.0865 -0.0460  0.2810
  612POPI   GL2 9776   2.708   0.573   9.080  0.3479  0.0118  0.0430
  612POPI   C1A 9777   2.519   0.991   8.757  0.1115 -0.0277  0.2438
  612POPI   D2A 9778   2.721   0.978   8.334  0.0151  0.2258  0.0413
  612POPI   C3A 9779   2.802   0.899   7.896  0.2752 -0.0915 -0.1288
  612POPI   C4A 9780   2.748   1.052   7.480  0.3631 -0.2281 -0.1463
  612POPI   C1B 9781   2.743   0.284   8.785 -0.1112  0.0011  0.2074
  612POPI   C2B 9782   2.684   0.007   8.474  0.1066  0.0299 -0.1220
  612POPI   C3B 9783   2.568  -0.083   8.028  0.1255 -0.0764 -0.2651
  612POPI   C4B 9784   2.561   0.092   7.676  0.1131 -0.1994 -0.0904
  613POPI    C1 9785   2.477   3.945   9.596 -0.1566 -0.0114  0.1504
  613POPI    C2 9786   2.835   3.857   9.752 -0.0069  0.0479 -0.1514
  613POPI    C3 9787   2.560   4.046   9.974  0.1151 -0.0768  0.1101
  613POPI   PO4 9788   2.569   4.122   9.342 -0.0817 -0.3058 -0.1799
  613POPI   GL1 9789   2.869   4.018   8.899 -0.1677  0.2173 -0.1566
  613POPI   GL2 9790   2.604   4.078   8.764 -0.0471 -0.1787 -0.1229
  613POPI   C1A 9791   3.112   4.338   8.628  0.0626 -0.2246  0.0384
  613POPI   D2A 9792   3.279   4.202   8.293 -0.1340  0.0192 -0.0889
  613POPI   C3A 9793   3.564   4.054   7.992 -0.0350  0.0553  0.2364
  613POPI   C4A 9794   3.643   4.021   7.587 -0.2121 -0.2289 -0.4895
  613POPI   C1B 9795   2.759   4.138   8.285  0.3297 -0.2450 -0.1337
  613POPI   C2B 9796   2.708   4.112   7.784  0.2024  0.0685 -0.0840
  613POPI   C3B 9797   2.713   4.477   7.508  0.0633 -0.3330 -0.0434
  613POPI   C4B 9798   2.750   4.834   7.233  0.2815 -0.0504 -0.0750
  614POPI    C1 9799   4.159  19.088  10.131  0.2165  0.2808 -0.1959
  614POPI    C2 9800   3.970  19.440  10.158 -0.2419  0.0266  0.0213
  614POPI    C3 9801   4.130  19.273  10.485 -0.1720 -0.0448 -0.0492
  614POPI   PO4 9802   3.964  18.962   9.928  0.1189 -0.1795 -0.0544
  614POPI   GL1 9803   4.061  18.984   9.565 -0.0131  0.1297 -0.0216
  614POPI   GL2 9804   3.946  18.826   9.399  0.1125  0.1878  0.1732
  614POPI   C1A 9805   4.341  19.074   9.214  0.0518  0.0416 -0.2057
  614POPI   D2A 9806   4.368  19.055   8.814  0.1669 -0.2928 -0.2884
  614POPI   C3A 9807   4.390  18.878   8.419 -0.0800  0.0116  0.1107
  614POPI   C4A 9808   4.535  18.865   7.978 -0.1888  0.2299  0.2459
  614POPI   C1B 9809   4.197  18.562   9.102 -0.0783  0.2043  0.0931
  614POPI   C2B 9810   4.166  18.382   8.735  0.0354 -0.3934  0.0783
  614POPI   C3B 9811   3.979  18.477   8.279  0.1175 -0.1225 -0.0630
  614POPI   C4B 9812   4.076  18.586   7.946  0.4095 -0.2262  0.1001
  615POPI    C1 9813  11.461   3.937  10.035 -0.0482 -0.0822 -0.1869
  615POPI    C2 9814  11.836   3.873  10.159  0.0090  0.1231 -0.2493
  615POPI    C3 9815  11.547   3.950  10.426  0.0472  0.1442 -0.2139
  615POPI   PO4 9816  11.416   3.755   9.811 -0.0797 -0.1372 -0.1102
  615POPI   GL1 9817  11.307   3.726   9.402  0.0749 -0.0642 -0.1499
  615POPI   GL2 9818  11.590   3.899   9.250  0.3097 -0.0400 -0.1655
  615POPI   C1A 9819  11.124   3.634   9.038 -0.2163 -0.0821 -0.1789
  615POPI   D2A 9820  11.338   3.521   8.617 -0.1265  0.0993 -0.4355
  615POPI   C3A 9821  11.530   3.721   8.323 -0.1903 -0.1695  0.0333
  615POPI   C4A 9822  11.628   4.236   8.495  0.2040 -0.0685 -0.3157
  615POPI   C1B 9823  11.504   3.997   8.903 -0.0346 -0.0300  0.0634
  615POPI   C2B 9824  11.155   4.003   8.647  0.0162  0.0684  0.3685
  615POPI   C3B 9825  11.091   4.083   8.147 -0.1968  0.0917 -0.0394
  615POPI   C4B 9826  10.924   4.432   7.868 -0.1068 -0.1419  0.1836
  616POPI    C1 9827   2.080  17.065   9.906 -0.0881 -0.3709 -0.1404
  616POPI    C2 9828   2.422  16.862   9.951  0.0968 -0.1172 -0.3703
  616POPI    C3 9829   2.416  17.259  10.007 -0.2625 -0.1782  0.0811
  616POPI   PO4 9830   1.951  17.043   9.573 -0.1930  0.0527  0.0036
  616POPI   GL1 9831   1.749  16.972   9.257 -0.0305  0.0570  0.0790
  616POPI   GL2 9832   1.426  17.045   9.148  0.0587 -0.3014  0.0555
  616POPI   C1A 9833   1.700  16.752   8.758 -0.1986 -0.2582  0.1284
  616POPI   D2A 9834   1.835  16.592   8.414 -0.2496  0.1092 -0.1066
  616POPI   C3A 9835   1.795  16.547   8.099 -0.2517  0.0633  0.1830
  616POPI   C4A 9836   2.196  16.532   7.868  0.1055  0.0612  0.0174
  616POPI   C1B 9837   1.264  17.033   8.779 -0.0629 -0.1893 -0.3404
  616POPI   C2B 9838   1.316  16.775   8.430  0.1275  0.0489  0.1055
  616POPI   C3B 9839   1.342  16.805   8.033  0.2963 -0.1159 -0.0579
  616POPI   C4B 9840   1.536  16.988   7.688 -0.0287 -0.0987 -0.1603
  617POPI    C1 9841  17.201  18.795   9.530 -0.1494 -0.1348  0.1352
  617POPI    C2 9842  17.295  18.598   9.195 -0.0936  0.0139  0.0628
  617POPI    C3 9843  17.456  18.488   9.544  0.0600  0.0301 -0.0023
  617POPI   PO4 9844  17.179  19.110   9.470  0.0363 -0.2070  0.0054
  617POPI   GL1 9845  17.308  19.409   9.155 -0.3740  0.2243  0.1006
  617POPI   GL2 9846  17.679  19.460   9.048  0.0285  0.2021  0.2080
  617POPI   C1A 9847  17.313  19.374   8.744  0.1567  0.0977 -0.4501
  617POPI   D2A 9848  17.368  19.141   8.264  0.2988 -0.3882  0.0230
  617POPI   C3A 9849  17.018  18.943   8.054  0.1710 -0.3282  0.3383
  617POPI   C4A 9850  16.835  18.567   7.796 -0.0588 -0.0336 -0.0316
  617POPI   C1B 9851  17.723  19.466   8.587 -0.0129 -0.0833  0.3405
  617POPI   C2B 9852  17.807  19.438   8.153 -0.0305  0.3155 -0.1915
  617POPI   C3B 9853  17.872  19.560   7.699  0.0561  0.0726  0.0206
  617POPI   C4B 9854  17.974  19.846   7.390 -0.0554 -0.1751  0.2161
  618POPI    C1 9855  15.493   8.017   9.913 -0.1219  0.1781  0.1430
  618POPI    C2 9856  15.670   8.248  10.187  0.0676  0.0369  0.1418
  618POPI    C3 9857  15.441   7.941  10.302 -0.0652  0.1351  0.1423
  618POPI   PO4 9858  15.280   8.066   9.798 -0.0090 -0.1845  0.1494
  618POPI   GL1 9859  15.176   7.963   9.389  0.1142 -0.1877 -0.1760
  618POPI   GL2 9860  14.843   8.036   9.251 -0.3823  0.2331  0.3630
  618POPI   C1A 9861  15.293   8.069   9.022  0.1969  0.2311  0.0616
  618POPI   D2A 9862  15.447   7.922   8.667 -0.3822 -0.2174  0.1945
  618POPI   C3A 9863  15.498   7.527   8.409  0.4928 -0.1786  0.2498
  618POPI   C4A 9864  15.308   7.350   8.131 -0.0981  0.2051 -0.1201
  618POPI   C1B 9865  14.874   7.895   8.843  0.0760  0.2205  0.0109
  618POPI   C2B 9866  15.059   7.793   8.429 -0.1349  0.1242  0.1015
  618POPI   C3B 9867  15.257   7.858   8.144  0.1767 -0.2225  0.0168
  618POPI   C4B 9868  15.183   8.031   7.722  0.2709  0.1272 -0.0682
  619POPI    C1 9869   7.372   5.553  10.092 -0.2080 -0.1158  0.0994
  619POPI    C2 9870   7.435   5.930  10.209 -0.2735 -0.1158  0.1347
  619POPI    C3 9871   7.694   5.752   9.962 -0.2602 -0.0365  0.0913
  619POPI   PO4 9872   7.179   5.526   9.991 -0.0325 -0.1961 -0.1454
  619POPI   GL1 9873   7.043   5.310   9.732 -0.0992  0.0746 -0.1549
  619POPI   GL2 9874   7.287   5.151   9.611 -0.1340 -0.1359  0.0326
  619POPI   C1A 9875   6.733   5.648   9.527 -0.2122 -0.2567  0.0223
  619POPI   D2A 9876   6.697   5.801   9.088 -0.4207  0.0592  0.0161
  619POPI   C3A 9877   6.726   6.147   9.116 -0.3993  0.0722 -0.2806
  619POPI   C4A 9878   6.583   6.409   8.970 -0.0619  0.1017  0.1858
  619POPI   C1B 9879   7.161   5.501   9.257  0.0084  0.0055 -0.0501
  619POPI   C2B 9880   7.217   5.736   8.902  0.0947  0.4553 -0.0545
  619POPI   C3B 9881   7.180   5.753   8.458  0.0929  0.3170  0.1690
  619POPI   C4B 9882   7.126   5.887   8.055 -0.0461  0.0271  0.0891
  620POPI    C1 9883  18.294  10.296   9.520 -0.2212  0.0036  0.1612
  620POPI    C2 9884  18.104  10.648   9.528  0.0693  0.1762 -0.2258
  620POPI    C3 9885  18.504  10.637   9.535  0.0618 -0.1489 -0.1878
  620POPI   PO4 9886  18.097  10.164   9.530  0.0618 -0.0622  0.1687
  620POPI   GL1 9887  18.183   9.912   9.151 -0.0468  0.0731  0.2736
  620POPI   GL2 9888  18.366   9.572   9.198  0.2275  0.2142  0.0645
  620POPI   C1A 9889  18.039  10.029   8.734  0.0874  0.3280  0.0583
  620POPI   D2A 9890  17.620  10.113   8.558  0.0976 -0.1065 -0.0955
  620POPI   C3A 9891  17.522  10.551   8.503  0.3969  0.1145  0.1260
  620POPI   C4A 9892  17.441  10.744   8.211  0.0762  0.0479 -0.2211
  620POPI   C1B 9893  18.229   9.437   8.776 -0.2033  0.0112  0.1292
  620POPI   C2B 9894  18.334   9.535   8.307  0.0780 -0.2338  0.1474
  620POPI   C3B 9895  18.525   9.579   7.911 -0.1833 -0.0581 -0.0930
  620POPI   C4B 9896  18.922   9.614   7.774 -0.1718 -0.0504  0.0580
  621POPI    C1 9897  13.587  11.228   9.935 -0.0232 -0.0098  0.2254
  621POPI    C2 9898  13.508  11.579   9.760 -0.0127 -0.1697 -0.1077
  621POPI    C3 9899  13.777  11.559  10.056 -0.1806  0.1390  0.0711
  621POPI   PO4 9900  13.566  11.029   9.674 -0.1735 -0.3146  0.0822
  621POPI   GL1 9901  13.564  11.175   9.287 -0.0784 -0.2133 -0.0264
  621POPI   GL2 9902  13.221  11.119   9.241 -0.3775  0.1309  0.1991
  621POPI   C1A 9903  13.585  11.236   8.853 -0.3501 -0.2297  0.0313
  621POPI   D2A 9904  13.613  11.507   8.358 -0.0702  0.2363 -0.0868
  621POPI   C3A 9905  13.375  11.245   8.057 -0.1426  0.3295 -0.2436
  621POPI   C4A 9906  13.244  11.255   7.665  0.0232 -0.1190 -0.0908
  621POPI   C1B 9907  12.867  11.211   8.862 -0.1759  0.4659  0.0858
  621POPI   C2B 9908  12.345  11.296   9.005  0.1963 -0.2693 -0.0129
  621POPI   C3B 9909  12.047  11.363   8.588  0.0474  0.2438  0.0138
  621POPI   C4B 9910  11.984  11.426   8.144 -0.0091 -0.1612  0.4034
  622POPI    C1 9911  13.388   7.888   9.709 -0.0621  0.1540 -0.1499
  622POPI    C2 9912  13.145   7.735   9.988  0.0036  0.1363 -0.1022
  622POPI    C3 9913  13.357   8.066  10.066  0.1378  0.0449 -0.0768
  622POPI   PO4 9914  13.468   7.688   9.618 -0.1107  0.2083 -0.1221
  622POPI   GL1 9915  13.739   7.715   9.199  0.2663  0.0988  0.1938
  622POPI   GL2 9916  13.440   7.535   9.172  0.2125 -0.0154  0.0435
  622POPI   C1A 9917  13.832   7.421   8.894 -0.0768  0.1947  0.1084
  622POPI   D2A 9918  13.777   6.991   8.820  0.2236  0.1607  0.3818
  622POPI   C3A 9919  13.973   6.835   8.532  0.1455  0.2211 -0.1081
  622POPI   C4A 9920  14.165   6.471   8.353 -0.0604  0.1329 -0.1126
  622POPI   C1B 9921  13.095   7.688   8.895 -0.2011 -0.0701 -0.0353
  622POPI   C2B 9922  12.760   7.711   8.585  0.0763  0.3843 -0.1470
  622POPI   C3B 9923  12.689   7.874   8.222  0.0905  0.0474 -0.2245
  622POPI   C4B 9924  12.708   8.134   7.971  0.0449 -0.3353 -0.1742
  623POPI    C1 9925   9.908   4.866   9.978  0.1642 -0.0435 -0.0835
  623POPI    C2 9926  10.166   4.673  10.215  0.1351 -0.0388 -0.0480
  623POPI    C3 9927  10.243   5.048  10.099  0.0078  0.0645  0.1958
  623POPI   PO4 9928   9.870   4.720   9.736  0.0576  0.1270  0.1882
  623POPI   GL1 9929  10.147   4.827   9.362 -0.0175 -0.0692  0.0120
  623POPI   GL2 9930  10.393   4.647   9.215  0.0098 -0.2720  0.0252
  623POPI   C1A 9931  10.090   4.917   8.992 -0.3182  0.0268 -0.1719
  623POPI   D2A 9932  10.270   5.070   8.618  0.1752  0.2850 -0.0161
  623POPI   C3A 9933  10.597   4.989   8.256 -0.0848 -0.0982 -0.0903
  623POPI   C4A 9934  10.614   4.811   7.816  0.0309  0.2104  0.1077
  623POPI   C1B 9935  10.544   4.617   8.817  0.1809 -0.1028  0.3270
  623POPI   C2B 9936  10.795   4.984   8.692  0.1182 -0.1004  0.1441
  623POPI   C3B 9937  11.194   5.198   8.708 -0.2746 -0.1544  0.2521
  623POPI   C4B 9938  11.487   5.195   8.903  0.0601  0.1604  0.1571
  624POPI    C1 9939   0.069  18.390   9.882 -0.0320  0.0596 -0.1324
  624POPI    C2 9940   0.206  18.765   9.865  0.0273  0.0242 -0.5480
  624POPI    C3 9941  -0.139  18.686  10.051  0.3149  0.1868  0.0825
  624POPI   PO4 9942   0.135  18.368   9.604 -0.1681  0.0081 -0.0043
  624POPI   GL1 9943   0.177  18.479   9.222  0.1166  0.2033 -0.0229
  624POPI   GL2 9944   0.504  18.514   9.047 -0.3508  0.0417  0.3248
  624POPI   C1A 9945   0.135  18.552   8.723 -0.0359  0.0944  0.0549
  624POPI   D2A 9946  -0.045  18.494   8.263 -0.0845 -0.0628 -0.5039
  624POPI   C3A 9947   0.001  18.436   7.825  0.1946  0.1702  0.0994
  624POPI   C4A 9948   0.189  18.440   7.467 -0.3879  0.1346 -0.0441
  624POPI   C1B 9949   0.691  18.275   8.732  0.3440  0.1506  0.0960
  624POPI   C2B 9950   0.780  18.252   8.359  0.2515  0.1655 -0.2060
  624POPI   C3B 9951   1.043  18.444   8.055 -0.4841  0.3141  0.0025
  624POPI   C4B 9952   0.960  18.880   7.840 -0.0152 -0.4183 -0.1394
  625DPPI    C1 9953  14.688  15.399   9.426 -0.0005 -0.0622 -0.1512
  625DPPI    C2 9954  14.986  15.163   9.550  0.1027  0.0548 -0.1742
  625DPPI    C3 9955  14.757  15.355   9.817  0.0751 -0.0014 -0.1573
  625DPPI   PO4 9956  14.706  15.689   9.288  0.0136 -0.0073  0.1072
  625DPPI   GL1 9957  14.883  15.944   8.832 -0.3177  0.0366 -0.0349
  625DPPI   GL2 9958  14.994  15.627   8.818  0.2124  0.0510  0.0010
  625DPPI   C1A 9959  14.605  15.787   8.414 -0.2184 -0.0105  0.0546
  625DPPI   C2A 9960  14.626  15.700   7.992 -0.2821 -0.1635 -0.3008
  625DPPI   C3A 9961  14.935  15.488   7.644  0.1455 -0.1752  0.1536
  625DPPI   C4A 9962  15.110  15.138   7.393  0.3357 -0.0667  0.1529
  625DPPI   C1B 9963  14.900  15.240   8.689 -0.2164 -0.0895  0.0777
  625DPPI   C2B 9964  14.522  15.207   8.392 -0.1375  0.4419  0.2408
  625DPPI   C3B 9965  14.243  15.270   8.007  0.0891 -0.2593 -0.1107
  625DPPI   C4B 9966  13.927  15.190   7.731 -0.0422 -0.1965 -0.1205
  626DPPI    C1 9967  11.301  19.280   9.554 -0.0156 -0.0061  0.0902
  626DPPI    C2 9968  11.339  18.883   9.582  0.0589  0.0003  0.0826
  626DPPI    C3 9969  11.647  19.120   9.675  0.0326  0.0541  0.0327
  626DPPI   PO4 9970  11.156  19.314   9.287 -0.1854  0.2686  0.0301
  626DPPI   GL1 9971  11.200  19.343   8.885 -0.0245  0.1362 -0.3071
  626DPPI   GL2 9972  10.884  19.337   8.826 -0.0374 -0.1045 -0.0091
  626DPPI   C1A 9973  11.595  19.245   8.541  0.0983 -0.0558 -0.2866
  626DPPI   C2A 9974  11.816  19.245   8.145  0.1054  0.0711 -0.2368
  626DPPI   C3A 9975  11.839  19.149   7.761 -0.0225 -0.2619 -0.1855
  626DPPI   C4A 9976  11.555  19.063   7.378  0.0446  0.2196  0.2855
  626DPPI   C1B 9977  10.963  19.306   8.386 -0.0449 -0.3331  0.1008
  626DPPI   C2B 9978  11.251  19.207   8.105  0.0696 -0.1048 -0.3065
  626DPPI   C3B 9979  11.445  19.496   7.694 -0.3787 -0.2444 -0.1749
  626DPPI   C4B 9980  11.421  19.647   7.297  0.0361  0.3737  0.2597
  627DPPI    C1 9981  13.672  10.056   9.903  0.1123  0.0974 -0.1494
  627DPPI    C2 9982  14.063  10.127   9.952  0.1272 -0.0043 -0.1172
  627DPPI    C3 9983  13.800  10.264  10.220  0.1660 -0.1649  0.0045
  627DPPI   PO4 9984  13.590  10.061   9.650 -0.0759  0.0291 -0.1957
  627DPPI   GL1 9985  13.582  10.311   9.304  0.2650 -0.0361 -0.3606
  627DPPI   GL2 9986  13.500  10.667   9.251 -0.0726 -0.0827  0.2356
  627DPPI   C1A 9987  13.416  10.274   8.935 -0.1274 -0.0967  0.1648
  627DPPI   C2A 9988  13.287  10.399   8.569 -0.2668  0.1055  0.0568
  627DPPI   C3A 9989  13.244  10.265   8.126  0.0130  0.1237  0.0929
  627DPPI   C4A 9990  13.374  10.180   7.721 -0.2278  0.0695  0.2878
  627DPPI   C1B 9991  13.292  10.788   8.882  0.2825  0.0430 -0.0686
  627DPPI   C2B 9992  13.197  11.012   8.598 -0.0540  0.0353  0.1308
  627DPPI   C3B 9993  12.910  11.177   8.263  0.0915 -0.2258  0.0968
  627DPPI   C4B 9994  12.784  11.425   7.870  0.4439 -0.0709  0.1720
  628DPPI    C1 9995  16.960  11.104   9.488 -0.0068 -0.1948 -0.0410
  628DPPI    C2 9996  16.848  10.889   9.806  0.0202 -0.2860 -0.0929
  628DPPI    C3 9997  17.097  11.199   9.851 -0.3510 -0.0002  0.0427
  628DPPI   PO4 9998  16.653  11.170   9.362 -0.0365 -0.1299  0.1083
  628DPPI   GL1 9999  16.594  11.339   8.999 -0.3021 -0.2090 -0.2692
  628DPPI   GL210000  16.555  10.975   8.852  0.1113  0.2099 -0.1310
  628DPPI   C1A10001  16.522  11.370   8.580  0.1659 -0.1052  0.2967
  628DPPI   C2A10002  16.470  11.347   8.126 -0.2656  0.3899 -0.2397
  628DPPI   C3A10003  16.193  11.524   7.802 -0.0698 -0.1097 -0.1799
  628DPPI   C4A10004  15.867  11.647   7.516  0.0563 -0.0866  0.2202
  628DPPI   C1B10005  16.549  10.937   8.422 -0.4164  0.2543 -0.0647
  628DPPI   C2B10006  16.445  10.656   8.010 -0.0858 -0.0605 -0.1071
  628DPPI   C3B10007  16.673  10.635   7.646  0.0123 -0.0531 -0.0531
  628DPPI   C4B10008  16.864  10.442   7.344 -0.0698  0.2417 -0.2444
  629DPPI    C110009  15.350  14.324  10.037  0.0756  0.4360  0.2170
  629DPPI    C210010  14.964  14.346  10.139 -0.0230 -0.1603  0.0093
  629DPPI    C310011  15.241  14.268  10.418 -0.1196 -0.2954  0.0688
  629DPPI   PO410012  15.291  14.293   9.790 -0.0512  0.2226  0.0729
  629DPPI   GL110013  15.584  14.323   9.360  0.1080  0.0670  0.1159
  629DPPI   GL210014  15.561  14.135   9.160 -0.0816  0.2458 -0.4170
  629DPPI   C1A10015  15.673  14.652   9.013 -0.2257 -0.0245 -0.1321
  629DPPI   C2A10016  15.860  14.573   8.584  0.2432  0.0443  0.0374
  629DPPI   C3A10017  15.897  14.560   8.149  0.1437  0.0325  0.0891
  629DPPI   C4A10018  15.833  14.687   7.662 -0.1559 -0.2850 -0.0148
  629DPPI   C1B10019  15.601  14.158   8.753  0.0903  0.1698 -0.1233
  629DPPI   C2B10020  15.545  14.213   8.235  0.0350  0.0753 -0.1390
  629DPPI   C3B10021  15.565  14.150   7.702 -0.0273  0.0704  0.3856
  629DPPI   C4B10022  15.744  14.086   7.194 -0.0381  0.1603 -0.1657
  630DPPI    C110023   5.108   0.621   9.856 -0.0896 -0.1372  0.1636
  630DPPI    C210024   4.850   0.854  10.053  0.0590  0.0244  0.1699
  630DPPI    C310025   5.186   0.732  10.232  0.1212  0.0457  0.0681
  630DPPI   PO410026   4.937   0.440   9.747  0.0927  0.0969 -0.0551
  630DPPI   GL110027   4.921   0.478   9.385  0.0005  0.3699  0.0051
  630DPPI   GL210028   4.642   0.452   9.249  0.2103 -0.0775  0.1891
  630DPPI   C1A10029   5.042   0.523   8.991 -0.1148  0.0467 -0.4345
  630DPPI   C2A10030   4.850   0.926   8.854  0.0331 -0.1307  0.1696
  630DPPI   C3A10031   4.917   1.239   8.617 -0.0144 -0.0848  0.3193
  630DPPI   C4A10032   4.830   1.232   8.186 -0.1547  0.3334  0.1350
  630DPPI   C1B10033   4.647   0.406   8.772 -0.2515  0.0209  0.1632
  630DPPI   C2B10034   4.779   0.406   8.389  0.1755  0.1461  0.3390
  630DPPI   C3B10035   4.620   0.525   7.925 -0.1983  0.0994  0.6469
  630DPPI   C4B10036   4.776   0.230   7.632 -0.0041 -0.2104 -0.0237
  631DPPI    C110037   8.021   2.530  10.014  0.1427 -0.2847 -0.1012
  631DPPI    C210038   8.084   2.807  10.296 -0.0381 -0.1822 -0.1597
  631DPPI    C310039   8.102   2.418  10.389  0.0158 -0.1499 -0.0325
  631DPPI   PO410040   8.222   2.600   9.764  0.0255 -0.2205 -0.1940
  631DPPI   GL110041   8.481   2.480   9.422  0.1993 -0.4073 -0.0830
  631DPPI   GL210042   8.259   2.510   9.283  0.0462  0.3698 -0.1540
  631DPPI   C1A10043   8.566   2.553   8.956  0.1490  0.0805  0.2268
  631DPPI   C2A10044   8.513   2.592   8.477 -0.0334 -0.1515 -0.1775
  631DPPI   C3A10045   8.434   2.455   8.139 -0.0088  0.0364  0.0419
  631DPPI   C4A10046   8.244   2.184   7.911 -0.1985 -0.0571 -0.0161
  631DPPI   C1B10047   8.094   2.730   8.825 -0.3750 -0.1046  0.0551
  631DPPI   C2B10048   8.004   2.624   8.401  0.0566 -0.5565 -0.0677
  631DPPI   C3B10049   7.972   2.695   7.965  0.0992 -0.1801  0.0801
  631DPPI   C4B10050   7.991   2.710   7.462 -0.0662 -0.2613 -0.0531
  632DPPI    C110051  17.366  14.852   9.434 -0.2196 -0.0407  0.0703
  632DPPI    C210052  17.405  15.153   9.696  0.3628  0.0357 -0.0902
  632DPPI    C310053  17.396  14.775   9.826 -0.3831  0.1080  0.1136
  632DPPI   PO410054  17.554  14.936   9.224 -0.3260  0.0455 -0.0467
  632DPPI   GL110055  17.666  14.712   8.886  0.2028 -0.0555 -0.0845
  632DPPI   GL210056  17.261  14.686   8.678  0.1017 -0.1235 -0.2533
  632DPPI   C1A10057  17.770  14.740   8.432  0.2166 -0.2018  0.1170
  632DPPI   C2A10058  17.812  14.902   8.006  0.0611  0.0410  0.1910
  632DPPI   C3A10059  18.064  15.115   7.785  0.3849 -0.1165  0.0823
  632DPPI   C4A10060  18.304  15.264   7.473  0.1539  0.0694  0.0941
  632DPPI   C1B10061  17.207  14.868   8.254  0.3407  0.3179 -0.2011
  632DPPI   C2B10062  17.323  14.695   7.803  0.0066  0.2622 -0.0798
  632DPPI   C3B10063  17.441  14.759   7.377 -0.1244 -0.2122  0.1562
  632DPPI   C4B10064  17.274  14.799   6.977  0.0303 -0.1407 -0.3839
  633DPPI    C110065   4.283   8.758  10.526 -0.1475 -0.1471 -0.1355
  633DPPI    C210066   4.566   8.607  10.765 -0.1096 -0.1015 -0.1514
  633DPPI    C310067   4.193   8.653  10.901 -0.0380  0.1317 -0.0290
  633DPPI   PO410068   4.447   8.738  10.294  0.0906  0.0565 -0.3282
  633DPPI   GL110069   4.468   8.929   9.852  0.1221  0.3396  0.0280
  633DPPI   GL210070   4.503   8.588   9.778 -0.0584  0.3083 -0.0856
  633DPPI   C1A10071   4.750   9.154   9.582  0.3386 -0.0431  0.2766
  633DPPI   C2A10072   4.876   9.119   9.078 -0.1295 -0.1693 -0.2203
  633DPPI   C3A10073   4.892   9.073   8.708  0.2007  0.2797 -0.0402
  633DPPI   C4A10074   5.112   8.915   8.343 -0.1308  0.2402  0.0480
  633DPPI   C1B10075   4.793   8.674   9.357 -0.1009  0.0809  0.0371
  633DPPI   C2B10076   4.823   8.589   8.893  0.2634  0.1424 -0.0851
  633DPPI   C3B10077   5.139   8.564   8.629 -0.0783 -0.3703  0.2359
  633DPPI   C4B10078   5.587   8.430   8.714 -0.1318  0.0763 -0.3983
  634DPPI    C110079  10.881  18.904   9.294  0.1582 -0.2265 -0.2137
  634DPPI    C210080  10.628  18.672   9.499  0.0879  0.0595  0.0311
  634DPPI    C310081  11.005  18.552   9.438 -0.0179 -0.2310 -0.0695
  634DPPI   PO410082  10.740  18.992   9.101  0.1356 -0.1670 -0.0525
  634DPPI   GL110083  10.485  18.861   8.774 -0.0501  0.1019  0.2340
  634DPPI   GL210084  10.900  18.865   8.654  0.0429  0.3962 -0.0817
  634DPPI   C1A10085  10.510  19.044   8.359  0.2645 -0.1657 -0.1422
  634DPPI   C2A10086  10.595  18.995   7.980 -0.2734  0.0345 -0.0734
  634DPPI   C3A10087  10.689  19.192   7.596  0.1976  0.2209 -0.2216
  634DPPI   C4A10088  11.085  19.205   7.488  0.1975  0.1761  0.1601
  634DPPI   C1B10089  10.868  18.719   8.280 -0.0307  0.1188  0.1274
  634DPPI   C2B10090  11.038  18.771   7.839 -0.0955 -0.1837  0.1197
  634DPPI   C3B10091  10.733  18.667   7.491  0.0162  0.3476  0.0210
  634DPPI   C4B10092  10.493  18.567   7.039  0.0082  0.0297  0.0983
  635PYPI    C110093  10.310   0.767   9.601 -0.1524 -0.0053  0.0785
  635PYPI    C210094  10.324   1.082   9.847 -0.2054 -0.0141  0.0931
  635PYPI    C310095  10.076   0.778   9.926 -0.0474 -0.1270  0.1591
  635PYPI   PO410096  10.412   0.881   9.366 -0.1136 -0.2682  0.2393
  635PYPI   GL110097  10.469   0.965   8.971  0.2410  0.2901 -0.1376
  635PYPI   GL210098  10.626   1.227   9.012 -0.0726 -0.2711 -0.0540
  635PYPI   C1A10099  10.643   0.698   8.585  0.0227  0.0670 -0.0323
  635PYPI   C2A10100  10.807   0.549   8.164 -0.1253  0.0588  0.3344
  635PYPI   D3A10101  10.889   0.294   7.796  0.0035 -0.2395  0.1074
  635PYPI   C4A10102  10.957   0.187   7.407  0.0798 -0.2425 -0.1300
  635PYPI   C1B10103  10.404   1.114   8.513 -0.0713  0.0274 -0.2280
  635PYPI   C2B10104  10.135   1.085   8.373  0.1118  0.2480  0.0290
  635PYPI   C3B10105  10.039   0.994   7.997 -0.1642  0.0545  0.0742
  635PYPI   C4B10106  10.009   0.853   7.550  0.3476 -0.0964 -0.1201
  636PYPI    C110107  18.143   7.098  10.013 -0.0248  0.0689 -0.1965
  636PYPI    C210108  17.873   6.805   9.973  0.0311 -0.0208  0.0631
  636PYPI    C310109  17.813   7.097  10.240  0.0944  0.0704 -0.0216
  636PYPI   PO410110  18.278   7.253   9.773  0.0262  0.3894  0.5049
  636PYPI   GL110111  18.332   7.062   9.322  0.1086 -0.1506  0.0225
  636PYPI   GL210112  18.675   6.933   9.268  0.4270  0.1320  0.1667
  636PYPI   C1A10113  18.280   7.103   8.792  0.0129 -0.0875  0.0354
  636PYPI   C2A10114  18.236   7.145   8.414 -0.1613 -0.0609  0.1066
  636PYPI   D3A10115  18.115   7.198   7.966 -0.0205  0.2347  0.0437
  636PYPI   C4A10116  18.402   7.181   7.576  0.0118 -0.0261 -0.1809
  636PYPI   C1B10117  18.443   6.631   8.992  0.1375 -0.0246  0.2200
  636PYPI   C2B10118  18.364   6.562   8.565 -0.1228  0.0854  0.3129
  636PYPI   C3B10119  18.302   6.590   8.119  0.0202  0.0925  0.3805
  636PYPI   C4B10120  18.297   6.645   7.735 -0.3280 -0.3202  0.1500
  637PYPI    C110121  14.870   0.603   9.401  0.0971 -0.0138  0.0341
  637PYPI    C210122  14.699   0.404   9.703  0.0264 -0.1426 -0.0896
  637PYPI    C310123  14.816   0.783   9.753  0.0031 -0.1592  0.0949
  637PYPI   PO410124  14.834   0.415   9.234  0.0454 -0.3530  0.0012
  637PYPI   GL110125  15.099   0.205   9.011  0.6334 -0.2992 -0.1831
  637PYPI   GL210126  14.941   0.254   8.783 -0.0929  0.3164 -0.0349
  637PYPI   C1A10127  14.991  -0.295   8.788 -0.3142 -0.1715 -0.0973
  637PYPI   C2A10128  15.059  -0.375   8.337 -0.0148 -0.3163  0.3757
  637PYPI   D3A10129  14.842  -0.656   8.139  0.1076 -0.0710  0.0762
  637PYPI   C4A10130  14.565  -0.658   7.803  0.0585  0.0085  0.0898
  637PYPI   C1B10131  15.130   0.287   8.421 -0.0680  0.0483 -0.0104
  637PYPI   C2B10132  15.239   0.360   8.016  0.0237 -0.1030 -0.1623
  637PYPI   C3B10133  15.142   0.594   7.658  0.2994 -0.2065  0.0810
  637PYPI   C4B10134  15.269   0.714   7.292 -0.0123 -0.5164 -0.0844
  638PYPI    C110135   1.896  12.021  10.437  0.1164 -0.1050 -0.0701
  638PYPI    C210136   1.903  12.394  10.583 -0.2108 -0.0226 -0.2545
  638PYPI    C310137   2.223  12.157  10.622 -0.1060  0.1744  0.1266
  638PYPI   PO410138   1.716  11.957  10.139  0.0160  0.0967  0.0050
  638PYPI   GL110139   1.834  12.110   9.713  0.0779  0.0556 -0.1903
  638PYPI   GL210140   1.492  12.344   9.694 -0.1921  0.0058 -0.2285
  638PYPI   C1A10141   2.105  12.162   9.322  0.1308  0.0189  0.1677
  638PYPI   C2A10142   2.405  12.196   9.101  0.0543 -0.4733 -0.1127
  638PYPI   D3A10143   2.753  12.112   8.864  0.3607 -0.4560  0.3086
  638PYPI   C4A10144   2.775  11.621   8.924 -0.4348  0.0832  0.0933
  638PYPI   C1B10145   1.589  12.193   9.281 -0.3865 -0.1869  0.0871
  638PYPI   C2B10146   1.293  11.972   8.949 -0.1041 -0.1160  0.2541
  638PYPI   C3B10147   1.280  12.057   8.480 -0.4709  0.1031  0.1555
  638PYPI   C4B10148   1.399  12.065   8.052 -0.1389  0.1295 -0.1032
  639PYPI    C110149   5.541   7.231   9.707  0.0945  0.4573  0.1301
  639PYPI    C210150   5.174   7.207   9.551  0.1410  0.0510  0.0725
  639PYPI    C310151   5.225   7.350   9.921 -0.0717  0.1346  0.0709
  639PYPI   PO410152   5.652   6.907   9.718 -0.1117 -0.0427  0.0487
  639PYPI   GL110153   5.502   6.884   9.351 -0.0611  0.3196 -0.0360
  639PYPI   GL210154   5.269   6.692   9.099  0.2928  0.0216  0.1914
  639PYPI   C1A10155   5.726   6.878   9.020 -0.0029  0.0052  0.2916
  639PYPI   C2A10156   5.697   6.918   8.619  0.2563  0.0123  0.1764
  639PYPI   D3A10157   5.845   6.848   8.176 -0.0833  0.2088  0.1895
  639PYPI   C4A10158   6.240   6.961   7.968  0.1993 -0.0446 -0.3463
  639PYPI   C1B10159   5.345   6.558   8.697 -0.0373 -0.0231  0.1006
  639PYPI   C2B10160   5.577   6.442   8.319  0.1318  0.3769  0.2648
  639PYPI   C3B10161   5.761   6.304   8.019 -0.1212  0.1053 -0.0703
  639PYPI   C4B10162   6.050   6.083   7.731  0.3546 -0.0483 -0.0372
  640PYPI    C110163  17.652  18.068   9.306 -0.1785  0.0565 -0.0077
  640PYPI    C210164  17.921  17.820   9.466 -0.0785  0.1109 -0.0904
  640PYPI    C310165  17.540  17.808   9.588 -0.0377  0.0382  0.0314
  640PYPI   PO410166  17.682  17.976   9.039  0.0053 -0.1662 -0.2212
  640PYPI   GL110167  17.428  17.816   8.677  0.2283  0.3561 -0.3172
  640PYPI   GL210168  17.420  17.664   8.363  0.1397  0.1925 -0.0123
  640PYPI   C1A10169  17.237  18.200   8.452 -0.1472  0.0118  0.1235
  640PYPI   C2A10170  17.117  18.205   7.939 -0.2441  0.1191  0.1157
  640PYPI   D3A10171  17.228  18.380   7.556  0.2240  0.1099 -0.0411
  640PYPI   C4A10172  17.156  18.852   7.531 -0.1949 -0.5217 -0.0681
  640PYPI   C1B10173  17.604  17.982   8.206 -0.3749 -0.0803 -0.0861
  640PYPI   C2B10174  17.608  18.263   7.930  0.1515 -0.1294 -0.0678
  640PYPI   C3B10175  17.726  18.530   7.583 -0.0951 -0.1033  0.0451
  640PYPI   C4B10176  18.046  18.767   7.261 -0.1879  0.0782  0.3036
  641ERGO   ROH10177  13.714  12.034   5.351  0.0569  0.0446  0.1413
  641ERGO    R110178  13.540  11.932   5.549 -0.0351  0.0579  0.0684
  641ERGO    R210179  13.631  11.810   5.779 -0.1414 -0.0609  0.0517
  641ERGO    R310180  13.473  11.996   5.901 -0.0844 -0.0265  0.0742
  641ERGO    R410181  13.516  11.789   6.105 -0.2073 -0.0981  0.0260
  641ERGO    R510182  13.324  11.867   6.037 -0.1626  0.0011  0.0138
  641ERGO    C110183  13.302  11.951   6.408 -0.1921 -0.0875  0.0321
  641ERGO    C210184  13.286  12.116   6.737 -0.2760  0.3695 -0.2001
  642ERGO   ROH10185  16.493   2.867   5.455 -0.1563  0.1432  0.0759
  642ERGO    R110186  16.548   2.688   5.667 -0.0317  0.1210  0.0258
  642ERGO    R210187  16.803   2.647   5.765  0.0005  0.2553 -0.0005
  642ERGO    R310188  16.687   2.710   6.003 -0.0264  0.1202  0.0236
  642ERGO    R410189  16.973   2.688   6.063 -0.0159  0.2309  0.0126
  642ERGO    R510190  16.811   2.584   6.164  0.0328  0.1209 -0.0210
  642ERGO    C110191  16.963   2.772   6.459 -0.0509  0.0899  0.0429
  642ERGO    C210192  17.118   2.764   6.732 -0.1710 -0.0287  0.3709
  643ERGO   ROH10193  15.886  11.711   5.300 -0.0422  0.0607 -0.0451
  643ERGO    R110194  15.820  11.832   5.547  0.0560  0.1263 -0.0539
  643ERGO    R210195  15.882  12.096   5.605 -0.2523  0.2436 -0.3001
  643ERGO    R310196  15.616  12.112   5.658 -0.2249 -0.0879 -0.0082
  643ERGO    R410197  15.734  12.333   5.809 -0.3510  0.3837 -0.5264
  643ERGO    R510198  15.604  12.178   5.888 -0.0251  0.2945 -0.0884
  643ERGO    C110199  15.399  12.486   5.977 -0.3825  0.1540 -0.3841
  643ERGO    C210200  15.233  12.753   5.957 -0.1422 -0.0338 -0.0547
  644ERGO   ROH10201   8.674   9.605   5.391  0.2182  0.0209  0.0260
  644ERGO    R110202   8.527   9.637   5.631  0.2383  0.0884  0.0288
  644ERGO    R210203   8.584   9.493   5.860  0.1279  0.0070  0.0017
  644ERGO    R310204   8.599   9.739   5.973  0.3089 -0.0233  0.0490
  644ERGO    R410205   8.528   9.560   6.194 -0.0688  0.0126 -0.0304
  644ERGO    R510206   8.422   9.741   6.135  0.1750  0.1428 -0.0921
  644ERGO    C110207   8.510   9.831   6.495 -0.0135 -0.0126 -0.0048
  644ERGO    C210208   8.526   9.997   6.919  0.0380 -0.1664 -0.1161
  645ERGO   ROH10209  11.431  18.106   4.768 -0.1057  0.0901 -0.2456
  645ERGO    R110210  11.528  18.103   5.035  0.0536  0.0885 -0.3017
  645ERGO    R210211  11.650  18.322   5.151 -0.1540  0.1958 -0.2730
  645ERGO    R310212  11.460  18.285   5.342 -0.0040 -0.1357 -0.1805
  645ERGO    R410213  11.701  18.361   5.491  0.0339 -0.1178 -0.2613
  645ERGO    R510214  11.577  18.184   5.525  0.1849 -0.2398 -0.3582
  645ERGO    C110215  11.551  18.349   5.868  0.2843 -0.6116 -0.1677
  645ERGO    C210216  11.421  18.532   6.096 -0.1358 -0.1505  0.1027
  646ERGO   ROH10217  16.904   0.235   9.051 -0.2207 -0.2116  0.0592
  646ERGO    R110218  16.925   0.189   8.772 -0.1715 -0.1872  0.0584
  646ERGO    R210219  16.707   0.134   8.613 -0.1632 -0.0388 -0.0105
  646ERGO    R310220  16.799   0.345   8.468  0.0002 -0.0715  0.0450
  646ERGO    R410221  16.542   0.276   8.345  0.0664  0.0044 -0.1307
  646ERGO    R510222  16.733   0.295   8.243  0.1416 -0.0568  0.0017
  646ERGO    C110223  16.532   0.557   8.053  0.3538 -0.0011 -0.1485
  646ERGO    C210224  16.573   0.730   7.805  0.2715 -0.2957  0.1111
  647ERGO   ROH10225   3.313  18.711   8.751 -0.0333 -0.0149 -0.0226
  647ERGO    R110226   3.407  18.807   8.502  0.0365 -0.0857 -0.0237
  647ERGO    R210227   3.529  18.643   8.316 -0.1193 -0.1860 -0.0383
  647ERGO    R310228   3.337  18.742   8.151 -0.0431 -0.0078 -0.0225
  647ERGO    R410229   3.575  18.713   7.981 -0.0843 -0.2378 -0.0447
  647ERGO    R510230   3.455  18.894   8.008  0.0881 -0.1218 -0.0377
  647ERGO    C110231   3.422  18.847   7.631  0.0076 -0.1006 -0.0337
  647ERGO    C210232   3.490  18.789   7.282 -0.0543  0.0079 -0.0870
  648ERGO   ROH10233  16.592   3.017   9.189 -0.0231 -0.1675 -0.0098
  648ERGO    R110234  16.426   2.997   8.961 -0.0008 -0.0879 -0.0329
  648ERGO    R210235  16.388   3.208   8.785  0.1940 -0.0964 -0.0859
  648ERGO    R310236  16.467   3.025   8.600  0.0821 -0.2010 -0.0329
  648ERGO    R410237  16.233   3.155   8.481  0.2265 -0.0105 -0.1178
  648ERGO    R510238  16.263   2.941   8.508  0.0286 -0.0350 -0.0717
  648ERGO    C110239  16.217   2.954   8.130  0.1402 -0.0586 -0.0866
  648ERGO    C210240  16.158   2.772   7.853  0.2043  0.0341 -0.0142
  649ERGO   ROH10241  10.395  16.435   5.232  0.1739 -0.1349 -0.0638
  649ERGO    R110242  10.520  16.321   5.458 -0.0153 -0.2460 -0.0131
  649ERGO    R210243  10.705  16.458   5.612  0.1713 -0.4610 -0.0383
  649ERGO    R310244  10.537  16.391   5.815  0.0473 -0.1525 -0.0346
  649ERGO    R410245  10.797  16.434   5.944  0.0233 -0.1986  0.0240
  649ERGO    R510246  10.671  16.257   5.961 -0.0991 -0.0998  0.1503
  649ERGO    C110247  10.693  16.358   6.328 -0.1793  0.2441  0.0639
  649ERGO    C210248  10.645  16.318   6.705  0.0898 -0.4067 -0.1855
  650ERGO   ROH10249  17.934   4.179   5.281 -0.0187 -0.1290  0.1089
  650ERGO    R110250  18.047   4.243   5.532 -0.0395 -0.0135  0.0901
  650ERGO    R210251  17.955   4.133   5.769  0.1047 -0.1024  0.1093
  650ERGO    R310252  18.216   4.063   5.799  0.1815  0.1530  0.0646
  650ERGO    R410253  18.114   4.089   6.073  0.1083 -0.2880  0.0811
  650ERGO    R510254  18.290   4.187   5.990  0.0121  0.0094  0.2251
  650ERGO    C110255  18.452   3.997   6.278  0.1827 -0.1563  0.0227
  650ERGO    C210256  18.572   3.890   6.648 -0.1895  0.0081  0.1560
  651ERGO   ROH10257   7.590   8.897   9.791 -0.0352 -0.2072 -0.0803
  651ERGO    R110258   7.740   8.825   9.562  0.0336 -0.0515 -0.0855
  651ERGO    R210259   7.622   8.723   9.334  0.1258 -0.1207 -0.0996
  651ERGO    R310260   7.755   8.927   9.213 -0.0408  0.0076 -0.0728
  651ERGO    R410261   7.657   8.761   8.992  0.0908 -0.0506 -0.0959
  651ERGO    R510262   7.863   8.825   9.025  0.0438  0.1159 -0.0877
  651ERGO    C110263   7.803   8.975   8.679 -0.0859  0.1105 -0.0688
  651ERGO    C210264   7.767   9.113   8.338 -0.1411 -0.2248 -0.1236
  652ERGO   ROH10265   2.825  17.935   7.742  0.0715  0.2226  0.2702
  652ERGO    R110266   2.855  18.032   7.478  0.0110  0.0733  0.2081
  652ERGO    R210267   2.653  18.015   7.290 -0.0288 -0.0412  0.2613
  652ERGO    R310268   2.694  18.283   7.269 -0.0423 -0.0505  0.0988
  652ERGO    R410269   2.501  18.221   7.058 -0.2887 -0.1358  0.3435
  652ERGO    R510270   2.690  18.325   7.033 -0.3101 -0.1513  0.0814
  652ERGO    C110271   2.451  18.592   6.903 -0.4527 -0.2000  0.2387
  652ERGO    C210272   2.477  18.937   6.846 -0.0721  0.3404 -0.3096
  653ERGO   ROH10273  13.917  13.140   5.181  0.1696  0.1571 -0.0860
  653ERGO    R110274  13.990  12.995   5.414  0.0214  0.1945 -0.0155
  653ERGO    R210275  14.252  12.970   5.498 -0.0083 -0.0016  0.0158
  653ERGO    R310276  14.152  13.069   5.731  0.0609  0.1893 -0.0333
  653ERGO    R410277  14.380  12.902   5.811 -0.1177 -0.0299  0.0547
  653ERGO    R510278  14.176  12.888   5.886 -0.1496  0.2131  0.0338
  653ERGO    C110279  14.361  12.954   6.213 -0.1165  0.1328  0.0313
  653ERGO    C210280  14.481  12.949   6.526 -0.1247 -0.0377  0.2744
  654ERGO   ROH10281   1.445   3.312   8.955 -0.1351 -0.4305  0.0036
  654ERGO    R110282   1.591   3.202   8.739 -0.0434 -0.1303 -0.0907
  654ERGO    R210283   1.478   3.025   8.558  0.1586 -0.2295 -0.1097
  654ERGO    R310284   1.568   3.206   8.375 -0.1739 -0.0283 -0.0850
  654ERGO    R410285   1.525   2.959   8.222  0.3963 -0.1541 -0.0942
  654ERGO    R510286   1.708   3.077   8.230  0.1552  0.2536 -0.0410
  654ERGO    C110287   1.637   3.090   7.855  0.2225  0.0787 -0.0619
  654ERGO    C210288   1.604   3.170   7.597  0.0987 -0.2178  0.2181
  655ERGO   ROH10289   2.971   6.010   9.234  0.1971 -0.1406 -0.2140
  655ERGO    R110290   2.861   6.035   8.974  0.1610 -0.2473 -0.2079
  655ERGO    R210291   2.912   6.252   8.811 -0.1295 -0.1559 -0.1717
  655ERGO    R310292   2.990   6.060   8.635  0.1229 -0.0256 -0.2093
  655ERGO    R410293   2.948   6.299   8.471 -0.1792 -0.0282 -0.1606
  655ERGO    R510294   2.859   6.103   8.439  0.0672 -0.1445 -0.2053
  655ERGO    C110295   3.042   6.147   8.107  0.0289  0.1685 -0.1896
  655ERGO    C210296   3.181   6.246   7.823  0.1633 -0.2053 -0.2007
  656ERGO   ROH10297  16.848  16.104   8.852  0.0925  0.2030 -0.1061
  656ERGO    R110298  16.856  16.160   8.574 -0.0132  0.1356 -0.1229
  656ERGO    R210299  16.919  15.968   8.385  0.0442  0.1226 -0.0880
  656ERGO    R310300  16.682  16.045   8.276 -0.0279 -0.0394 -0.0485
  656ERGO    R410301  16.868  16.038   8.051 -0.1308 -0.2129 -0.1358
  656ERGO    R510302  16.742  16.205   8.109 -0.1433 -0.1833 -0.2350
  656ERGO    C110303  16.617  16.150   7.753 -0.3005 -0.5603 -0.1264
  656ERGO    C210304  16.704  16.013   7.349  0.3208 -0.0154  0.3251
  657ERGO   ROH10305  13.285  17.754   8.820  0.4778  0.2529  0.0436
  657ERGO    R110306  13.462  17.772   8.600  0.2610  0.2296 -0.1379
  657ERGO    R210307  13.574  17.550   8.480  0.5059  0.2257  0.0765
  657ERGO    R310308  13.468  17.659   8.254  0.1288 -0.2471  0.0103
  657ERGO    R410309  13.673  17.471   8.158  0.6382  0.2428  0.1132
  657ERGO    R510310  13.656  17.682   8.107  0.0284  0.1647 -0.0581
  657ERGO    C110311  13.632  17.526   7.759  0.3615 -0.1913  0.0725
  657ERGO    C210312  13.714  17.308   7.504  0.1053  0.0545 -0.0072
  658ERGO   ROH10313  12.889  14.139   8.912 -0.2912  0.0943  0.0250
  658ERGO    R110314  12.644  14.171   8.774 -0.2481  0.0998 -0.0513
  658ERGO    R210315  12.521  14.417   8.743 -0.2866  0.0877  0.0018
  658ERGO    R310316  12.528  14.350   8.479 -0.1782  0.1937 -0.0225
  658ERGO    R410317  12.307  14.543   8.502 -0.0809  0.3178 -0.0644
  658ERGO    R510318  12.297  14.343   8.414 -0.1497  0.3576 -0.1533
  658ERGO    C110319  12.188  14.554   8.115  0.1408  0.5515 -0.1258
  658ERGO    C210320  12.161  14.554   7.775 -0.0026 -0.0741 -0.3166
  659ERGO   ROH10321  14.937   3.897   9.061 -0.0592 -0.1253  0.1154
  659ERGO    R110322  15.151   3.991   8.902  0.0088 -0.0562  0.2464
  659ERGO    R210323  15.210   3.885   8.653  0.1807 -0.0211  0.2693
  659ERGO    R310324  15.190   4.144   8.574  0.1572 -0.0200  0.2807
  659ERGO    R410325  15.238   3.995   8.327 -0.0064 -0.0200  0.2526
  659ERGO    R510326  15.352   4.166   8.399  0.0520 -0.0326  0.1832
  659ERGO    C110327  15.236   4.303   8.063 -0.1375 -0.0183  0.2534
  659ERGO    C210328  15.266   4.427   7.770  0.1537 -0.0103  0.1749
  660ERGO   ROH10329  10.502   8.459   9.083  0.3132  0.1431  0.0226
  660ERGO    R110330  10.258   8.447   8.939  0.2630 -0.2822  0.1335
  660ERGO    R210331  10.151   8.667   8.809 -0.2724 -0.4197  0.3415
  660ERGO    R310332  10.152   8.500   8.595 -0.0221 -0.2691  0.2171
  660ERGO    R410333  10.002   8.733   8.504 -0.3272 -0.3715  0.3767
  660ERGO    R510334   9.936   8.527   8.497 -0.0602 -0.4704  0.2177
  660ERGO    C110335   9.916   8.615   8.126 -0.1241 -0.2020  0.2804
  660ERGO    C210336   9.667   8.738   7.901  0.0864  0.2080  0.0202
  661ERGO   ROH10337  17.585   5.866   9.340 -0.1563  0.2639 -0.2339
  661ERGO    R110338  17.759   5.859   9.117 -0.0566  0.0833 -0.1525
  661ERGO    R210339  17.805   5.629   8.970 -0.3143  0.0591 -0.1979
  661ERGO    R310340  17.731   5.787   8.761  0.0083  0.2303 -0.1885
  661ERGO    R410341  17.874   5.562   8.639 -0.3371  0.0028 -0.1914
  661ERGO    R510342  17.916   5.774   8.610  0.0336 -0.0559 -0.1396
  661ERGO    C110343  17.846   5.670   8.249 -0.0474  0.1308 -0.1787
  661ERGO    C210344  17.821   5.602   7.935  0.3251  0.1866 -0.0456
  662ERGO   ROH10345   4.876  15.595   9.588 -0.0034  0.1386  0.0060
  662ERGO    R110346   5.100  15.605   9.415 -0.0671 -0.0100 -0.0852
  662ERGO    R210347   5.246  15.380   9.347 -0.1867 -0.0886 -0.0657
  662ERGO    R310348   5.192  15.461   9.093 -0.2474 -0.1546 -0.0751
  662ERGO    R410349   5.449  15.320   9.074 -0.0254  0.2131 -0.0164
  662ERGO    R510350   5.406  15.522   9.004 -0.3061  0.1621 -0.0186
  662ERGO    C110351   5.517  15.362   8.676  0.0113  0.3268  0.0036
  662ERGO    C210352   5.516  15.110   8.481  0.1376  0.0665 -0.3121
  663ERGO   ROH10353   3.235  12.347   9.642 -0.0319 -0.0501  0.0994
  663ERGO    R110354   3.285  12.239   9.386  0.2323  0.0053  0.1269
  663ERGO    R210355   3.125  12.294   9.167  0.1963 -0.3023  0.0815
  663ERGO    R310356   3.361  12.369   9.054  0.1004  0.0983  0.1302
  663ERGO    R410357   3.165  12.390   8.837  0.0969 -0.2829  0.0736
  663ERGO    R510358   3.353  12.279   8.833  0.3064  0.0393  0.1379
  663ERGO    C110359   3.409  12.517   8.540 -0.0510  0.1044  0.1145
  663ERGO    C210360   3.264  12.504   8.144 -0.2758  0.0540  0.1541
  664ERGO   ROH10361  10.270   1.088   5.156  0.2998  0.1921  0.0579
  664ERGO    R110362  10.292   1.214   5.408 -0.0306 -0.0050  0.1928
  664ERGO    R210363  10.170   1.115   5.636  0.0217 -0.4299  0.0497
  664ERGO    R310364  10.422   1.127   5.737 -0.0383 -0.1044  0.1684
  664ERGO    R410365  10.249   1.092   5.971 -0.0969 -0.3152  0.0858
  664ERGO    R510366  10.398   1.249   5.942 -0.2841 -0.1283  0.1521
  664ERGO    C110367  10.532   1.090   6.262 -0.2223  0.0570  0.2183
  664ERGO    C210368  10.768   1.024   6.606 -0.3007  0.1017 -0.0652
  665ERGO   ROH10369   0.236   8.179   9.062 -0.0016 -0.0946 -0.0314
  665ERGO    R110370   0.079   8.171   8.827 -0.0562 -0.1099  0.0051
  665ERGO    R210371   0.179   8.237   8.578 -0.1771  0.1059  0.0104
  665ERGO    R310372   0.086   7.991   8.510  0.0192  0.0574 -0.0890
  665ERGO    R410373   0.163   8.114   8.255 -0.1698  0.2606 -0.0494
  665ERGO    R510374  -0.031   8.026   8.304 -0.0775  0.0634 -0.0330
  665ERGO    C110375   0.066   7.811   8.004  0.0186  0.3051 -0.1778
  665ERGO    C210376  -0.018   7.782   7.652  0.0641 -0.0367 -0.2546
  666ERGO   ROH10377   6.278  16.628   5.363  0.1813  0.0326 -0.2209
  666ERGO    R110378   6.450  16.703   5.575 -0.0074 -0.0492 -0.0380
  666ERGO    R210379   6.363  16.853   5.791 -0.1575  0.0146 -0.1514
  666ERGO    R310380   6.466  16.647   5.934 -0.4288 -0.0269 -0.0076
  666ERGO    R410381   6.490  16.880   6.111  0.2092  0.1736 -0.3021
  666ERGO    R510382   6.650  16.743   6.054 -0.1058 -0.2290 -0.3076
  666ERGO    C110383   6.660  16.701   6.433  0.1679  0.2269 -0.2549
  666ERGO    C210384   6.534  16.600   6.764 -0.0316 -0.1468  0.1508
  667ERGO   ROH10385   5.861   4.440   9.052  0.2734 -0.1268 -0.1103
  667ERGO    R110386   6.012   4.590   8.865  0.3070 -0.0886 -0.0528
  667ERGO    R210387   6.190   4.472   8.690  0.2018 -0.0737 -0.1716
  667ERGO    R310388   6.045   4.606   8.503  0.2254  0.1230 -0.0522
  667ERGO    R410389   6.297   4.541   8.368  0.1470  0.0499 -0.1640
  667ERGO    R510390   6.206   4.738   8.385  0.2696  0.0955 -0.0222
  667ERGO    C110391   6.222   4.706   8.006  0.1372  0.3067 -0.0473
  667ERGO    C210392   6.091   4.720   7.800  0.1762 -0.3205  0.0216
  668ERGO   ROH10393   6.645   8.180   9.201 -0.2802 -0.1323  0.0391
  668ERGO    R110394   6.654   8.297   8.944  0.1507 -0.1016  0.0619
  668ERGO    R210395   6.834   8.216   8.750  0.0625 -0.5180  0.1455
  668ERGO    R310396   6.609   8.185   8.600  0.0523  0.0693  0.0175
  668ERGO    R410397   6.819   8.253   8.407  0.3521 -0.4282  0.1406
  668ERGO    R510398   6.627   8.354   8.431  0.5779  0.0611  0.0458
  668ERGO    C110399   6.599   8.246   8.066  0.5113  0.1752  0.0176
  668ERGO    C210400   6.449   8.144   7.764  0.0319  0.1508 -0.0712
  669ERGO   ROH10401  16.658  12.503   9.166 -0.0072 -0.0424 -0.0582
  669ERGO    R110402  16.655  12.500   8.883 -0.0968 -0.1793 -0.0560
  669ERGO    R210403  16.885  12.485   8.733 -0.1172  0.1424 -0.1215
  669ERGO    R310404  16.760  12.271   8.621  0.2051 -0.1293  0.0163
  669ERGO    R410405  16.886  12.410   8.395 -0.4498  0.2515 -0.1507
  669ERGO    R510406  16.676  12.354   8.412 -0.3130 -0.2507  0.1583
  669ERGO    C110407  16.769  12.166   8.093 -0.3408  0.0600 -0.0383
  669ERGO    C210408  16.864  12.108   7.719 -0.4722  0.3223  0.2843
  670ERGO   ROH10409  18.314  16.337   8.654 -0.1049 -0.1946 -0.0680
  670ERGO    R110410  18.227  16.512   8.450 -0.1497 -0.0492  0.0749
  670ERGO    R210411  18.232  16.443   8.182 -0.0915  0.1864  0.0166
  670ERGO    R310412  17.969  16.511   8.193 -0.1205  0.0762  0.0429
  670ERGO    R410413  18.038  16.527   7.909 -0.1322  0.1672  0.0387
  670ERGO    R510414  17.946  16.684   8.028 -0.1936  0.1058  0.0795
  670ERGO    C110415  17.679  16.640   7.760 -0.1829  0.0526  0.0761
  670ERGO    C210416  17.468  16.615   7.458  0.0850  0.0493 -0.0215
  671ERGO   ROH10417   7.505  15.953   5.467  0.0450 -0.1313 -0.0803
  671ERGO    R110418   7.624  16.106   5.673 -0.0328 -0.1056 -0.0544
  671ERGO    R210419   7.503  16.329   5.781 -0.1350 -0.1719 -0.0338
  671ERGO    R310420   7.542  16.197   6.016 -0.0911 -0.1832 -0.0471
  671ERGO    R410421   7.536  16.481   6.090  0.0851 -0.1739 -0.0545
  671ERGO    R510422   7.693  16.337   6.138  0.0378 -0.2517 -0.1228
  671ERGO    C110423   7.591  16.445   6.490  0.2545 -0.1856 -0.0791
  671ERGO    C210424   7.582  16.448   6.848 -0.1900  0.0411 -0.0233
  672ERGO   ROH10425   3.704  18.032   5.339  0.1297  0.2431  0.0335
  672ERGO    R110426   3.780  17.916   5.586  0.0938  0.1184 -0.0128
  672ERGO    R210427   3.618  17.926   5.810  0.0825  0.0496 -0.0155
  672ERGO    R310428   3.651  17.657   5.806  0.0307  0.0448 -0.1361
  672ERGO    R410429   3.476  17.707   6.036  0.0246 -0.0291 -0.1277
  672ERGO    R510430   3.663  17.595   6.037  0.0013 -0.0648 -0.1647
  672ERGO    C110431   3.423  17.326   6.164 -0.0577 -0.0792 -0.3064
  672ERGO    C210432   3.279  17.211   6.354 -0.0878  0.2639 -0.0839
  673ERGO   ROH10433   7.089   1.532   9.064 -0.0113 -0.1322 -0.1706
  673ERGO    R110434   6.951   1.457   8.829  0.0188 -0.1848 -0.1708
  673ERGO    R210435   6.732   1.596   8.734  0.0132 -0.2278 -0.2095
  673ERGO    R310436   6.879   1.608   8.505  0.0272 -0.2450 -0.2023
  673ERGO    R410437   6.600   1.636   8.417  0.0403  0.0218 -0.1922
  673ERGO    R510438   6.746   1.491   8.344 -0.0728 -0.0687 -0.2557
  673ERGO    C110439   6.660   1.670   8.018  0.0692  0.1510 -0.1752
  673ERGO    C210440   6.347   1.891   7.795  0.0959  0.1969  0.2646
  674loPI    C110441  13.123   6.039   4.528  0.0150 -0.0378  0.1276
  674loPI    C210442  13.427   6.219   4.339  0.0070  0.0003  0.1508
  674loPI    C310443  13.060   6.377   4.323  0.0228  0.0504  0.2690
  674loPI   PO410444  13.243   5.942   4.786  0.0817 -0.4858  0.0493
  674loPI   GL110445  13.357   5.717   5.160  0.3110  0.0295 -0.3455
  674loPI   GL210446  13.121   5.694   5.310 -0.0622  0.3821  0.2759
  674loPI   C1A10447  13.623   5.942   5.426 -0.2285  0.2637  0.1263
  674loPI   C2A10448  13.734   6.028   5.820 -0.4199 -0.3612 -0.0177
  674loPI   C3A10449  13.877   5.904   6.201 -0.2695 -0.3427  0.0778
  674loPI   C4A10450  13.909   6.099   6.532  0.0361 -0.1274  0.1009
  674loPI   C5A10451  14.090   5.969   6.918  0.1152 -0.3007 -0.0838
  674loPI   C6A10452  14.256   5.798   7.345  0.2178 -0.3744 -0.2536
  674loPI   C1B10453  13.289   5.692   5.701 -0.1666 -0.3036  0.0625
  674loPI   C2B10454  13.031   5.471   6.083 -0.0348 -0.2262 -0.1105
  674loPI   C3B10455  12.971   5.452   6.461  0.1420  0.0989  0.2944
  674loPI   C4B10456  13.099   5.448   6.954  0.0166 -0.0435 -0.0803
  675loPI    C110457   4.315   5.723   4.912 -0.1800  0.2900 -0.0570
  675loPI    C210458   4.554   6.038   4.853 -0.0677  0.2371  0.1086
  675loPI    C310459   4.306   5.918   4.562  0.2439  0.1747 -0.1370
  675loPI   PO410460   4.272   5.734   5.156 -0.2590  0.0184  0.0080
  675loPI   GL110461   4.153   5.490   5.480 -0.1409 -0.1636  0.2046
  675loPI   GL210462   4.369   5.399   5.786 -0.1108  0.3649 -0.1701
  675loPI   C1A10463   4.111   5.758   5.942 -0.0315 -0.1666 -0.0594
  675loPI   C2A10464   4.203   5.800   6.417 -0.1445 -0.4522 -0.2937
  675loPI   C3A10465   4.277   6.015   6.739 -0.1988 -0.1807  0.1821
  675loPI   C4A10466   4.551   5.923   7.065  0.1181 -0.0795  0.2681
  675loPI   C5A10467   4.729   5.710   7.349 -0.3019  0.1546  0.2906
  675loPI   C6A10468   5.128   5.658   7.535 -0.0710 -0.1610 -0.1159
  675loPI   C1B10469   4.642   5.588   6.126 -0.1011 -0.1853 -0.2825
  675loPI   C2B10470   4.732   5.686   6.597 -0.0835  0.1843  0.4423
  675loPI   C3B10471   4.964   5.571   6.934  0.2009  0.2508  0.1829
  675loPI   C4B10472   5.386   5.654   7.114 -0.2886 -0.0455 -0.2098
  676loPI    C110473   2.505   7.430   4.512 -0.0369  0.0484 -0.0453
  676loPI    C210474   2.896   7.491   4.457 -0.0890  0.2254 -0.2310
  676loPI    C310475   2.743   7.124   4.415  0.1012  0.1012  0.1237
  676loPI   PO410476   2.481   7.555   4.766 -0.2254 -0.2432  0.2914
  676loPI   GL110477   2.648   7.588   5.233  0.0025 -0.2411 -0.2649
  676loPI   GL210478   2.292   7.285   5.247 -0.5335  0.2725  0.0170
  676loPI   C1A10479   2.330   7.780   5.488  0.1961  0.1575 -0.1532
  676loPI   C2A10480   2.184   7.674   5.996 -0.0556  0.0502 -0.1730
  676loPI   C3A10481   2.044   7.507   6.364 -0.1030 -0.1039  0.0584
  676loPI   C4A10482   1.995   7.785   6.740 -0.0644  0.0329 -0.0755
  676loPI   C5A10483   1.785   7.826   7.039 -0.0093  0.2600  0.3364
  676loPI   C6A10484   1.577   7.373   7.221 -0.1316 -0.0721 -0.1100
  676loPI   C1B10485   2.043   7.336   5.586  0.4265  0.0552  0.1522
  676loPI   C2B10486   1.726   7.484   5.801 -0.1732 -0.2656  0.0614
  676loPI   C3B10487   1.242   7.424   5.937 -0.4465  0.1224 -0.0567
  676loPI   C4B10488   1.069   7.670   6.351  0.1381 -0.0302 -0.2820
  677loPI    C110489  17.060   7.015   4.475 -0.1577  0.0948 -0.1316
  677loPI    C210490  17.430   6.971   4.328 -0.0702  0.3430  0.0088
  677loPI    C310491  17.123   6.780   4.157  0.1814 -0.2064  0.1501
  677loPI   PO410492  17.049   6.971   4.690  0.0028 -0.2131 -0.0895
  677loPI   GL110493  17.102   6.733   5.050  0.0379  0.2882  0.1415
  677loPI   GL210494  17.158   6.407   5.099 -0.1174 -0.1356 -0.0802
  677loPI   C1A10495  17.044   6.839   5.460  0.1508  0.0409 -0.1245
  677loPI   C2A10496  16.762   7.033   5.850  0.2668 -0.0392  0.0312
  677loPI   C3A10497  16.711   7.132   6.275 -0.1491 -0.0813  0.0278
  677loPI   C4A10498  16.690   7.223   6.759 -0.3686  0.2682  0.0746
  677loPI   C5A10499  16.963   7.346   7.125 -0.2749 -0.1742  0.1334
  677loPI   C6A10500  17.003   7.261   7.662 -0.0286  0.1736 -0.1524
  677loPI   C1B10501  16.939   6.332   5.476  0.0436 -0.1867 -0.1025
  677loPI   C2B10502  16.950   6.499   5.862 -0.1275 -0.0603  0.1026
  677loPI   C3B10503  16.681   6.532   6.141  0.0982 -0.0950 -0.0415
  677loPI   C4B10504  16.640   6.703   6.476 -0.3121  0.1585  0.1546
  678loPI    C110505   4.505   7.954   4.620  0.1767  0.1916  0.0440
  678loPI    C210506   4.312   8.294   4.701 -0.0230  0.0731  0.0731
  678loPI    C310507   4.273   8.124   4.341 -0.2293 -0.1168  0.1826
  678loPI   PO410508   4.629   7.951   4.854 -0.1986  0.4566 -0.0650
  678loPI   GL110509   4.585   7.669   5.132  0.4830 -0.2948 -0.0360
  678loPI   GL210510   4.478   7.418   5.053  0.0560  0.2222 -0.3357
  678loPI   C1A10511   4.493   7.828   5.611 -0.0259  0.2843  0.2584
  678loPI   C2A10512   4.581   7.662   6.200 -0.3534  0.0310  0.4944
  678loPI   C3A10513   4.602   7.576   6.627 -0.0126 -0.0572 -0.2324
  678loPI   C4A10514   4.483   7.622   7.076  0.1590  0.0496  0.2054
  678loPI   C5A10515   4.282   7.915   7.413  0.1007 -0.0040  0.2015
  678loPI   C6A10516   4.159   7.864   7.829 -0.0747 -0.2063 -0.1751
  678loPI   C1B10517   4.610   7.295   5.446 -0.1086  0.0157  0.0025
  678loPI   C2B10518   4.545   7.156   5.807  0.1863 -0.0771 -0.1471
  678loPI   C3B10519   4.546   7.184   6.329 -0.2076  0.1470  0.1937
  678loPI   C4B10520   4.448   6.935   6.721 -0.3662 -0.0005  0.0025
  679loPI    C110521  11.209   2.656   4.573 -0.1607  0.0691 -0.0946
  679loPI    C210522  11.184   2.613   4.176 -0.2281 -0.3035 -0.0531
  679loPI    C310523  10.882   2.781   4.378 -0.0594  0.1829 -0.1931
  679loPI   PO410524  11.521   2.570   4.611  0.1186 -0.1218  0.0189
  679loPI   GL110525  11.644   2.649   4.952 -0.2084 -0.2936 -0.1875
  679loPI   GL210526  11.504   2.928   4.957  0.1548  0.0462 -0.4895
  679loPI   C1A10527  11.703   2.546   5.455 -0.1209  0.0195 -0.0953
  679loPI   C2A10528  11.983   2.425   5.682  0.2395 -0.1231 -0.1663
  679loPI   C3A10529  11.980   2.553   6.085 -0.4037 -0.1249  0.2231
  679loPI   C4A10530  11.649   2.920   6.279  0.0829 -0.0543  0.1707
  679loPI   C5A10531  11.423   3.124   6.602 -0.1520  0.1923  0.1162
  679loPI   C6A10532  11.196   3.054   6.903 -0.1668  0.0310 -0.0113
  679loPI   C1B10533  11.319   3.365   5.148  0.0360 -0.0645 -0.0481
  679loPI   C2B10534  11.590   3.679   5.398  0.0374 -0.0736 -0.4084
  679loPI   C3B10535  11.483   3.658   5.839  0.0022  0.0881  0.1636
  679loPI   C4B10536  11.069   3.602   5.990  0.1018  0.4345  0.4439
  680loPI    C110537   4.170   2.775   4.413 -0.0666  0.0801  0.0100
  680loPI    C210538   4.096   2.955   4.063 -0.2666 -0.3258 -0.1637
  680loPI    C310539   4.471   2.855   4.161 -0.1953 -0.1076 -0.2075
  680loPI   PO410540   3.938   2.940   4.642  0.0908 -0.0909 -0.1196
  680loPI   GL110541   3.728   3.044   5.085 -0.2438  0.0481  0.0212
  680loPI   GL210542   3.847   3.313   5.245  0.4341  0.1444 -0.1501
  680loPI   C1A10543   3.401   3.298   5.463  0.1222 -0.1434 -0.0253
  680loPI   C2A10544   2.925   3.305   5.619  0.0116  0.1617 -0.0630
  680loPI   C3A10545   2.668   3.416   5.955  0.0285  0.1008  0.2707
  680loPI   C4A10546   2.506   3.618   6.360  0.3592  0.0605  0.1041
  680loPI   C5A10547   2.324   3.651   6.800 -0.3343 -0.2670  0.2651
  680loPI   C6A10548   2.152   3.726   7.248 -0.1525 -0.0304  0.1800
  680loPI   C1B10549   3.952   3.463   5.676  0.2151 -0.2163 -0.0603
  680loPI   C2B10550   4.040   3.561   6.008  0.1824 -0.0307  0.0263
  680loPI   C3B10551   3.728   3.410   6.405  0.1616  0.1587 -0.1506
  680loPI   C4B10552   3.650   3.715   6.714  0.0298  0.1648 -0.1801
  681loPI    C110553   7.423   5.593   4.613  0.2539  0.1542  0.1684
  681loPI    C210554   7.344   5.276   4.381  0.3959  0.1442  0.1327
  681loPI    C310555   7.166   5.627   4.308 -0.0676 -0.0231  0.4136
  681loPI   PO410556   7.597   5.531   4.767  0.0487 -0.1824  0.0062
  681loPI   GL110557   7.691   5.446   5.192  0.3980 -0.2452 -0.1588
  681loPI   GL210558   7.326   5.354   5.352  0.1892 -0.0530 -0.2325
  681loPI   C1A10559   7.834   5.355   5.588 -0.0261  0.1077  0.0341
  681loPI   C2A10560   8.094   5.116   5.915  0.3395 -0.0561 -0.0008
  681loPI   C3A10561   8.276   4.924   6.253 -0.1508  0.2240 -0.2366
  681loPI   C4A10562   8.550   4.824   6.519  0.2450  0.1129  0.0645
  681loPI   C5A10563   8.662   4.659   6.880  0.0806  0.0247 -0.1479
  681loPI   C6A10564   8.771   4.840   7.359  0.0417  0.4264  0.1692
  681loPI   C1B10565   7.132   5.017   5.578  0.0979  0.0698  0.1125
  681loPI   C2B10566   7.108   4.729   5.837  0.0896 -0.1573 -0.0328
  681loPI   C3B10567   7.121   4.673   6.310  0.1086 -0.2704  0.3112
  681loPI   C4B10568   7.165   4.468   6.738 -0.1071 -0.0792 -0.1152
  682loPI    C110569   9.799   4.452   4.670  0.0788  0.1777  0.0275
  682loPI    C210570   9.905   4.547   4.297  0.2420 -0.1899 -0.0240
  682loPI    C310571   9.553   4.669   4.442  0.2923  0.1812 -0.2029
  682loPI   PO410572   9.819   4.258   4.683 -0.2626  0.0203 -0.4731
  682loPI   GL110573   9.877   4.148   5.079  0.1243  0.1499 -0.1008
  682loPI   GL210574   9.802   4.428   5.148  0.2843  0.0983 -0.1138
  682loPI   C1A10575  10.009   4.057   5.436  0.1559  0.2275 -0.1643
  682loPI   C2A10576  10.023   4.012   5.947 -0.0988 -0.1948  0.1149
  682loPI   C3A10577  10.240   3.774   6.291  0.0342  0.1666  0.0332
  682loPI   C4A10578  10.471   3.515   6.511 -0.0817  0.5467 -0.2579
  682loPI   C5A10579  10.631   3.466   6.911  0.1847  0.2965  0.0644
  682loPI   C6A10580  10.711   3.204   7.230  0.2533 -0.0633  0.3696
  682loPI   C1B10581   9.497   4.245   5.526  0.1100 -0.1534  0.2914
  682loPI   C2B10582   9.537   4.029   5.894 -0.1044 -0.4056 -0.0465
  682loPI   C3B10583   9.439   3.833   6.248 -0.1396 -0.4291  0.2795
  682loPI   C4B10584   9.522   3.852   6.747  0.1138  0.0496 -0.4412
  683loPI    C110585   4.765   1.976   5.009  0.0817  0.3952 -0.0225
  683loPI    C210586   4.551   2.280   4.860 -0.2233  0.1829 -0.0262
  683loPI    C310587   4.602   1.946   4.645 -0.0560  0.1534  0.0573
  683loPI   PO410588   4.668   1.931   5.366  0.0565 -0.0600  0.2365
  683loPI   GL110589   4.906   1.891   5.776 -0.1135 -0.0518 -0.0531
  683loPI   GL210590   4.997   2.198   5.731  0.0321 -0.1708 -0.4819
  683loPI   C1A10591   4.486   1.761   5.994 -0.2657  0.1221  0.3602
  683loPI   C2A10592   4.239   1.755   6.358 -0.0765  0.0023 -0.0855
  683loPI   C3A10593   4.044   1.692   6.730  0.0559  0.0902 -0.1637
  683loPI   C4A10594   3.785   1.571   7.108 -0.1110 -0.1133  0.1993
  683loPI   C5A10595   3.950   1.187   7.260  0.0338 -0.0782  0.1800
  683loPI   C6A10596   3.820   0.794   7.267  0.1599  0.0826  0.1356
  683loPI   C1B10597   5.289   2.425   5.980 -0.1530 -0.0856  0.0458
  683loPI   C2B10598   5.519   2.540   6.454  0.0655 -0.1872  0.1602
  683loPI   C3B10599   5.831   2.527   6.716 -0.0517  0.2629  0.0543
  683loPI   C4B10600   6.089   2.258   6.919 -0.1761 -0.1769 -0.1117
  684loPI    C110601   1.363   9.569   4.683  0.1861 -0.2524 -0.1652
  684loPI    C210602   1.345   9.875   4.427 -0.1860 -0.1283  0.0010
  684loPI    C310603   1.399   9.503   4.291 -0.0389 -0.0260 -0.2269
  684loPI   PO410604   1.192   9.667   4.864 -0.0532 -0.0335 -0.0127
  684loPI   GL110605   1.301   9.757   5.311 -0.2060 -0.1071 -0.1316
  684loPI   GL210606   1.108   9.698   5.519  0.2377 -0.1720 -0.0356
  684loPI   C1A10607   1.627   9.927   5.712  0.0433  0.1831 -0.1684
  684loPI   C2A10608   1.607  10.065   6.150  0.0036 -0.2642 -0.1844
  684loPI   C3A10609   1.275  10.282   6.436 -0.0793  0.2414  0.0514
  684loPI   C4A10610   1.266  10.686   6.685  0.3414  0.2702  0.0760
  684loPI   C5A10611   1.297  10.864   7.123 -0.2668  0.2950  0.1236
  684loPI   C6A10612   1.405  11.312   7.203  0.0464  0.3544  0.0642
  684loPI   C1B10613   1.142   9.872   5.870  0.1400  0.2496 -0.0694
  684loPI   C2B10614   1.176   9.812   6.310 -0.0229  0.0195 -0.2370
  684loPI   C3B10615   0.969   9.931   6.643 -0.2763  0.0382 -0.0759
  684loPI   C4B10616   0.981  10.307   6.910 -0.3344 -0.1001  0.0307
  685loPI    C110617  17.751  14.418   4.369  0.1217  0.0286  0.1197
  685loPI    C210618  17.708  14.035   4.475 -0.1033  0.0820  0.2290
  685loPI    C310619  17.956  14.134   4.177  0.1924 -0.1162  0.4036
  685loPI   PO410620  17.768  14.496   4.640 -0.1518  0.1524 -0.0362
  685loPI   GL110621  17.478  14.488   4.966  0.0081  0.0211 -0.0786
  685loPI   GL210622  17.322  14.135   4.981 -0.1319  0.1851 -0.0945
  685loPI   C1A10623  17.423  14.697   5.275 -0.0282 -0.1236  0.2262
  685loPI   C2A10624  17.174  14.520   5.699 -0.0786  0.1804  0.0528
  685loPI   C3A10625  16.862  14.193   5.894 -0.1103  0.0065  0.1401
  685loPI   C4A10626  16.824  13.902   6.199 -0.1185 -0.1293  0.2561
  685loPI   C5A10627  16.720  13.805   6.655 -0.1883 -0.0508  0.0163
  685loPI   C6A10628  16.332  13.810   6.954 -0.0717 -0.1250 -0.0419
  685loPI   C1B10629  17.463  14.085   5.301 -0.1173 -0.1653 -0.0406
  685loPI   C2B10630  17.451  13.932   5.721  0.2192  0.0449 -0.1896
  685loPI   C3B10631  17.436  13.691   6.178 -0.2872  0.0673 -0.0621
  685loPI   C4B10632  17.246  13.752   6.517  0.1168 -0.0535  0.1111
  686loPI    C110633   2.769  15.495   4.929 -0.0535  0.3396  0.0586
  686loPI    C210634   2.853  15.316   4.581 -0.1540  0.3416  0.0328
  686loPI    C310635   3.053  15.645   4.690 -0.0353  0.2691  0.0358
  686loPI   PO410636   2.464  15.268   4.973  0.0348 -0.2231 -0.1088
  686loPI   GL110637   2.340  14.953   5.324  0.2220  0.0218  0.3092
  686loPI   GL210638   2.603  14.699   5.345 -0.2301  0.0805 -0.1213
  686loPI   C1A10639   2.462  15.141   5.713  0.1242  0.0890  0.0334
  686loPI   C2A10640   2.650  15.051   6.148  0.0482  0.3223 -0.1570
  686loPI   C3A10641   2.747  14.773   6.460  0.2192 -0.0083  0.0703
  686loPI   C4A10642   2.813  14.893   6.762 -0.0973 -0.1304 -0.2682
  686loPI   C5A10643   2.825  15.214   7.171 -0.1514 -0.0246 -0.1474
  686loPI   C6A10644   2.787  15.630   7.232 -0.0688  0.0678  0.0687
  686loPI   C1B10645   2.407  14.592   5.749  0.0821  0.3524 -0.0366
  686loPI   C2B10646   2.366  14.564   6.194 -0.2786  0.2603 -0.2426
  686loPI   C3B10647   2.461  14.405   6.645  0.0988  0.1874  0.1689
  686loPI   C4B10648   2.324  14.568   7.074  0.1093  0.0573 -0.1324
  687loPI    C110649  12.644  18.239   4.096  0.1437  0.1727 -0.0312
  687loPI    C210650  12.702  18.322   3.709 -0.0058  0.2579 -0.0362
  687loPI    C310651  12.336  18.353   3.867  0.0778  0.3488  0.1424
  687loPI   PO410652  12.826  18.410   4.241  0.1726  0.5212 -0.2039
  687loPI   GL110653  12.811  18.508   4.660  0.0355  0.0116 -0.2447
  687loPI   GL210654  12.642  18.201   4.649  0.2119 -0.4446 -0.0292
  687loPI   C1A10655  12.990  18.399   5.059 -0.0417  0.0707  0.3251
  687loPI   C2A10656  13.178  18.365   5.439 -0.0806  0.0341 -0.1224
  687loPI   C3A10657  12.945  18.301   5.867  0.1984  0.1006  0.0501
  687loPI   C4A10658  12.785  18.544   6.180  0.0179 -0.1915  0.1062
  687loPI   C5A10659  12.469  18.513   6.564  0.1550  0.0940  0.2110
  687loPI   C6A10660  12.457  18.163   6.819  0.0172  0.3243 -0.1939
  687loPI   C1B10661  12.625  18.034   5.051  0.0252  0.1906 -0.1870
  687loPI   C2B10662  12.717  18.027   5.483 -0.2188 -0.0382  0.1147
  687loPI   C3B10663  12.486  18.074   5.799  0.1027 -0.0409 -0.1322
  687loPI   C4B10664  12.378  18.196   6.162  0.2108  0.1208  0.1513
  688loPI    C110665  15.804   5.295   4.837  0.2528 -0.1700 -0.0241
  688loPI    C210666  15.435   5.192   4.722  0.1241  0.0889  0.1470
  688loPI    C310667  15.750   5.086   4.500 -0.0724  0.0803 -0.1334
  688loPI   PO410668  15.893   5.303   5.007  0.0721  0.3889 -0.1206
  688loPI   GL110669  15.945   5.054   5.410  0.1534  0.0455  0.0566
  688loPI   GL210670  16.076   5.326   5.456 -0.0828 -0.3757  0.2542
  688loPI   C1A10671  15.691   5.093   5.764 -0.1305 -0.2651  0.1972
  688loPI   C2A10672  15.471   5.053   6.196  0.0563 -0.4173 -0.1493
  688loPI   C3A10673  15.149   4.989   6.575  0.1060 -0.1933  0.1888
  688loPI   C4A10674  14.835   4.808   6.894  0.1559  0.1036 -0.1343
  688loPI   C5A10675  14.481   4.837   7.133  0.0761  0.0258  0.2833
  688loPI   C6A10676  14.369   4.972   7.512  0.3692 -0.0566  0.0392
  688loPI   C1B10677  15.974   5.628   5.790  0.0212  0.0722 -0.0420
  688loPI   C2B10678  15.993   5.764   6.153 -0.0808  0.1053 -0.2416
  688loPI   C3B10679  16.100   5.889   6.717  0.1118  0.4290  0.1073
  688loPI   C4B10680  16.086   6.157   7.004 -0.2672  0.1457 -0.2169
  689loPI    C110681   6.726  18.670   4.465 -0.0632 -0.0702 -0.0001
  689loPI    C210682   6.906  18.324   4.377  0.2325  0.1093 -0.1149
  689loPI    C310683   6.689  18.512   4.099  0.0854  0.0264 -0.0575
  689loPI   PO410684   6.921  18.914   4.699  0.0638 -0.1938 -0.4641
  689loPI   GL110685   6.797  19.118   5.069 -0.2617  0.3015  0.1459
  689loPI   GL210686   6.896  19.380   4.998 -0.3117 -0.2941 -0.3185
  689loPI   C1A10687   6.742  19.326   5.464 -0.1407 -0.2502 -0.0465
  689loPI   C2A10688   6.900  19.446   5.792  0.0776  0.0051 -0.0808
  689loPI   C3A10689   6.896  19.471   6.273  0.2051 -0.0211 -0.0508
  689loPI   C4A10690   6.930  19.398   6.742 -0.0201  0.2323  0.0365
  689loPI   C5A10691   7.014  19.409   7.114  0.1742 -0.1170 -0.2977
  689loPI   C6A10692   7.101  19.300   7.459 -0.3781  0.0632 -0.0251
  689loPI   C1B10693   7.293  19.306   5.366  0.0074  0.0571  0.0717
  689loPI   C2B10694   7.310  18.948   5.661 -0.1576  0.1470 -0.0121
  689loPI   C3B10695   7.488  18.836   6.150 -0.0564 -0.0788 -0.3104
  689loPI   C4B10696   7.552  18.848   6.525 -0.0388  0.0421 -0.1843
  690loPI    C110697   8.318   8.306   4.821  0.0857 -0.1661  0.1140
  690loPI    C210698   8.398   8.025   4.548  0.0558  0.0024 -0.0704
  690loPI    C310699   8.156   8.330   4.456 -0.0238  0.0151  0.1730
  690loPI   PO410700   8.195   8.223   5.035 -0.0722 -0.1345 -0.1035
  690loPI   GL110701   8.190   8.283   5.404  0.3473  0.0106 -0.1609
  690loPI   GL210702   8.227   8.583   5.528 -0.2327  0.1748  0.1243
  690loPI   C1A10703   8.273   8.052   5.802  0.0287  0.1520 -0.1213
  690loPI   C2A10704   8.239   8.108   6.218  0.0022  0.0838 -0.0934
  690loPI   C3A10705   8.191   8.213   6.594  0.1259 -0.0835  0.1467
  690loPI   C4A10706   8.014   8.417   6.936  0.2226 -0.1675 -0.3122
  690loPI   C5A10707   7.780   8.649   7.191  0.1027  0.1564  0.3370
  690loPI   C6A10708   7.753   8.652   7.528  0.0129  0.1066 -0.0159
  690loPI   C1B10709   8.343   8.616   5.994 -0.2247  0.1677  0.2345
  690loPI   C2B10710   8.472   8.600   6.406  0.0896 -0.0557  0.0506
  690loPI   C3B10711   8.675   8.708   6.798  0.0486 -0.1983 -0.0330
  690loPI   C4B10712   8.581   9.011   7.097 -0.1580  0.0257  0.0571
  691loPI    C110713   6.951  17.404   4.706 -0.0022 -0.0431 -0.0214
  691loPI    C210714   7.318  17.247   4.734 -0.0104 -0.0383  0.1198
  691loPI    C310715   7.143  17.283   4.376  0.0736 -0.1620  0.0654
  691loPI   PO410716   6.785  17.240   4.865  0.2958 -0.2997 -0.4241
  691loPI   GL110717   6.806  16.772   5.211  0.1995 -0.2102 -0.0147
  691loPI   GL210718   6.542  17.080   5.300 -0.2247  0.2258 -0.1766
  691loPI   C1A10719   6.916  16.967   5.624 -0.0378  0.4136  0.0285
  691loPI   C2A10720   7.032  17.017   5.964 -0.0067 -0.0074  0.1278
  691loPI   C3A10721   6.930  17.137   6.298  0.3690 -0.2647 -0.0468
  691loPI   C4A10722   6.974  17.062   6.723 -0.2849  0.0805  0.3056
  691loPI   C5A10723   7.190  16.837   7.141  0.4024 -0.1145  0.0788
  691loPI   C6A10724   7.437  16.537   7.422 -0.2187  0.0268  0.0132
  691loPI   C1B10725   6.533  17.337   5.648  0.3539  0.1420  0.1785
  691loPI   C2B10726   6.636  17.452   5.947  0.0093  0.0051  0.4699
  691loPI   C3B10727   6.797  17.698   6.180 -0.0548  0.2091 -0.1722
  691loPI   C4B10728   7.081  17.612   6.498  0.0891 -0.0184 -0.2957
  692loPI    C110729  10.266  12.426   4.700  0.2762  0.1634  0.2243
  692loPI    C210730  10.071  12.081   4.748  0.1298  0.2330  0.1358
  692loPI    C310731  10.341  12.119   4.455  0.0326  0.2425  0.0470
  692loPI   PO410732  10.265  12.521   5.018  0.0142  0.0503  0.0008
  692loPI   GL110733  10.313  12.585   5.316 -0.0368 -0.0038  0.0591
  692loPI   GL210734  10.427  12.922   5.347 -0.2099  0.2073  0.0015
  692loPI   C1A10735  10.092  12.662   5.758  0.1954 -0.0055  0.0644
  692loPI   C2A10736  10.062  12.731   6.206 -0.2389  0.0152 -0.1910
  692loPI   C3A10737  10.049  12.678   6.607 -0.0703  0.0207  0.1579
  692loPI   C4A10738   9.944  12.457   7.042  0.0173  0.0850  0.0078
  692loPI   C5A10739   9.802  12.012   7.231  0.2805  0.0812 -0.1877
  692loPI   C6A10740   9.659  11.664   7.308 -0.0529  0.0134 -0.0211
  692loPI   C1B10741  10.572  12.727   5.779  0.0369  0.1668  0.0904
  692loPI   C2B10742  10.509  12.838   6.258  0.0123  0.5682 -0.0630
  692loPI   C3B10743  10.482  12.942   6.693 -0.0132  0.0192 -0.1441
  692loPI   C4B10744  10.330  12.819   7.085  0.1589 -0.2772  0.1703
  693loPI    C110745  12.450  15.695   4.715 -0.0017 -0.0889 -0.3357
  693loPI    C210746  12.105  15.778   4.900  0.1373 -0.0071 -0.1099
  693loPI    C310747  12.102  15.591   4.547 -0.1349 -0.0773 -0.0726
  693loPI   PO410748  12.575  15.557   4.876 -0.1650  0.1661 -0.2557
  693loPI   GL110749  12.627  15.643   5.267  0.2923 -0.3148  0.3620
  693loPI   GL210750  13.022  15.646   5.132  0.1124 -0.0605  0.3831
  693loPI   C1A10751  12.646  15.904   5.711 -0.0082  0.2215  0.0082
  693loPI   C2A10752  12.598  16.060   6.129 -0.0935 -0.0690 -0.3405
  693loPI   C3A10753  12.687  16.135   6.527 -0.1937  0.1067  0.2032
  693loPI   C4A10754  13.016  16.223   6.746 -0.1205 -0.0699  0.3099
  693loPI   C5A10755  13.407  16.257   6.983  0.0291 -0.4708 -0.1107
  693loPI   C6A10756  13.370  16.381   7.448  0.1526  0.1153 -0.0162
  693loPI   C1B10757  13.068  15.521   5.528  0.1940  0.2973 -0.0162
  693loPI   C2B10758  13.016  15.662   6.006  0.0660  0.2008  0.1218
  693loPI   C3B10759  13.030  15.629   6.467 -0.2166 -0.0207 -0.1576
  693loPI   C4B10760  12.914  15.358   6.876 -0.2849  0.0502 -0.1466
  694loPI    C110761   5.500  16.125   4.749 -0.0741  0.0261 -0.0641
  694loPI    C210762   5.812  16.236   4.525 -0.1178 -0.0650 -0.1712
  694loPI    C310763   5.484  16.088   4.351 -0.1341 -0.1811 -0.0438
  694loPI   PO410764   5.594  16.028   4.934  0.1992  0.1987 -0.0104
  694loPI   GL110765   5.530  16.198   5.349 -0.2473  0.0903  0.0511
  694loPI   GL210766   5.391  15.971   5.572  0.1512  0.2572 -0.1369
  694loPI   C1A10767   6.057  16.143   5.420 -0.2050 -0.0116 -0.1778
  694loPI   C2A10768   6.381  16.179   5.659  0.2241  0.2147 -0.0161
  694loPI   C3A10769   6.595  16.209   6.078  0.1051 -0.0851 -0.1466
  694loPI   C4A10770   6.876  16.214   6.412  0.0058 -0.0767  0.2256
  694loPI   C5A10771   6.724  16.152   6.900 -0.0542  0.1001 -0.0565
  694loPI   C6A10772   6.937  16.381   7.223  0.2201 -0.1512 -0.1307
  694loPI   C1B10773   5.212  16.284   5.636 -0.0936 -0.0226  0.0253
  694loPI   C2B10774   4.965  16.563   5.877 -0.2657  0.1627 -0.0212
  694loPI   C3B10775   4.674  16.648   6.172  0.1304 -0.1213  0.3429
  694loPI   C4B10776   4.408  16.338   6.369  0.2306 -0.0024  0.0131
  695loPI    C110777  16.428   3.418   4.718 -0.0343 -0.1353  0.0606
  695loPI    C210778  16.230   3.401   4.371  0.1784  0.0777 -0.0748
  695loPI    C310779  16.506   3.124   4.458 -0.0967 -0.1575  0.0670
  695loPI   PO410780  16.283   3.395   4.880 -0.1880 -0.0655 -0.1804
  695loPI   GL110781  16.236   3.293   5.271 -0.2054 -0.1307 -0.1729
  695loPI   GL210782  16.615   3.325   5.233  0.1072  0.0660 -0.2229
  695loPI   C1A10783  16.286   3.251   5.715 -0.0492 -0.1848  0.1092
  695loPI   C2A10784  16.521   3.132   6.140 -0.1334 -0.0026  0.1734
  695loPI   C3A10785  16.641   3.107   6.615  0.1294 -0.2370 -0.1775
  695loPI   C4A10786  16.956   3.157   6.986 -0.2706  0.1106 -0.3831
  695loPI   C5A10787  17.041   3.350   7.422  0.0038  0.2646 -0.0173
  695loPI   C6A10788  16.991   3.480   7.884 -0.0147  0.0909  0.0647
  695loPI   C1B10789  16.733   3.516   5.560  0.1529 -0.0412 -0.2995
  695loPI   C2B10790  16.776   3.568   5.932 -0.0462 -0.1540  0.2679
  695loPI   C3B10791  16.983   3.998   6.148  0.1632 -0.0895 -0.1707
  695loPI   C4B10792  17.352   3.960   6.427 -0.0205  0.1417 -0.1077
  696loPI    C110793   6.338   9.276   5.006 -0.0446  0.1461  0.1993
  696loPI    C210794   6.166   8.991   4.785  0.0111  0.2442  0.0275
  696loPI    C310795   6.124   9.375   4.683  0.1689  0.2807  0.0970
  696loPI   PO410796   6.238   9.260   5.333 -0.2441 -0.0616  0.1345
  696loPI   GL110797   6.160   9.015   5.651  0.1760  0.0226 -0.2274
  696loPI   GL210798   6.041   8.789   5.619 -0.0231 -0.1289  0.0896
  696loPI   C1A10799   6.077   9.079   6.082 -0.0555 -0.1664  0.3380
  696loPI   C2A10800   5.889   9.273   6.482 -0.1155 -0.0092  0.3553
  696loPI   C3A10801   5.885   9.257   6.972  0.1273 -0.1508 -0.2502
  696loPI   C4A10802   5.609   8.957   7.186  0.0834 -0.2049 -0.0160
  696loPI   C5A10803   5.140   8.803   7.157 -0.2078  0.3893  0.2111
  696loPI   C6A10804   4.859   8.559   7.250  0.0811  0.1853  0.1440
  696loPI   C1B10805   5.962   8.475   5.957  0.1899 -0.0887 -0.0204
  696loPI   C2B10806   5.841   8.212   6.195  0.0898  0.0663  0.0871
  696loPI   C3B10807   5.794   8.342   6.586  0.0704  0.0301 -0.1166
  696loPI   C4B10808   5.681   8.410   7.013 -0.1277  0.2842 -0.0615
  697loPI    C110809  18.291   3.248   4.484 -0.0134  0.2138  0.1400
  697loPI    C210810  18.082   3.536   4.667  0.0144  0.4616 -0.2090
  697loPI    C310811  18.044   3.480   4.273  0.2510  0.1954 -0.1979
  697loPI   PO410812  18.290   3.021   4.769  0.0961  0.0304 -0.1796
  697loPI   GL110813  18.046   3.097   5.100  0.0741  0.1433  0.3558
  697loPI   GL210814  18.014   2.714   5.042 -0.4249  0.0012 -0.1783
  697loPI   C1A10815  17.792   3.128   5.464  0.1439 -0.1208 -0.2189
  697loPI   C2A10816  17.520   3.085   5.791  0.0777 -0.1667  0.0670
  697loPI   C3A10817  17.385   3.031   6.108 -0.1070  0.4116  0.1151
  697loPI   C4A10818  17.533   2.933   6.579  0.2832 -0.0660  0.3223
  697loPI   C5A10819  17.812   2.976   7.063  0.1672  0.1293  0.0009
  697loPI   C6A10820  18.072   3.220   7.394  0.0095  0.0866  0.0515
  697loPI   C1B10821  18.271   2.452   5.431 -0.2245 -0.0934 -0.0022
  697loPI   C2B10822  18.449   2.289   5.830 -0.1045  0.2151  0.0655
  697loPI   C3B10823  18.864   2.304   6.006 -0.2580 -0.0904  0.0552
  697loPI   C4B10824  19.324   2.092   5.989 -0.0393 -0.0902  0.2611
  698loPI    C110825   9.820  10.973   4.951 -0.3217  0.0667  0.2987
  698loPI    C210826   9.861  11.167   4.603  0.1560 -0.1761  0.2119
  698loPI    C310827   9.662  10.821   4.616 -0.3077  0.0852  0.2836
  698loPI   PO410828   9.776  11.143   5.126  0.0993  0.1458  0.2284
  698loPI   GL110829   9.604  11.442   5.315  0.1014 -0.1616  0.1753
  698loPI   GL210830   9.631  11.766   5.487  0.3156 -0.0496 -0.0812
  698loPI   C1A10831   9.770  11.348   5.734  0.1398  0.3923  0.2752
  698loPI   C2A10832   9.976  11.363   6.181  0.0011  0.1155  0.0361
  698loPI   C3A10833   9.847  11.674   6.490  0.1080 -0.0800 -0.1266
  698loPI   C4A10834   9.676  11.955   6.783  0.1915 -0.0916 -0.3015
  698loPI   C5A10835   9.247  11.779   7.033  0.3112  0.2263  0.0338
  698loPI   C6A10836   8.981  12.015   7.205 -0.1395 -0.0297 -0.1700
  698loPI   C1B10837   9.666  11.838   6.004  0.1213 -0.0244 -0.0489
  698loPI   C2B10838   9.396  12.060   6.289 -0.1704 -0.2017 -0.0113
  698loPI   C3B10839   9.253  12.223   6.704 -0.2231 -0.1636  0.0475
  698loPI   C4B10840   9.454  12.335   7.106  0.2448 -0.0218  0.3485
  699loPI    C110841  18.180  10.517   4.830 -0.2625 -0.0910  0.0253
  699loPI    C210842  17.919  10.773   4.667 -0.0825  0.0578 -0.0323
  699loPI    C310843  18.171  10.568   4.433  0.0054  0.0835  0.0389
  699loPI   PO410844  18.329  10.814   5.028 -0.1331  0.3721 -0.0858
  699loPI   GL110845  18.652  10.761   5.416 -0.1063  0.4267 -0.2296
  699loPI   GL210846  18.865  10.952   5.549 -0.0610  0.0682 -0.1099
  699loPI   C1A10847  18.406  10.779   5.727 -0.1181  0.1546 -0.2500
  699loPI   C2A10848  18.270  10.996   6.130 -0.1117  0.1283 -0.0986
  699loPI   C3A10849  17.979  10.897   6.485  0.0603  0.2375 -0.2037
  699loPI   C4A10850  18.159  10.639   6.834  0.0186 -0.0873 -0.0324
  699loPI   C5A10851  18.497  10.662   7.026 -0.0360 -0.0284 -0.1756
  699loPI   C6A10852  18.548  10.454   7.427  0.1143  0.1473 -0.0252
  699loPI   C1B10853  18.820  10.941   6.023 -0.0840  0.0484  0.2586
  699loPI   C2B10854  18.942  11.228   6.311 -0.1481  0.0842 -0.0755
  699loPI   C3B10855  18.948  11.434   6.697 -0.2167 -0.0570  0.1178
  699loPI   C4B10856  19.228  11.532   7.152  0.2760 -0.1492 -0.2406
  700loPI    C110857   3.597   1.251   4.497  0.0412 -0.2003  0.0127
  700loPI    C210858   3.236   1.422   4.512  0.1019 -0.0621 -0.0838
  700loPI    C310859   3.312   1.139   4.240  0.2133  0.2572 -0.3929
  700loPI   PO410860   3.567   1.165   4.824  0.1529  0.1584 -0.0152
  700loPI   GL110861   3.436   1.071   5.239  0.0428  0.0479 -0.1377
  700loPI   GL210862   3.209   1.131   5.396  0.0102  0.1140 -0.3574
  700loPI   C1A10863   3.576   1.096   5.754 -0.2326  0.0719 -0.1439
  700loPI   C2A10864   3.853   1.048   6.078 -0.0578 -0.1586 -0.1181
  700loPI   C3A10865   3.844   0.742   6.355 -0.1321  0.3796 -0.4248
  700loPI   C4A10866   3.813   0.627   6.818  0.0044  0.0106  0.1344
  700loPI   C5A10867   3.952   0.291   7.035  0.1634 -0.0938 -0.0772
  700loPI   C6A10868   4.009   0.292   7.457 -0.1354  0.0140  0.2448
  700loPI   C1B10869   3.078   1.431   5.712  0.3149  0.1792  0.0548
  700loPI   C2B10870   3.345   1.514   5.945  0.1397 -0.0351 -0.1594
  700loPI   C3B10871   3.321   1.583   6.380  0.1907 -0.0625 -0.0738
  700loPI   C4B10872   3.183   2.002   6.462  0.1762 -0.1264  0.2837
  701loPI    C110873  18.580  16.087   4.233  0.1194  0.1359 -0.2164
  701loPI    C210874  18.782  15.886   3.952  0.2160  0.1024 -0.1239
  701loPI    C310875  18.473  16.119   3.849 -0.1178 -0.3597 -0.1998
  701loPI   PO410876  18.700  16.206   4.451  0.0708 -0.2568  0.0977
  701loPI   GL110877  18.678  16.030   4.873  0.0198  0.1725 -0.0854
  701loPI   GL210878  18.586  16.319   4.943 -0.0893  0.1152 -0.3775
  701loPI   C1A10879  18.435  15.964   5.283 -0.0425  0.0905 -0.0116
  701loPI   C2A10880  18.289  15.823   5.627 -0.0766 -0.0700 -0.0162
  701loPI   C3A10881  18.186  15.647   5.981  0.4933  0.0312 -0.0280
  701loPI   C4A10882  18.306  15.765   6.291 -0.3292  0.0476 -0.2067
  701loPI   C5A10883  18.098  15.589   6.649 -0.1656  0.0751  0.0893
  701loPI   C6A10884  17.973  15.323   7.016 -0.0700  0.0031 -0.1037
  701loPI   C1B10885  18.618  16.461   5.336  0.2371  0.0194 -0.1628
  701loPI   C2B10886  18.921  16.557   5.619 -0.2385 -0.1121  0.1064
  701loPI   C3B10887  19.177  16.805   5.787  0.0305 -0.2037 -0.3063
  701loPI   C4B10888  19.602  16.891   5.630 -0.1617  0.1981  0.0447
  702loPI    C110889  17.684   4.152   4.666  0.0565  0.1679  0.1592
  702loPI    C210890  17.699   3.869   4.384  0.3190  0.0485  0.2897
  702loPI    C310891  17.770   4.250   4.288 -0.1585  0.0943  0.0895
  702loPI   PO410892  17.838   3.931   4.860  0.1517 -0.0644 -0.1577
  702loPI   GL110893  18.005   3.624   5.265  0.0654 -0.0864 -0.0781
  702loPI   GL210894  17.642   3.541   5.122 -0.1372  0.1728 -0.3781
  702loPI   C1A10895  18.284   3.539   5.687  0.2178 -0.0955  0.0305
  702loPI   C2A10896  18.224   3.590   6.163  0.0356 -0.0844 -0.2773
  702loPI   C3A10897  18.202   3.630   6.531  0.1783 -0.1160  0.0419
  702loPI   C4A10898  18.281   3.607   6.986  0.3221 -0.2635 -0.1105
  702loPI   C5A10899  18.441   3.571   7.366 -0.2492 -0.0780 -0.0298
  702loPI   C6A10900  18.340   3.569   7.780 -0.1311  0.1014 -0.0170
  702loPI   C1B10901  17.675   3.771   5.551  0.1780 -0.2234  0.1981
  702loPI   C2B10902  17.765   3.511   5.860 -0.2516  0.1456  0.0131
  702loPI   C3B10903  17.883   3.265   6.221  0.3064  0.3399 -0.0204
  702loPI   C4B10904  17.936   3.256   6.683  0.1132  0.3595 -0.0352
  703loPI    C110905   2.031   3.019   4.505 -0.0464 -0.1921 -0.0022
  703loPI    C210906   2.298   2.891   4.236 -0.0815  0.0441 -0.1518
  703loPI    C310907   2.416   3.123   4.539 -0.0805 -0.0351 -0.0911
  703loPI   PO410908   1.935   2.862   4.654  0.1684 -0.1820 -0.1139
  703loPI   GL110909   1.590   2.971   4.913 -0.2057 -0.0570  0.0106
  703loPI   GL210910   1.914   3.271   4.914  0.1011  0.1888 -0.1684
  703loPI   C1A10911   1.594   2.808   5.300  0.1702 -0.4599 -0.1853
  703loPI   C2A10912   1.510   2.621   5.694  0.0261 -0.2776 -0.4359
  703loPI   C3A10913   1.236   2.760   5.995 -0.0601  0.2389  0.1456
  703loPI   C4A10914   1.186   2.890   6.414  0.3293  0.0216 -0.1462
  703loPI   C5A10915   0.996   2.944   6.774  0.2775 -0.2819  0.1365
  703loPI   C6A10916   0.572   3.170   6.863 -0.0390 -0.0985  0.0623
  703loPI   C1B10917   1.858   3.241   5.300 -0.0238 -0.2774 -0.0254
  703loPI   C2B10918   1.798   3.492   5.743 -0.1326 -0.0716 -0.0520
  703loPI   C3B10919   1.894   3.633   6.072  0.1855  0.4822 -0.0192
  703loPI   C4B10920   2.086   3.851   6.328  0.1455 -0.1347 -0.0020
  704loPI    C110921   7.125   2.502   4.737 -0.1416  0.1880 -0.1585
  704loPI    C210922   6.742   2.460   4.843 -0.1213  0.2755 -0.0486
  704loPI    C310923   6.847   2.432   4.458 -0.1681 -0.2501 -0.0304
  704loPI   PO410924   7.201   2.448   5.017  0.1058 -0.0073 -0.0152
  704loPI   GL110925   7.428   2.579   5.395  0.1146  0.3214  0.0835
  704loPI   GL210926   7.662   2.340   5.340  0.2171  0.0421  0.0962
  704loPI   C1A10927   7.448   2.446   5.818 -0.1303  0.0120  0.0129
  704loPI   C2A10928   7.387   2.139   6.202  0.1193  0.2879  0.2649
  704loPI   C3A10929   7.284   1.898   6.483  0.1573  0.0953  0.0927
  704loPI   C4A10930   7.306   1.811   6.820 -0.0126  0.1961 -0.2948
  704loPI   C5A10931   7.486   1.847   7.185  0.0600 -0.1488  0.0909
  704loPI   C6A10932   7.245   2.067   7.482  0.1168  0.1671 -0.0395
  704loPI   C1B10933   7.950   2.483   5.595 -0.3337  0.2491  0.1455
  704loPI   C2B10934   7.939   2.548   6.020 -0.1727  0.1604 -0.1820
  704loPI   C3B10935   7.706   2.530   6.409 -0.0712 -0.0553  0.0707
  704loPI   C4B10936   7.512   2.294   6.792 -0.1152  0.3109 -0.0798
  705loPI    C110937   7.293   7.379   4.788 -0.2395  0.1472 -0.0984
  705loPI    C210938   7.606   7.529   4.589 -0.0959 -0.2447 -0.1758
  705loPI    C310939   7.256   7.477   4.402 -0.1818  0.0966 -0.1168
  705loPI   PO410940   7.447   7.258   5.008  0.3268 -0.0851  0.2988
  705loPI   GL110941   7.361   7.362   5.391  0.0015  0.1288 -0.0408
  705loPI   GL210942   7.259   6.956   5.369 -0.1393  0.0259 -0.2111
  705loPI   C1A10943   7.326   7.236   5.824 -0.0750 -0.1608 -0.0871
  705loPI   C2A10944   7.265   7.101   6.215 -0.0337  0.0604 -0.0828
  705loPI   C3A10945   7.199   7.133   6.658  0.3088 -0.0126  0.0788
  705loPI   C4A10946   7.479   7.002   7.024 -0.0304 -0.2522  0.0052
  705loPI   C5A10947   7.823   6.735   7.198  0.0175  0.1311 -0.1524
  705loPI   C6A10948   8.295   6.638   7.039 -0.1605 -0.0112 -0.0384
  705loPI   C1B10949   7.563   6.835   5.699 -0.2207  0.0614  0.0756
  705loPI   C2B10950   7.801   6.662   6.056  0.0419 -0.1421  0.1555
  705loPI   C3B10951   7.957   6.529   6.345 -0.1934  0.0661  0.2392
  705loPI   C4B10952   7.997   6.800   6.666  0.0803  0.2224 -0.1106
  706loPI    C110953   9.049   1.238   4.410  0.1555 -0.0447 -0.1219
  706loPI    C210954   9.234   1.187   4.059  0.0928  0.0916 -0.1753
  706loPI    C310955   9.139   1.555   4.184  0.2709  0.0583  0.0658
  706loPI   PO410956   9.263   1.099   4.602 -0.4113 -0.1211  0.0942
  706loPI   GL110957   9.173   0.949   5.001  0.0548  0.1450  0.0413
  706loPI   GL210958   9.397   0.778   5.221  0.2935 -0.1845  0.3312
  706loPI   C1A10959   9.025   1.072   5.452  0.1182 -0.0165  0.3130
  706loPI   C2A10960   8.850   1.142   5.801 -0.2021  0.0759  0.0981
  706loPI   C3A10961   8.878   1.102   6.209 -0.0165  0.0299  0.0723
  706loPI   C4A10962   8.561   1.283   6.373 -0.1425 -0.2181 -0.2104
  706loPI   C5A10963   8.154   1.286   6.376  0.1251  0.0116  0.0592
  706loPI   C6A10964   8.018   1.067   6.697 -0.2147  0.0228 -0.2711
  706loPI   C1B10965   9.490   0.475   5.585 -0.2273  0.2432 -0.1356
  706loPI   C2B10966   9.642   0.402   5.962 -0.0128  0.1282 -0.0031
  706loPI   C3B10967   9.861   0.267   6.297 -0.0026 -0.2381 -0.0655
  706loPI   C4B10968  10.214   0.348   6.511 -0.2367  0.0480 -0.0147
  707loPI    C110969  18.612  14.423   4.655 -0.3340 -0.0287 -0.1454
  707loPI    C210970  18.316  14.604   4.456 -0.1262  0.3539 -0.1158
  707loPI    C310971  18.693  14.639   4.328 -0.1007 -0.2394 -0.2296
  707loPI   PO410972  18.456  14.532   4.974  0.2290  0.1283 -0.1437
  707loPI   GL110973  18.263  14.361   5.225  0.2013 -0.0882 -0.0202
  707loPI   GL210974  17.969  14.335   5.139  0.3492  0.0902  0.0269
  707loPI   C1A10975  18.490  14.325   5.625 -0.1335 -0.0327 -0.1359
  707loPI   C2A10976  18.554  14.484   5.995 -0.1469  0.1913  0.1018
  707loPI   C3A10977  18.611  14.412   6.353 -0.1066 -0.2212 -0.1361
  707loPI   C4A10978  18.555  14.577   6.759 -0.1387  0.0349 -0.1873
  707loPI   C5A10979  18.977  14.576   6.984  0.2385  0.0114  0.2715
  707loPI   C6A10980  19.401  14.792   6.979 -0.0371 -0.1339  0.1677
  707loPI   C1B10981  17.736  14.464   5.559  0.2388 -0.1894  0.1873
  707loPI   C2B10982  17.560  14.417   5.946  0.2886  0.1735  0.3198
  707loPI   C3B10983  17.243  14.199   6.287  0.0766  0.0162 -0.0722
  707loPI   C4B10984  17.115  14.324   6.651 -0.1920  0.0287  0.1149
  708loPI    C110985  16.782   9.996   4.481  0.2235  0.3838 -0.0741
  708loPI    C210986  17.009   9.953   4.154  0.1145  0.0316 -0.1081
  708loPI    C310987  16.615   9.885   4.135  0.0972  0.0745  0.0824
  708loPI   PO410988  16.944   9.950   4.673  0.1241 -0.1555  0.0311
  708loPI   GL110989  16.739   9.998   5.055  0.0218 -0.0921  0.1558
  708loPI   GL210990  16.503  10.260   4.913  0.3243  0.1654 -0.2177
  708loPI   C1A10991  16.494  10.196   5.380  0.2085 -0.2506  0.0645
  708loPI   C2A10992  16.587  10.241   5.898  0.2805  0.2019  0.2197
  708loPI   C3A10993  16.563  10.138   6.388 -0.0984 -0.1608  0.3082
  708loPI   C4A10994  16.698  10.570   6.569  0.0760 -0.0273  0.3189
  708loPI   C5A10995  16.897  10.744   6.932  0.2460 -0.1765 -0.0244
  708loPI   C6A10996  17.237  10.751   7.147 -0.1129  0.0643  0.1940
  708loPI   C1B10997  16.725  10.576   5.114 -0.0449 -0.0074  0.0486
  708loPI   C2B10998  16.725  10.713   5.552 -0.0789 -0.2507  0.1077
  708loPI   C3B10999  16.676  10.691   6.049 -0.0395 -0.1424 -0.0020
  708loPI   C4B11000  16.539  11.016   6.348  0.0562  0.3509  0.1935
  709loPI    C111001  13.703  17.814   3.953  0.1555 -0.2556  0.2933
  709loPI    C211002  13.461  17.703   3.654  0.0093 -0.2725  0.4167
  709loPI    C311003  13.851  17.616   3.639  0.1003  0.1669 -0.0078
  709loPI   PO411004  13.483  17.852   4.129 -0.1571 -0.0460  0.0313
  709loPI   GL111005  13.390  17.689   4.411  0.0665 -0.0876  0.2550
  709loPI   GL211006  13.548  17.799   4.705  0.0169  0.2161 -0.1239
  709loPI   C1A11007  13.081  17.665   4.792 -0.3186  0.0476 -0.1821
  709loPI   C2A11008  13.086  17.871   5.156  0.1786  0.0624 -0.1607
  709loPI   C3A11009  13.352  17.843   5.462 -0.0924  0.0413 -0.0546
  709loPI   C4A11010  13.328  17.899   5.942 -0.2019  0.1442 -0.1608
  709loPI   C5A11011  13.100  17.966   6.412  0.0891 -0.0430  0.1440
  709loPI   C6A11012  13.050  18.256   6.642 -0.0581 -0.1229  0.0321
  709loPI   C1B11013  13.502  18.191   5.017 -0.0666 -0.0216 -0.1520
  709loPI   C2B11014  13.667  18.381   5.447 -0.0913  0.1648  0.0115
  709loPI   C3B11015  13.464  18.423   5.834 -0.2310  0.0043  0.2721
  709loPI   C4B11016  13.333  18.467   6.262 -0.0169  0.0652 -0.1881
  710loPI    C111017  17.476  10.557   4.859 -0.3668 -0.1509 -0.0700
  710loPI    C211018  17.482  10.957   4.873  0.1372 -0.1535 -0.0328
  710loPI    C311019  17.296  10.770   4.572 -0.2321  0.1021  0.0299
  710loPI   PO411020  17.616  10.489   5.112 -0.1614 -0.1544  0.4059
  710loPI   GL111021  17.922  10.742   5.366 -0.1655  0.1603 -0.1149
  710loPI   GL211022  18.095  11.084   5.551  0.0472  0.0273 -0.1958
  710loPI   C1A11023  17.624  10.771   5.707  0.0562  0.0669  0.2202
  710loPI   C2A11024  17.588  10.761   6.160  0.1404  0.0712 -0.2208
  710loPI   C3A11025  17.500  10.673   6.641 -0.1050 -0.1352 -0.1875
  710loPI   C4A11026  17.487  10.329   7.035 -0.2417  0.1003  0.1718
  710loPI   C5A11027  17.684   9.939   7.116 -0.0864 -0.1163  0.0697
  710loPI   C6A11028  17.756   9.514   7.197 -0.2930 -0.0540  0.2534
  710loPI   C1B11029  17.886  11.124   5.891  0.4369 -0.0041 -0.0187
  710loPI   C2B11030  17.465  11.256   6.161 -0.2339  0.1814  0.2031
  710loPI   C3B11031  17.555  11.151   6.568 -0.1675 -0.1309 -0.0196
  710loPI   C4B11032  17.751  10.971   6.949  0.0235  0.0391 -0.0241
  711loPI    C111033  12.752   6.632   4.957  0.0617 -0.0225  0.0947
  711loPI    C211034  12.472   6.458   5.183 -0.0528 -0.0964 -0.1022
  711loPI    C311035  12.406   6.820   5.027 -0.0357 -0.1103 -0.1418
  711loPI   PO411036  12.940   6.369   4.949 -0.0030  0.0473 -0.0027
  711loPI   GL111037  13.054   6.227   5.303  0.2308 -0.1562 -0.0698
  711loPI   GL211038  13.447   6.391   5.303 -0.0437  0.1043  0.2742
  711loPI   C1A11039  12.878   5.962   5.719  0.1001 -0.1645 -0.0186
  711loPI   C2A11040  13.127   5.953   6.164 -0.0127 -0.1417  0.0603
  711loPI   C3A11041  13.417   5.770   6.427 -0.0278 -0.4530  0.2753
  711loPI   C4A11042  13.590   5.820   6.848  0.0357  0.0110  0.1204
  711loPI   C5A11043  13.707   5.816   7.238 -0.1374 -0.0616 -0.2256
  711loPI   C6A11044  13.907   6.155   7.341 -0.1376  0.3581 -0.3671
  711loPI   C1B11045  13.315   6.247   5.742 -0.0857 -0.0468  0.4460
  711loPI   C2B11046  13.501   6.254   6.259 -0.2172  0.2432 -0.0143
  711loPI   C3B11047  13.440   6.312   6.681 -0.0244  0.2049  0.1722
  711loPI   C4B11048  13.690   6.280   6.960  0.3038 -0.0093  0.2633
  712loPI    C111049  16.745  18.600   4.235 -0.1853 -0.0546  0.4349
  712loPI    C211050  16.403  18.396   4.274 -0.2965  0.0545  0.0677
  712loPI    C311051  16.561  18.453   3.911  0.1775 -0.0970  0.2433
  712loPI   PO411052  16.917  18.389   4.376 -0.0404 -0.1767  0.0546
  712loPI   GL111053  16.983  18.015   4.628  0.1488 -0.0754 -0.0203
  712loPI   GL211054  16.597  18.170   4.660 -0.2374  0.4972  0.1440
  712loPI   C1A11055  17.248  17.799   4.989  0.0078 -0.0001 -0.1073
  712loPI   C2A11056  17.347  17.541   5.461 -0.0967  0.0706  0.1246
  712loPI   C3A11057  17.282  17.604   5.840  0.0748 -0.1218  0.2195
  712loPI   C4A11058  17.316  17.605   6.094 -0.4892  0.4373  0.1137
  712loPI   C5A11059  17.028  17.706   6.388  0.1374  0.3724  0.4571
  712loPI   C6A11060  16.638  17.653   6.602  0.0521 -0.0555 -0.0488
  712loPI   C1B11061  16.428  18.280   5.048  0.4217  0.0045  0.0695
  712loPI   C2B11062  16.468  18.288   5.433 -0.1991 -0.0137 -0.2279
  712loPI   C3B11063  16.369  18.018   5.788  0.0716 -0.0550  0.0025
  712loPI   C4B11064  16.534  18.052   6.240  0.0211 -0.2155  0.3128
  713loPI    C111065  18.519  14.149   4.247 -0.1692  0.0035  0.0488
  713loPI    C211066  18.482  14.032   3.866 -0.2232  0.1826 -0.0016
  713loPI    C311067  18.760  14.302   3.967 -0.0891  0.0025  0.1167
  713loPI   PO411068  18.536  13.955   4.370  0.0216 -0.0212 -0.3313
  713loPI   GL111069  18.560  13.855   4.714 -0.0974 -0.0915  0.2515
  713loPI   GL211070  18.806  14.065   4.960 -0.0167 -0.3252  0.1373
  713loPI   C1A11071  18.755  13.567   4.969 -0.2173  0.1845 -0.2290
  713loPI   C2A11072  18.711  13.380   5.383 -0.2009 -0.1531 -0.1612
  713loPI   C3A11073  18.567  13.318   5.844 -0.1261 -0.4412  0.3085
  713loPI   C4A11074  18.655  13.252   6.365 -0.1464 -0.0753 -0.4210
  713loPI   C5A11075  18.932  13.254   6.753 -0.3352 -0.2619 -0.4516
  713loPI   C6A11076  19.221  13.160   7.026 -0.0088 -0.0474  0.1650
  713loPI   C1B11077  18.708  13.966   5.346 -0.3057  0.0706 -0.2578
  713loPI   C2B11078  18.543  13.833   5.721  0.1060 -0.1271 -0.0002
  713loPI   C3B11079  18.430  13.962   6.123  0.0245  0.0578 -0.0644
  713loPI   C4B11080  18.284  14.091   6.626  0.1456 -0.1498 -0.0894
  714loPI    C111081  17.570   5.052   4.703  0.1372  0.0528 -0.2268
  714loPI    C211082  17.863   5.045   4.975  0.1252 -0.2064 -0.2181
  714loPI    C311083  17.826   5.359   4.730 -0.0373  0.1656  0.2659
  714loPI   PO411084  17.370   4.959   4.876 -0.1730 -0.0647 -0.1416
  714loPI   GL111085  17.346   5.031   5.402  0.4337  0.2850  0.3130
  714loPI   GL211086  17.040   4.948   5.627 -0.1629  0.3715  0.0547
  714loPI   C1A11087  17.567   5.138   5.757 -0.0931  0.3283 -0.1236
  714loPI   C2A11088  17.789   4.945   6.117  0.0654  0.2471 -0.0427
  714loPI   C3A11089  17.542   5.042   6.483  0.0679 -0.2668 -0.0504
  714loPI   C4A11090  17.608   5.146   6.886 -0.1091  0.2277  0.0869
  714loPI   C5A11091  17.445   4.874   7.322  0.0737 -0.2739  0.0021
  714loPI   C6A11092  17.022   4.785   7.527 -0.1188  0.0693 -0.0056
  714loPI   C1B11093  17.272   4.850   6.113  0.0860 -0.0866  0.0139
  714loPI   C2B11094  17.195   4.790   6.644  0.0984  0.2420  0.0562
  714loPI   C3B11095  17.075   4.895   7.003 -0.0360  0.1984 -0.0812
  714loPI   C4B11096  16.741   4.611   7.134  0.0610 -0.1566  0.1365
  715loPI    C111097   3.452  10.536   5.080  0.0688 -0.0915  0.0578
  715loPI    C211098   3.786  10.344   4.972 -0.0250 -0.1984 -0.0459
  715loPI    C311099   3.466  10.337   4.733 -0.1217 -0.1471  0.0809
  715loPI   PO411100   3.439  10.408   5.325 -0.0752  0.3537 -0.1258
  715loPI   GL111101   3.401  10.260   5.682 -0.2229 -0.1438 -0.1498
  715loPI   GL211102   3.709  10.119   5.655  0.1947 -0.2308 -0.2173
  715loPI   C1A11103   3.278  10.126   6.111  0.1293  0.1426 -0.1421
  715loPI   C2A11104   3.405  10.008   6.451  0.1878  0.1824 -0.1293
  715loPI   C3A11105   3.315   9.864   6.826 -0.1834 -0.3486 -0.1639
  715loPI   C4A11106   3.176  10.078   7.094 -0.0810  0.0426 -0.4311
  715loPI   C5A11107   2.992   9.907   7.473  0.2276  0.0258 -0.2687
  715loPI   C6A11108   2.900   9.788   7.908  0.0426  0.1139 -0.1127
  715loPI   C1B11109   3.772  10.189   6.025 -0.0155 -0.1197  0.1926
  715loPI   C2B11110   3.747  10.394   6.498 -0.3388 -0.1009  0.0374
  715loPI   C3B11111   3.649  10.290   6.878  0.3842  0.0089  0.3167
  715loPI   C4B11112   3.803  10.210   7.342 -0.2505 -0.1898  0.1200
  716loPI    C111113  15.210  17.174   3.777  0.0998  0.2888 -0.2057
  716loPI    C211114  15.546  17.348   3.908  0.1759  0.0719 -0.1090
  716loPI    C311115  15.566  17.050   3.642  0.0477  0.1911 -0.2540
  716loPI   PO411116  15.006  17.330   3.924  0.0062 -0.1777  0.2645
  716loPI   GL111117  15.046  17.428   4.380  0.0377  0.0631 -0.0854
  716loPI   GL211118  14.890  17.630   4.334  0.2726 -0.0739  0.0110
  716loPI   C1A11119  15.113  17.117   4.720 -0.1319 -0.0394 -0.0943
  716loPI   C2A11120  14.779  16.984   4.843 -0.1308 -0.2328  0.2453
  716loPI   C3A11121  14.664  16.952   5.301  0.0369 -0.0124 -0.0789
  716loPI   C4A11122  14.547  17.199   5.605  0.1431 -0.0712 -0.1948
  716loPI   C5A11123  14.280  17.435   5.886 -0.1124  0.2576 -0.1080
  716loPI   C6A11124  13.865  17.641   6.025  0.0908  0.3580 -0.1792
  716loPI   C1B11125  14.642  17.464   4.718  0.0415  0.0234  0.0564
  716loPI   C2B11126  14.528  17.494   5.100  0.4862  0.1383 -0.2416
  716loPI   C3B11127  14.203  17.461   5.350  0.2713 -0.1107  0.0591
  716loPI   C4B11128  14.126  17.061   5.423  0.1975 -0.3961 -0.0967
  717loPI    C111129   9.533  19.375   4.579 -0.2144 -0.1933  0.0923
  717loPI    C211130   9.607  19.004   4.450  0.1817 -0.0549 -0.0929
  717loPI    C311131   9.667  19.316   4.207  0.2384  0.1589  0.1911
  717loPI   PO411132   9.479  19.485   4.817 -0.1249  0.2487  0.1031
  717loPI   GL111133   9.921  19.405   5.027  0.1424  0.0375  0.2932
  717loPI   GL211134  10.266  19.504   5.045 -0.4610  0.0725  0.0961
  717loPI   C1A11135   9.910  19.234   5.401  0.1357 -0.1761 -0.0961
  717loPI   C2A11136  10.095  19.124   5.763 -0.1654  0.2770  0.2368
  717loPI   C3A11137  10.065  18.987   6.184 -0.0264 -0.0283  0.1139
  717loPI   C4A11138  10.230  18.682   6.555 -0.2715 -0.1315  0.1031
  717loPI   C5A11139  10.189  18.149   6.578  0.1427  0.0835 -0.0569
  717loPI   C6A11140   9.882  17.919   6.661  0.0016  0.2132  0.1353
  717loPI   C1B11141  10.440  19.691   5.320  0.0412  0.2707  0.0342
  717loPI   C2B11142  10.631  19.804   5.793  0.0282  0.3029  0.0880
  717loPI   C3B11143  10.627  19.667   6.208 -0.2524 -0.0027 -0.0986
  717loPI   C4B11144  10.771  19.441   6.510 -0.1143  0.3826 -0.2879
  718loPI    C111145   2.588   0.195   4.657  0.0555 -0.1414  0.0929
  718loPI    C211146   2.445   0.106   4.295  0.1176 -0.2738  0.1002
  718loPI    C311147   2.544   0.484   4.384 -0.4363 -0.1369  0.1689
  718loPI   PO411148   2.427   0.048   4.808  0.2689 -0.2322 -0.2787
  718loPI   GL111149   2.357   0.079   5.184  0.1308  0.1563  0.3597
  718loPI   GL211150   2.634   0.234   5.188 -0.0656 -0.0293  0.0850
  718loPI   C1A11151   2.231   0.292   5.534  0.0729 -0.0755  0.0568
  718loPI   C2A11152   2.142   0.360   5.991 -0.0349 -0.1016  0.0208
  718loPI   C3A11153   2.179   0.455   6.410 -0.0286  0.5238 -0.2436
  718loPI   C4A11154   2.078   0.456   6.861  0.0642 -0.0817  0.0725
  718loPI   C5A11155   2.194   0.788   7.107 -0.0187  0.0801  0.0703
  718loPI   C6A11156   2.402   1.235   7.168 -0.1747 -0.2526 -0.0281
  718loPI   C1B11157   2.626  -0.006   5.572  0.1271  0.2402 -0.0567
  718loPI   C2B11158   2.407  -0.099   6.056 -0.1570 -0.2887 -0.0292
  718loPI   C3B11159   2.226  -0.099   6.479  0.4400  0.0158  0.3221
  718loPI   C4B11160   1.877  -0.172   6.735  0.0650 -0.0237 -0.0343
  719loPI    C111161  18.807  12.547   4.273 -0.0614  0.0848  0.1080
  719loPI    C211162  18.923  12.213   4.086  0.0627 -0.1456  0.5806
  719loPI    C311163  18.980  12.569   3.913 -0.0020 -0.3592  0.1038
  719loPI   PO411164  18.722  12.402   4.494 -0.0371  0.1341 -0.3196
  719loPI   GL111165  18.670  12.304   4.961  0.1867 -0.1730  0.1502
  719loPI   GL211166  19.022  12.378   4.974 -0.0776  0.2665  0.1863
  719loPI   C1A11167  18.450  12.288   5.337  0.2484 -0.1533  0.1749
  719loPI   C2A11168  18.482  12.044   5.834  0.2936  0.0507  0.2707
  719loPI   C3A11169  18.456  12.124   6.335  0.1775 -0.0485  0.2546
  719loPI   C4A11170  18.104  11.949   6.603  0.2433  0.1727  0.2058
  719loPI   C5A11171  17.847  11.861   6.972 -0.0740 -0.0012  0.1950
  719loPI   C6A11172  17.738  11.487   7.150  0.0851 -0.0576  0.1942
  719loPI   C1B11173  18.869  12.613   5.305 -0.2307 -0.0580 -0.4063
  719loPI   C2B11174  18.745  12.664   5.821  0.1294  0.1882  0.0874
  719loPI   C3B11175  18.582  12.773   6.189 -0.2073 -0.1427  0.0363
  719loPI   C4B11176  18.306  12.908   6.520 -0.0393 -0.0384 -0.2696
  720loPI    C111177  15.921  17.675   3.750 -0.1000  0.2000 -0.1617
  720loPI    C211178  15.728  17.516   3.438  0.0947  0.1128 -0.2391
  720loPI    C311179  15.996  17.298   3.639  0.1220  0.2368 -0.1401
  720loPI   PO411180  15.811  17.834   3.874  0.2537 -0.0840 -0.3075
  720loPI   GL111181  15.743  17.701   4.261  0.1277  0.2672  0.1128
  720loPI   GL211182  15.519  17.494   4.393 -0.0094  0.0185 -0.0353
  720loPI   C1A11183  15.975  17.542   4.661 -0.3233 -0.0777  0.0528
  720loPI   C2A11184  15.970  17.433   5.136 -0.2027  0.0711 -0.0938
  720loPI   C3A11185  15.891  17.493   5.536 -0.0680 -0.2903  0.1171
  720loPI   C4A11186  16.031  17.284   5.930 -0.3263 -0.1091 -0.1757
  720loPI   C5A11187  16.235  16.981   6.141  0.0552  0.2857  0.0946
  720loPI   C6A11188  16.243  16.831   6.563  0.1082 -0.3248 -0.2426
  720loPI   C1B11189  15.296  17.557   4.839  0.0406 -0.0373 -0.1495
  720loPI   C2B11190  15.059  17.525   5.169 -0.1355  0.1955  0.0953
  720loPI   C3B11191  15.052  17.282   5.517  0.2681 -0.0818  0.3212
  720loPI   C4B11192  14.949  17.075   5.880  0.2757 -0.3773  0.2247
  721loPI    C111193   4.650   7.020   4.646 -0.1487  0.0778 -0.1838
  721loPI    C211194   4.941   6.925   4.388 -0.1862  0.0782 -0.2263
  721loPI    C311195   4.668   7.200   4.289  0.0024  0.3346 -0.0497
  721loPI   PO411196   4.753   7.052   4.869  0.2515 -0.2729 -0.0528
  721loPI   GL111197   5.004   7.391   5.133  0.0602  0.0020 -0.3148
  721loPI   GL211198   5.102   7.124   5.212  0.1517 -0.0807 -0.3389
  721loPI   C1A11199   5.006   7.527   5.536  0.1258 -0.1320 -0.3362
  721loPI   C2A11200   5.100   7.653   6.053  0.0111 -0.4192  0.0364
  721loPI   C3A11201   5.023   7.831   6.487 -0.1138 -0.3646  0.3114
  721loPI   C4A11202   5.032   7.729   6.969  0.1888  0.0726 -0.0978
  721loPI   C5A11203   4.869   7.594   7.356  0.1048  0.2699  0.1613
  721loPI   C6A11204   4.600   7.580   7.727 -0.0130 -0.4821  0.3792
  721loPI   C1B11205   5.427   7.019   5.519 -0.5114 -0.1769  0.3287
  721loPI   C2B11206   5.695   6.697   5.641  0.3482  0.2397 -0.0331
  721loPI   C3B11207   5.981   6.666   5.958 -0.1571 -0.1429 -0.0968
  721loPI   C4B11208   6.087   6.724   6.340  0.1028 -0.0991 -0.1192
  722loPI    C111209  16.723   0.055   4.394  0.1339  0.1680  0.1572
  722loPI    C211210  16.426   0.284   4.254  0.0415  0.1061  0.2501
  722loPI    C311211  16.550  -0.034   4.044  0.0879  0.1704  0.1793
  722loPI   PO411212  16.696   0.011   4.615  0.0737  0.0010  0.0689
  722loPI   GL111213  16.661   0.249   5.003 -0.1159 -0.1716 -0.0888
  722loPI   GL211214  16.945  -0.068   5.046  0.1510 -0.3324  0.0641
  722loPI   C1A11215  16.671   0.172   5.428 -0.0015 -0.2636 -0.0609
  722loPI   C2A11216  16.785   0.130   5.888  0.2337 -0.2851  0.0698
  722loPI   C3A11217  16.813   0.213   6.288  0.2411 -0.1300  0.2332
  722loPI   C4A11218  16.523   0.506   6.536 -0.1040 -0.0878  0.1011
  722loPI   C5A11219  16.219   0.382   7.015 -0.0048  0.1265  0.1137
  722loPI   C6A11220  15.854   0.301   7.329  0.1152 -0.1725 -0.0692
  722loPI   C1B11221  16.978  -0.213   5.486  0.1945  0.1266  0.0930
  722loPI   C2B11222  17.296  -0.088   5.890  0.0229 -0.0061  0.0530
  722loPI   C3B11223  17.291   0.039   6.256  0.0265  0.3649 -0.4830
  722loPI   C4B11224  17.624   0.131   6.597  0.2993  0.0541  0.1475
  723loPI    C111225   5.066   1.821   4.627 -0.0736  0.0446  0.0205
  723loPI    C211226   5.384   2.023   4.491  0.1362 -0.0729  0.3259
  723loPI    C311227   5.015   2.146   4.399  0.2664  0.1589  0.1012
  723loPI   PO411228   5.183   1.700   4.829  0.0573  0.0317 -0.0405
  723loPI   GL111229   5.128   1.805   5.330 -0.0213  0.1757  0.4639
  723loPI   GL211230   4.976   1.512   5.308  0.1720  0.3411  0.2272
  723loPI   C1A11231   5.501   1.853   5.543 -0.2583  0.1908 -0.2833
  723loPI   C2A11232   5.511   1.826   5.989 -0.0077  0.0583 -0.0168
  723loPI   C3A11233   5.353   2.027   6.283 -0.2466 -0.1974  0.3759
  723loPI   C4A11234   4.912   2.024   6.360  0.1038 -0.2615 -0.1269
  723loPI   C5A11235   4.560   2.211   6.469 -0.2287 -0.1649  0.1907
  723loPI   C6A11236   4.432   2.311   6.884 -0.0460 -0.0692  0.3958
  723loPI   C1B11237   5.141   1.470   5.671  0.0593  0.2219 -0.1550
  723loPI   C2B11238   4.875   1.390   6.098  0.0248  0.0499  0.2546
  723loPI   C3B11239   5.067   1.567   6.487 -0.1975  0.1906 -0.0301
  723loPI   C4B11240   5.516   1.600   6.467  0.3221  0.1434 -0.0394
  724loPI    C111241   7.597   6.380   4.676 -0.2715  0.1385 -0.0802
  724loPI    C211242   7.378   6.084   4.518 -0.3998  0.2339 -0.0825
  724loPI    C311243   7.585   6.329   4.279  0.1553 -0.1908 -0.0589
  724loPI   PO411244   7.679   6.249   4.895 -0.3535  0.1453  0.1225
  724loPI   GL111245   7.763   6.496   5.244  0.1017 -0.1102  0.1480
  724loPI   GL211246   7.499   6.364   5.355  0.0861 -0.0093 -0.2334
  724loPI   C1A11247   7.982   6.557   5.607  0.0202  0.0246  0.0578
  724loPI   C2A11248   8.326   6.472   5.872  0.1958 -0.0574  0.0815
  724loPI   C3A11249   8.479   6.373   6.282 -0.0585  0.1493  0.2330
  724loPI   C4A11250   8.256   6.322   6.671 -0.1047  0.1604 -0.1248
  724loPI   C5A11251   8.083   6.181   7.096 -0.0474  0.0659 -0.0988
  724loPI   C6A11252   8.090   5.949   7.452 -0.0643  0.0569  0.0870
  724loPI   C1B11253   7.592   6.277   5.844 -0.0985 -0.0249 -0.2335
  724loPI   C2B11254   7.583   6.183   6.273  0.2974 -0.0217  0.0020
  724loPI   C3B11255   7.766   6.176   6.574 -0.0088 -0.1329  0.1026
  724loPI   C4B11256   7.582   6.415   6.837  0.0903  0.0258 -0.1405
  725loPI    C111257   6.399  18.314   4.505  0.0476 -0.0288  0.0184
  725loPI    C211258   6.085  18.068   4.481 -0.1582  0.2635 -0.4027
  725loPI    C311259   6.383  18.038   4.216 -0.0666  0.3086 -0.3057
  725loPI   PO411260   6.381  18.203   4.847 -0.1298  0.1190  0.1076
  725loPI   GL111261   6.286  18.299   5.187 -0.2815 -0.2179  0.2350
  725loPI   GL211262   6.056  18.020   5.248 -0.0379 -0.1497 -0.0408
  725loPI   C1A11263   6.505  18.322   5.520  0.1677  0.0441 -0.1536
  725loPI   C2A11264   6.381  18.479   5.906 -0.0506  0.1932  0.1937
  725loPI   C3A11265   6.115  18.518   6.282 -0.0355  0.1282 -0.0191
  725loPI   C4A11266   6.138  18.588   6.640 -0.1430 -0.1070  0.0728
  725loPI   C5A11267   6.186  18.863   7.111 -0.1859 -0.2394  0.3648
  725loPI   C6A11268   5.973  19.206   7.351 -0.1515  0.1846 -0.1097
  725loPI   C1B11269   6.081  18.114   5.701 -0.1566  0.0739  0.2441
  725loPI   C2B11270   5.949  18.185   6.051  0.2747  0.0665 -0.0054
  725loPI   C3B11271   5.901  18.072   6.416 -0.2802 -0.0671  0.2247
  725loPI   C4B11272   6.006  18.140   6.852  0.0338  0.2662  0.0790
  726loPI    C111273   7.294  14.192   5.104  0.0667 -0.1438 -0.0695
  726loPI    C211274   7.284  14.407   4.767 -0.0833 -0.2127 -0.1099
  726loPI    C311275   7.633  14.340   4.951 -0.0041 -0.1514 -0.2361
  726loPI   PO411276   7.170  14.362   5.248  0.0441 -0.0305 -0.3093
  726loPI   GL111277   6.996  14.396   5.598  0.1436 -0.0279 -0.2305
  726loPI   GL211278   7.105  14.722   5.594  0.2329 -0.3727  0.0743
  726loPI   C1A11279   6.831  14.322   5.927 -0.0079 -0.0984  0.2330
  726loPI   C2A11280   6.834  14.398   6.346 -0.1117 -0.2299  0.3016
  726loPI   C3A11281   6.831  14.262   6.740 -0.0800 -0.1061 -0.3108
  726loPI   C4A11282   6.778  14.315   7.157  0.2084 -0.3564  0.0499
  726loPI   C5A11283   6.606  14.461   7.477  0.1209 -0.0408 -0.0624
  726loPI   C6A11284   6.175  14.523   7.541  0.0395  0.1258  0.0862
  726loPI   C1B11285   6.836  14.845   5.946 -0.0402 -0.0056 -0.1374
  726loPI   C2B11286   6.485  14.798   6.325 -0.0105 -0.1169  0.4978
  726loPI   C3B11287   6.115  14.835   6.588 -0.1710  0.0129 -0.3082
  726loPI   C4B11288   5.693  14.873   6.480 -0.1515  0.1182 -0.0285
  727loPI    C111289   1.046  17.806   4.259  0.0519 -0.1191  0.1548
  727loPI    C211290   0.685  17.637   4.287  0.0188 -0.0933 -0.0991
  727loPI    C311291   0.862  17.674   3.930  0.2195  0.0056  0.0091
  727loPI   PO411292   1.046  17.994   4.415  0.0435  0.1856  0.1006
  727loPI   GL111293   1.154  18.101   4.832 -0.0731 -0.1424 -0.1248
  727loPI   GL211294   1.108  17.720   4.981  0.1142 -0.0954  0.2216
  727loPI   C1A11295   1.436  17.966   5.194 -0.0535 -0.1785  0.1747
  727loPI   C2A11296   1.443  18.142   5.683  0.2803 -0.1283  0.0112
  727loPI   C3A11297   1.492  18.282   6.016  0.0146 -0.1261 -0.1170
  727loPI   C4A11298   1.469  18.498   6.375  0.1844  0.0337  0.1316
  727loPI   C5A11299   1.782  18.757   6.618  0.0548 -0.1572  0.0679
  727loPI   C6A11300   2.053  18.974   6.486  0.1031 -0.2257 -0.0153
  727loPI   C1B11301   1.070  17.762   5.454  0.1038 -0.0344  0.0942
  727loPI   C2B11302   1.104  17.836   5.886 -0.1991  0.0297 -0.2459
  727loPI   C3B11303   1.145  17.751   6.328 -0.1992 -0.0285  0.1048
  727loPI   C4B11304   1.237  17.446   6.767 -0.2278  0.3945 -0.0369
  728loPI    C111305  13.268  16.184   4.374  0.1993  0.0323 -0.0153
  728loPI    C211306  13.572  15.973   4.222  0.1788 -0.0996  0.1237
  728loPI    C311307  13.204  15.816   4.229  0.0574  0.1530 -0.2647
  728loPI   PO411308  13.296  16.167   4.610 -0.0916 -0.1604 -0.1637
  728loPI   GL111309  13.197  16.225   5.075 -0.0474 -0.2567  0.0881
  728loPI   GL211310  13.402  16.008   5.358 -0.0000  0.0400 -0.2512
  728loPI   C1A11311  13.478  16.504   5.334  0.0312 -0.3006 -0.2609
  728loPI   C2A11312  13.772  16.626   5.651  0.2180 -0.0817  0.1954
  728loPI   C3A11313  13.935  16.666   6.040  0.0319  0.0878  0.1492
  728loPI   C4A11314  14.311  16.585   6.264 -0.1372 -0.0725  0.0380
  728loPI   C5A11315  14.696  16.413   6.494 -0.1486 -0.0212  0.1055
  728loPI   C6A11316  15.115  16.130   6.640 -0.2012 -0.0576 -0.1682
  728loPI   C1B11317  13.387  16.135   5.687 -0.2802 -0.1590  0.2054
  728loPI   C2B11318  13.089  16.174   5.962 -0.2515  0.1681 -0.3771
  728loPI   C3B11319  13.000  16.486   6.312  0.1167  0.0626 -0.3707
  728loPI   C4B11320  12.861  16.695   6.649  0.1887 -0.3074  0.3611
  729loPI    C111321   8.617   9.407   4.964  0.0144  0.0910 -0.0509
  729loPI    C211322   8.360   9.254   4.698  0.0468 -0.0801  0.0150
  729loPI    C311323   8.667   9.479   4.573 -0.0485  0.0006 -0.0759
  729loPI   PO411324   8.704   9.130   5.138 -0.2555  0.0630  0.0308
  729loPI   GL111325   8.849   9.121   5.531 -0.0214  0.0455  0.0868
  729loPI   GL211326   8.671   8.892   5.710 -0.0184 -0.0060  0.1443
  729loPI   C1A11327   9.210   9.033   5.793  0.0694  0.1669  0.1333
  729loPI   C2A11328   9.318   8.802   6.187 -0.3156 -0.2954 -0.1486
  729loPI   C3A11329   9.453   8.709   6.551  0.0372  0.6064 -0.2126
  729loPI   C4A11330   9.536   8.589   7.031 -0.0935  0.0032  0.1349
  729loPI   C5A11331   9.440   8.366   7.421 -0.1520  0.0940 -0.2121
  729loPI   C6A11332   9.318   8.001   7.731 -0.3853  0.0391 -0.1426
  729loPI   C1B11333   8.833   8.750   6.038 -0.0421 -0.1013  0.1253
  729loPI   C2B11334   8.962   8.934   6.459 -0.0373 -0.0614  0.2558
  729loPI   C3B11335   9.309   9.149   6.674  0.1788  0.1764 -0.1062
  729loPI   C4B11336   9.602   9.231   6.954 -0.0763 -0.3106 -0.1740
  730loPI    C111337   2.531   3.726   4.429  0.0244  0.1827 -0.0375
  730loPI    C211338   2.901   3.823   4.311  0.1004  0.0221  0.0634
  730loPI    C311339   2.592   3.870   4.061  0.2230 -0.0726 -0.1084
  730loPI   PO411340   2.521   3.861   4.687  0.0766 -0.0598 -0.0027
  730loPI   GL111341   2.478   3.936   5.096 -0.2831  0.0496  0.0087
  730loPI   GL211342   2.877   3.797   5.212 -0.1713  0.1363  0.3168
  730loPI   C1A11343   2.551   4.095   5.574 -0.3463  0.0837 -0.0574
  730loPI   C2A11344   2.874   3.901   5.868 -0.2193 -0.4462 -0.0260
  730loPI   C3A11345   3.102   3.599   6.112 -0.3139  0.0110  0.1444
  730loPI   C4A11346   3.225   3.538   6.498  0.1432 -0.1862  0.1346
  730loPI   C5A11347   3.188   3.382   6.870 -0.0861  0.0475 -0.0748
  730loPI   C6A11348   3.690   3.206   6.952  0.1675 -0.2133 -0.1378
  730loPI   C1B11349   3.155   3.770   5.515  0.1023 -0.1672 -0.0148
  730loPI   C2B11350   3.465   3.692   5.757 -0.0745 -0.0561  0.0498
  730loPI   C3B11351   3.538   3.349   5.969  0.1723 -0.1907  0.0712
  730loPI   C4B11352   3.444   2.977   6.305 -0.1754 -0.1901 -0.2350
  731loPI    C111353   6.633  10.898   5.196  0.1576  0.2193 -0.1823
  731loPI    C211354   6.386  10.626   5.038  0.2132 -0.0383  0.1624
  731loPI    C311355   6.371  11.006   4.914 -0.3824 -0.0387  0.2030
  731loPI   PO411356   6.641  10.855   5.424 -0.2032 -0.0297 -0.1594
  731loPI   GL111357   6.418  10.912   5.812 -0.0374 -0.0159  0.1259
  731loPI   GL211358   6.107  10.707   5.803 -0.1885 -0.0391  0.0491
  731loPI   C1A11359   6.434  10.784   6.205 -0.1395  0.2770 -0.0433
  731loPI   C2A11360   6.314  10.722   6.620 -0.0730  0.2381 -0.1064
  731loPI   C3A11361   5.803  10.681   6.626 -0.2135  0.0948 -0.2785
  731loPI   C4A11362   5.556  10.352   6.936 -0.1030  0.2221  0.0921
  731loPI   C5A11363   5.554  10.094   7.337  0.4247  0.0476 -0.2009
  731loPI   C6A11364   5.206   9.901   7.551  0.0439 -0.0589  0.1768
  731loPI   C1B11365   5.843  10.662   6.132 -0.1760 -0.3551 -0.0434
  731loPI   C2B11366   5.425  10.656   6.260  0.2114  0.0252  0.0663
  731loPI   C3B11367   5.277  10.713   6.670  0.1858 -0.1953 -0.0535
  731loPI   C4B11368   5.027  10.341   6.857  0.3461 -0.2594 -0.0321
  732loPI    C111369   3.265   0.814   4.632  0.0305 -0.1370  0.0783
  732loPI    C211370   3.094   0.623   4.325 -0.1351 -0.0272  0.1007
  732loPI    C311371   3.399   0.454   4.521 -0.0429 -0.1076 -0.1095
  732loPI   PO411372   3.145   0.880   4.876 -0.1131  0.1379 -0.0481
  732loPI   GL111373   2.964   0.713   5.266 -0.0148 -0.0099  0.0009
  732loPI   GL211374   2.746   1.042   5.333  0.0554  0.4480 -0.2064
  732loPI   C1A11375   3.257   0.667   5.577  0.0114 -0.2351  0.1188
  732loPI   C2A11376   3.510   0.530   6.003  0.1226 -0.2239 -0.0493
  732loPI   C3A11377   3.585   0.150   6.167 -0.1686 -0.2681 -0.3254
  732loPI   C4A11378   3.356  -0.102   6.521 -0.0070 -0.0683 -0.1152
  732loPI   C5A11379   3.309  -0.387   6.768 -0.2550 -0.2334  0.3463
  732loPI   C6A11380   3.174  -0.310   7.159  0.0327 -0.1478 -0.1959
  732loPI   C1B11381   2.872   0.944   5.757  0.1780 -0.1733  0.0309
  732loPI   C2B11382   3.072   0.728   6.093 -0.4321 -0.1096  0.2404
  732loPI   C3B11383   3.032   0.762   6.555 -0.2703 -0.1254 -0.0258
  732loPI   C4B11384   2.959   1.118   6.649 -0.0862  0.1583 -0.1294
  733loPI    C111385   3.537   1.944   5.250 -0.0714 -0.1870  0.0029
  733loPI    C211386   3.264   1.659   5.319 -0.1529 -0.1614 -0.2085
  733loPI    C311387   3.452   1.676   4.966  0.1659 -0.2136 -0.0443
  733loPI   PO411388   3.759   2.029   5.345  0.2140 -0.0667  0.0854
  733loPI   GL111389   4.021   2.258   5.706 -0.0401  0.2463 -0.0610
  733loPI   GL211390   4.303   2.118   5.744  0.2278  0.1071  0.0555
  733loPI   C1A11391   3.821   2.580   6.023  0.0242  0.1827  0.5235
  733loPI   C2A11392   3.919   2.789   6.424  0.0706  0.0216  0.0705
  733loPI   C3A11393   4.053   2.829   6.830  0.1340 -0.1588  0.2461
  733loPI   C4A11394   4.138   3.110   7.160 -0.0449  0.0026  0.1763
  733loPI   C5A11395   4.312   3.595   7.196  0.2770  0.3324  0.1433
  733loPI   C6A11396   4.582   3.948   7.109  0.4347 -0.2162  0.3182
  733loPI   C1B11397   4.191   2.160   6.122 -0.2228 -0.2237  0.0538
  733loPI   C2B11398   4.062   2.233   6.554 -0.0501  0.0612 -0.2571
  733loPI   C3B11399   3.898   2.180   6.899 -0.2684  0.1516 -0.0580
  733loPI   C4B11400   3.838   2.039   7.293  0.1798 -0.0061 -0.1619
  734loPI    C111401   2.449   8.852   5.081  0.0266 -0.0769 -0.0048
  734loPI    C211402   2.483   8.674   4.725  0.1301 -0.2252  0.0784
  734loPI    C311403   2.128   8.813   4.846  0.1443  0.0558 -0.1906
  734loPI   PO411404   2.547   8.782   5.258  0.1028  0.1495  0.0370
  734loPI   GL111405   2.575   8.510   5.621  0.1005  0.0700 -0.0281
  734loPI   GL211406   2.848   8.570   5.673 -0.0678  0.1491 -0.1315
  734loPI   C1A11407   2.538   8.714   6.011 -0.3147 -0.3019 -0.3716
  734loPI   C2A11408   2.511   8.738   6.507  0.1078  0.1168  0.3946
  734loPI   C3A11409   2.732   8.882   6.850 -0.1337 -0.0451 -0.2094
  734loPI   C4A11410   2.872   8.847   7.371 -0.0495  0.1233 -0.0509
  734loPI   C5A11411   2.739   8.963   7.712  0.2050  0.1534  0.3228
  734loPI   C6A11412   3.077   9.157   8.018 -0.4340 -0.0175 -0.0992
  734loPI   C1B11413   2.951   8.362   6.153  0.2305  0.0878  0.2761
  734loPI   C2B11414   2.980   8.065   6.389  0.0296 -0.0220 -0.1019
  734loPI   C3B11415   2.774   7.794   6.685  0.2625  0.0628 -0.0665
  734loPI   C4B11416   2.480   7.544   6.733 -0.1638  0.0532  0.3595
  735loPI    C111417   7.892   0.055   4.442 -0.2513  0.0803  0.1939
  735loPI    C211418   7.684  -0.072   4.125 -0.0692  0.1392  0.0489
  735loPI    C311419   7.976   0.198   4.078  0.0646  0.0307  0.2440
  735loPI   PO411420   7.718  -0.056   4.638  0.3337 -0.3697 -0.0631
  735loPI   GL111421   7.780  -0.156   5.084  0.3631  0.0334 -0.2772
  735loPI   GL211422   8.036  -0.282   5.249 -0.2461  0.1364 -0.0473
  735loPI   C1A11423   7.664   0.234   5.316  0.2760 -0.3522  0.1502
  735loPI   C2A11424   7.377   0.567   5.527  0.1995 -0.0849  0.4119
  735loPI   C3A11425   7.410   0.734   5.994  0.3496 -0.1125  0.2000
  735loPI   C4A11426   7.216   0.824   6.407  0.0412  0.0525  0.3469
  735loPI   C5A11427   7.031   1.071   6.805 -0.2671  0.0266 -0.2064
  735loPI   C6A11428   6.992   1.273   7.254  0.0312 -0.1492 -0.3592
  735loPI   C1B11429   7.769  -0.199   5.630  0.0342 -0.1827 -0.0208
  735loPI   C2B11430   7.795   0.154   5.852 -0.0574  0.2887 -0.0331
  735loPI   C3B11431   7.567   0.255   6.207  0.0327 -0.0741 -0.1042
  735loPI   C4B11432   7.258   0.265   6.469 -0.2517 -0.2300 -0.2563
  736loPI    C111433   6.542   1.095   5.231  0.2212  0.1029  0.0086
  736loPI    C211434   6.504   1.321   4.903  0.0900  0.0040 -0.0454
  736loPI    C311435   6.467   1.487   5.265  0.1185  0.0918 -0.0825
  736loPI   PO411436   6.794   0.986   5.208 -0.1739  0.0078  0.1007
  736loPI   GL111437   6.904   0.759   5.527 -0.2172 -0.2668  0.2481
  736loPI   GL211438   7.219   1.076   5.448  0.2506  0.0499  0.0646
  736loPI   C1A11439   6.929   0.483   5.915  0.1330 -0.0799  0.1895
  736loPI   C2A11440   6.803   0.448   6.394 -0.2991  0.1321 -0.2250
  736loPI   C3A11441   6.877   0.391   6.826  0.0449 -0.2157  0.0578
  736loPI   C4A11442   7.163   0.555   7.038 -0.0909 -0.0972 -0.0072
  736loPI   C5A11443   7.544   0.565   7.327 -0.1212  0.0041 -0.0378
  736loPI   C6A11444   7.701   0.720   7.647 -0.3064  0.2492 -0.2850
  736loPI   C1B11445   7.387   1.457   5.663  0.2205  0.0841  0.3260
  736loPI   C2B11446   7.579   1.611   6.093 -0.0704 -0.1499  0.0847
  736loPI   C3B11447   7.742   1.582   6.464  0.0154 -0.0960  0.1206
  736loPI   C4B11448   7.843   1.674   6.837  0.1770 -0.5399 -0.5151
  737loPI    C111449   3.020  17.390   4.525 -0.0681 -0.0532 -0.1033
  737loPI    C211450   3.411  17.455   4.471 -0.0159 -0.3031 -0.0360
  737loPI    C311451   3.159  17.491   4.163  0.0271  0.0777 -0.0310
  737loPI   PO411452   2.951  17.545   4.723  0.1957  0.0322 -0.0102
  737loPI   GL111453   2.948  17.836   5.110  0.1542  0.1091  0.3160
  737loPI   GL211454   2.611  17.875   5.047 -0.1954  0.2833 -0.0181
  737loPI   C1A11455   3.192  17.889   5.417 -0.0857 -0.1792 -0.1823
  737loPI   C2A11456   3.094  18.012   5.826  0.1154 -0.0565  0.0510
  737loPI   C3A11457   2.995  18.127   6.281 -0.1629 -0.1549  0.0125
  737loPI   C4A11458   3.077  18.366   6.578 -0.1543 -0.1215  0.0704
  737loPI   C5A11459   3.143  18.595   6.962  0.0410  0.0003  0.3557
  737loPI   C6A11460   2.859  18.784   7.208 -0.1239 -0.1422  0.0283
  737loPI   C1B11461   2.691  17.839   5.516  0.0913  0.1601 -0.0724
  737loPI   C2B11462   2.512  17.822   5.990  0.2181 -0.1051  0.0183
  737loPI   C3B11463   2.078  17.898   6.224 -0.1756  0.3157  0.1311
  737loPI   C4B11464   1.763  18.080   6.447  0.1516  0.2874  0.1088
  738loPI    C111465   6.039  16.392   4.916 -0.1154  0.2028 -0.1387
  738loPI    C211466   6.089  15.997   4.955 -0.1445  0.1764 -0.3561
  738loPI    C311467   6.394  16.245   5.030 -0.2096  0.1356  0.0731
  738loPI   PO411468   5.788  16.503   5.032  0.3248  0.2591  0.0785
  738loPI   GL111469   5.749  16.635   5.457 -0.0241 -0.1622  0.2236
  738loPI   GL211470   5.454  16.676   5.553 -0.2153  0.1573  0.0380
  738loPI   C1A11471   5.879  16.729   5.885 -0.0194  0.1538  0.0170
  738loPI   C2A11472   6.041  16.904   6.330 -0.1346 -0.3322  0.3530
  738loPI   C3A11473   5.761  16.954   6.709 -0.2251  0.0677  0.1626
  738loPI   C4A11474   5.559  16.882   7.017 -0.2821 -0.0886  0.2404
  738loPI   C5A11475   5.224  16.655   7.298 -0.0758  0.0093 -0.0367
  738loPI   C6A11476   5.138  16.216   7.391  0.2808 -0.0126 -0.2637
  738loPI   C1B11477   5.413  16.740   6.016 -0.0785  0.1019  0.0347
  738loPI   C2B11478   5.666  16.533   6.355  0.0371  0.1472 -0.1626
  738loPI   C3B11479   5.834  16.475   6.743 -0.0198 -0.1014  0.0842
  738loPI   C4B11480   6.061  16.733   7.078  0.1017 -0.3126 -0.2405
  739loPI    C111481  14.105  19.162   3.952  0.2829 -0.2541 -0.0021
  739loPI    C211482  13.900  18.927   3.701  0.0625 -0.0137 -0.0515
  739loPI    C311483  14.252  19.080   3.589  0.0219 -0.0057 -0.1690
  739loPI   PO411484  13.971  19.067   4.307  0.1064 -0.0887  0.2683
  739loPI   GL111485  13.842  19.158   4.688  0.0213  0.2316 -0.2579
  739loPI   GL211486  13.601  18.963   4.724 -0.1473 -0.0914  0.3490
  739loPI   C1A11487  13.849  19.233   5.228  0.1666 -0.0652  0.0841
  739loPI   C2A11488  13.642  19.393   5.660 -0.0622 -0.1706  0.1308
  739loPI   C3A11489  13.754  19.374   6.116  0.2275 -0.0275  0.3671
  739loPI   C4A11490  13.961  19.198   6.515  0.0542 -0.2454 -0.2198
  739loPI   C5A11491  13.861  18.982   6.883 -0.2125  0.1218 -0.0027
  739loPI   C6A11492  13.815  18.820   7.289  0.2845 -0.2090  0.0787
  739loPI   C1B11493  13.383  19.264   4.977  0.1737  0.1025  0.1123
  739loPI   C2B11494  13.214  19.284   5.377 -0.1260 -0.2244 -0.0645
  739loPI   C3B11495  13.169  19.273   5.866 -0.1549 -0.1581 -0.1089
  739loPI   C4B11496  13.071  19.131   6.289  0.2970  0.0205 -0.0073
  740loPI    C111497  12.561   2.004   4.278 -0.3241  0.0585 -0.0375
  740loPI    C211498  12.487   1.702   4.027  0.0401 -0.0668 -0.0008
  740loPI    C311499  12.684   2.025   3.898 -0.0828  0.0241  0.0369
  740loPI   PO411500  12.244   2.027   4.426  0.1949  0.0155  0.0364
  740loPI   GL111501  11.979   1.992   4.776  0.1638 -0.0342 -0.1894
  740loPI   GL211502  11.666   2.083   4.836  0.1627 -0.1798 -0.1309
  740loPI   C1A11503  12.171   1.969   5.189  0.3360  0.1767  0.1168
  740loPI   C2A11504  12.272   2.033   5.631 -0.4037 -0.1683 -0.2781
  740loPI   C3A11505  12.228   2.149   5.988  0.1286  0.1138  0.1706
  740loPI   C4A11506  12.143   1.951   6.348 -0.0551 -0.0808  0.1038
  740loPI   C5A11507  11.946   1.762   6.720  0.0015  0.2903  0.2183
  740loPI   C6A11508  11.967   1.409   7.060  0.0766 -0.0622  0.1292
  740loPI   C1B11509  11.663   2.063   5.229  0.1062 -0.3849  0.1125
  740loPI   C2B11510  11.788   1.911   5.486  0.1398  0.1623  0.0003
  740loPI   C3B11511  11.886   1.725   5.833 -0.0766  0.2389 -0.1190
  740loPI   C4B11512  11.753   1.576   6.235  0.3759  0.1027  0.0115
  741loPI    C111513  10.604  18.577   4.317 -0.0016  0.1825 -0.0743
  741loPI    C211514  10.654  18.681   4.700 -0.1309 -0.0160 -0.0020
  741loPI    C311515  10.526  18.951   4.435  0.1726  0.1818  0.0477
  741loPI   PO411516  10.856  18.487   4.239  0.2217  0.3741 -0.4648
  741loPI   GL111517  11.125  18.478   4.612  0.3381  0.0785  0.1464
  741loPI   GL211518  11.347  18.605   4.818  0.1425 -0.1819 -0.1927
  741loPI   C1A11519  10.962  18.282   4.969 -0.0493  0.1500  0.0347
  741loPI   C2A11520  10.818  18.301   5.401 -0.0275 -0.1927  0.2261
  741loPI   C3A11521  10.908  18.254   5.907 -0.0717  0.1457  0.0387
  741loPI   C4A11522  10.707  18.246   6.261 -0.0948 -0.1477 -0.3511
  741loPI   C5A11523  10.740  18.218   6.775 -0.1863  0.0101  0.2638
  741loPI   C6A11524  10.888  18.260   7.208  0.1492  0.2601  0.1293
  741loPI   C1B11525  11.168  18.662   5.232 -0.1648 -0.0684  0.2781
  741loPI   C2B11526  11.205  18.717   5.679 -0.1105 -0.1321  0.2722
  741loPI   C3B11527  11.111  18.952   6.001 -0.1570 -0.1704 -0.1123
  741loPI   C4B11528  11.129  19.115   6.454  0.0672  0.0158 -0.0244
  742loPI    C111529  16.801  13.677   4.437 -0.1816 -0.3458  0.1015
  742loPI    C211530  16.907  13.543   4.075  0.0148  0.0129  0.0209
  742loPI    C311531  16.530  13.660   4.143  0.0452  0.2200 -0.1560
  742loPI   PO411532  16.949  13.568   4.611  0.2871 -0.4256  0.1746
  742loPI   GL111533  16.931  13.694   5.031 -0.0571  0.0628  0.0019
  742loPI   GL211534  16.803  13.927   5.083 -0.0166 -0.0137 -0.0692
  742loPI   C1A11535  17.311  13.498   5.198  0.1430  0.1751 -0.3162
  742loPI   C2A11536  17.702  13.502   5.428 -0.2043  0.1406  0.1478
  742loPI   C3A11537  17.499  13.419   5.765 -0.0228 -0.0380  0.0318
  742loPI   C4A11538  17.582  13.161   6.160 -0.2656 -0.1501  0.2482
  742loPI   C5A11539  17.827  13.014   6.522  0.2463  0.2298  0.0451
  742loPI   C6A11540  18.163  13.206   6.939  0.3034  0.0422 -0.0943
  742loPI   C1B11541  17.044  13.820   5.521 -0.2557  0.0118  0.0494
  742loPI   C2B11542  17.006  13.572   5.857 -0.3903 -0.2283 -0.0833
  742loPI   C3B11543  17.034  13.324   6.281  0.0770 -0.1631 -0.2181
  742loPI   C4B11544  17.301  13.127   6.606  0.0215 -0.1909  0.4553
  743loPI    C111545  17.463  15.297   4.260  0.2644 -0.2102  0.1691
  743loPI    C211546  17.668  15.097   3.982  0.0917  0.0696 -0.1676
  743loPI    C311547  17.332  15.289   3.882 -0.1195 -0.0474  0.2934
  743loPI   PO411548  17.523  15.326   4.464 -0.1874 -0.0744  0.1089
  743loPI   GL111549  17.510  15.048   4.883  0.3424 -0.1600 -0.2482
  743loPI   GL211550  17.252  15.253   4.952  0.0546 -0.3985  0.2179
  743loPI   C1A11551  17.779  15.166   5.233 -0.0315 -0.1343  0.2626
  743loPI   C2A11552  17.869  14.938   5.595  0.0493  0.1467  0.1405
  743loPI   C3A11553  18.075  14.640   5.878  0.1421  0.1383  0.2366
  743loPI   C4A11554  18.275  14.846   6.213 -0.2276  0.1411 -0.0079
  743loPI   C5A11555  18.238  15.059   6.597  0.1490 -0.0713 -0.0424
  743loPI   C6A11556  18.378  15.060   7.005  0.2186 -0.2727  0.1302
  743loPI   C1B11557  17.177  15.301   5.312 -0.1070  0.0181  0.0904
  743loPI   C2B11558  17.205  15.002   5.749 -0.2762 -0.3931 -0.2701
  743loPI   C3B11559  17.275  14.751   6.170  0.1396 -0.2272  0.1136
  743loPI   C4B11560  17.563  14.537   6.478 -0.0475  0.3148  0.1322
  744loPI    C111561   6.661  11.827   4.961 -0.1163 -0.1629 -0.1431
  744loPI    C211562   7.038  11.775   4.838 -0.1296 -0.2256 -0.1574
  744loPI    C311563   6.735  11.712   4.586 -0.1418  0.0572 -0.2171
  744loPI   PO411564   6.697  11.826   5.320 -0.0851 -0.0671  0.2886
  744loPI   GL111565   6.913  11.678   5.678  0.4949 -0.0132 -0.0786
  744loPI   GL211566   6.989  11.983   5.770  0.1572  0.1279  0.1408
  744loPI   C1A11567   6.891  11.579   6.103  0.2996  0.2962 -0.0342
  744loPI   C2A11568   6.973  11.621   6.469 -0.2019 -0.0110 -0.2276
  744loPI   C3A11569   7.313  11.623   6.811 -0.0805  0.1983 -0.0276
  744loPI   C4A11570   7.645  11.889   7.140  0.0749  0.0303  0.1581
  744loPI   C5A11571   7.702  12.178   7.431 -0.1740  0.0292 -0.0315
  744loPI   C6A11572   8.091  12.381   7.595 -0.1084  0.2159 -0.2780
  744loPI   C1B11573   6.992  12.105   6.200  0.3215  0.1871 -0.1201
  744loPI   C2B11574   7.215  12.104   6.573  0.2419 -0.1653 -0.1068
  744loPI   C3B11575   7.471  12.308   6.843 -0.0368 -0.1074 -0.1443
  744loPI   C4B11576   7.464  12.594   7.171 -0.3991  0.0668 -0.1153
  745loPI    C111577  11.878   2.965   4.548 -0.0170  0.2192  0.0903
  745loPI    C211578  11.736   3.338   4.576 -0.0034  0.2271  0.0540
  745loPI    C311579  11.509   3.050   4.419  0.0114  0.2344  0.0191
  745loPI   PO411580  12.020   2.992   4.857 -0.0150 -0.0219 -0.1881
  745loPI   GL111581  11.992   2.956   5.266  0.0395 -0.1127 -0.0398
  745loPI   GL211582  12.167   2.806   5.406  0.1264 -0.1370 -0.1889
  745loPI   C1A11583  11.592   3.042   5.460  0.0786  0.0949 -0.3091
  745loPI   C2A11584  11.426   3.145   5.815  0.2135 -0.0445  0.0924
  745loPI   C3A11585  11.200   2.938   6.126 -0.2598 -0.3144  0.3119
  745loPI   C4A11586  11.212   2.717   6.498 -0.2001  0.1337  0.4385
  745loPI   C5A11587  11.270   2.321   6.773  0.0436  0.1867  0.3336
  745loPI   C6A11588  10.901   2.013   6.905 -0.3270 -0.2856 -0.0828
  745loPI   C1B11589  12.113   2.952   5.789  0.0954 -0.2463 -0.0011
  745loPI   C2B11590  12.154   2.964   6.277  0.1288  0.1803  0.2599
  745loPI   C3B11591  12.174   3.159   6.673  0.1876  0.2558 -0.2739
  745loPI   C4B11592  11.861   3.328   6.693  0.1638  0.1260 -0.5015
  746loPI    C111593  13.550   1.124   4.121 -0.1993  0.1016 -0.0457
  746loPI    C211594  13.786   0.952   3.847 -0.2901  0.0148 -0.0700
  746loPI    C311595  13.705   1.343   3.824 -0.2404  0.0221 -0.1266
  746loPI   PO411596  13.660   0.996   4.347 -0.0193 -0.2541  0.1059
  746loPI   GL111597  13.845   0.975   4.715  0.1246  0.1495 -0.1884
  746loPI   GL211598  14.026   0.694   4.757  0.0945  0.1096 -0.0791
  746loPI   C1A11599  13.836   1.070   5.107 -0.0250  0.0790 -0.2725
  746loPI   C2A11600  14.082   1.126   5.495  0.3587 -0.0657  0.0090
  746loPI   C3A11601  14.010   1.153   5.899  0.2818  0.1664 -0.0642
  746loPI   C4A11602  13.737   1.037   6.213 -0.3893 -0.2498 -0.0005
  746loPI   C5A11603  13.501   1.489   6.336  0.0976 -0.0434  0.1127
  746loPI   C6A11604  13.101   1.766   6.259 -0.2101  0.0395 -0.0500
  746loPI   C1B11605  14.021   0.617   5.249 -0.0407 -0.1778  0.0593
  746loPI   C2B11606  14.225   0.668   5.593  0.0044  0.0492 -0.1746
  746loPI   C3B11607  14.462   0.370   5.933 -0.1020  0.1105  0.0983
  746loPI   C4B11608  14.814   0.362   6.242  0.2964  0.1025  0.2156
  747loPI    C111609   4.611   9.292   4.822 -0.1150  0.0533 -0.1001
  747loPI    C211610   4.921   9.061   4.717 -0.1431 -0.0114 -0.0419
  747loPI    C311611   4.903   9.441   4.593  0.0322  0.0357  0.0736
  747loPI   PO411612   4.586   9.285   5.144 -0.1005 -0.0226  0.1761
  747loPI   GL111613   4.823   9.371   5.533  0.2053 -0.0549 -0.2533
  747loPI   GL211614   4.513   9.377   5.643  0.2229 -0.1141 -0.2462
  747loPI   C1A11615   4.884   9.287   5.951  0.0090  0.0413 -0.0177
  747loPI   C2A11616   4.768   9.358   6.267 -0.1321  0.0383 -0.5097
  747loPI   C3A11617   4.841   9.568   6.681 -0.2159 -0.0290  0.1089
  747loPI   C4A11618   4.913   9.532   7.129  0.3036  0.2067 -0.0519
  747loPI   C5A11619   4.745   9.734   7.479 -0.1574 -0.2189 -0.2110
  747loPI   C6A11620   4.866   9.468   7.840 -0.3428  0.1455  0.0018
  747loPI   C1B11621   4.360   9.443   6.073  0.0238 -0.1349  0.2719
  747loPI   C2B11622   4.334   9.633   6.496 -0.0027  0.2322 -0.1236
  747loPI   C3B11623   4.329   9.632   6.904  0.2577  0.0568 -0.1389
  747loPI   C4B11624   4.151   9.814   7.251  0.5610 -0.1591 -0.3262
  748loPI    C111625  16.884   2.844   4.730 -0.0905  0.0408 -0.1839
  748loPI    C211626  16.862   3.224   4.856 -0.2046  0.0176 -0.1328
  748loPI    C311627  17.019   3.140   4.498 -0.0547  0.1010 -0.0872
  748loPI   PO411628  17.015   2.722   4.935  0.0213 -0.1775  0.0385
  748loPI   GL111629  17.381   2.637   5.103 -0.1060 -0.1048 -0.2104
  748loPI   GL211630  17.494   2.419   5.165  0.2322 -0.1754  0.2537
  748loPI   C1A11631  17.335   2.704   5.520 -0.2090  0.1240  0.1931
  748loPI   C2A11632  17.437   2.511   5.908  0.1713 -0.1364  0.1542
  748loPI   C3A11633  17.333   2.486   6.329 -0.3129 -0.0344  0.3065
  748loPI   C4A11634  17.458   2.389   6.778 -0.2037 -0.1468 -0.0793
  748loPI   C5A11635  17.242   2.295   7.054  0.1937  0.1572 -0.0258
  748loPI   C6A11636  17.226   2.429   7.554 -0.0867  0.0816  0.0427
  748loPI   C1B11637  17.820   2.605   5.474  0.0619 -0.1994  0.0157
  748loPI   C2B11638  17.947   2.805   5.825 -0.0356  0.2734 -0.0682
  748loPI   C3B11639  17.788   2.636   6.252 -0.0050  0.0192  0.0772
  748loPI   C4B11640  17.855   2.637   6.733 -0.2173  0.3646  0.0266
  749loPI    C111641   0.079   1.570   4.484 -0.0084  0.0980 -0.0821
  749loPI    C211642  -0.315   1.575   4.555 -0.0306  0.0721 -0.2022
  749loPI    C311643  -0.163   1.793   4.256  0.0359  0.0189 -0.2073
  749loPI   PO411644   0.132   1.525   4.783 -0.0589  0.1595 -0.1384
  749loPI   GL111645   0.178   1.405   5.125 -0.3670 -0.2568  0.1486
  749loPI   GL211646   0.144   1.159   5.180  0.0369  0.1303  0.1137
  749loPI   C1A11647   0.087   1.473   5.554  0.2900  0.0555  0.2327
  749loPI   C2A11648   0.086   1.440   5.976  0.0780 -0.3561 -0.0901
  749loPI   C3A11649   0.009   1.201   6.230  0.0926  0.2929  0.0366
  749loPI   C4A11650   0.041   0.955   6.613 -0.1228 -0.0688  0.0097
  749loPI   C5A11651   0.273   0.526   6.669  0.0183  0.0885  0.2344
  749loPI   C6A11652   0.355   0.334   7.068  0.0573  0.1684 -0.2484
  749loPI   C1B11653  -0.327   1.209   5.286 -0.2706  0.0383 -0.0819
  749loPI   C2B11654  -0.692   1.280   5.452  0.0838  0.0104  0.1774
  749loPI   C3B11655  -0.848   1.227   5.806  0.0688  0.1012 -0.2342
  749loPI   C4B11656  -0.834   0.916   6.159  0.0492 -0.0611  0.1612
  750loPI    C111657   3.399   7.746   4.299 -0.0200 -0.0949 -0.2753
  750loPI    C211658   3.747   7.586   4.183 -0.0843 -0.0159 -0.5878
  750loPI    C311659   3.580   7.878   3.968  0.0512  0.5129 -0.0068
  750loPI   PO411660   3.416   7.762   4.634  0.1322 -0.2289 -0.3832
  750loPI   GL111661   3.554   7.724   4.992  0.0118 -0.0748 -0.2775
  750loPI   GL211662   3.647   8.020   5.078 -0.3322  0.0605 -0.0080
  750loPI   C1A11663   3.513   7.604   5.470 -0.3448 -0.2708 -0.0946
  750loPI   C2A11664   3.654   7.616   5.989  0.2843  0.0928 -0.3052
  750loPI   C3A11665   3.654   7.718   6.397  0.3868  0.3663  0.0884
  750loPI   C4A11666   3.367   7.941   6.693 -0.0235 -0.1863  0.1856
  750loPI   C5A11667   3.244   8.401   6.852  0.1730  0.0361 -0.0411
  750loPI   C6A11668   3.222   8.807   7.000 -0.0379 -0.1123  0.2326
  750loPI   C1B11669   3.658   8.026   5.627  0.4916 -0.0328 -0.1596
  750loPI   C2B11670   3.927   8.088   6.079 -0.0386  0.2824  0.0269
  750loPI   C3B11671   4.094   7.973   6.377 -0.1005 -0.1705  0.1144
  750loPI   C4B11672   4.181   7.870   6.761 -0.1513 -0.0679  0.0344
  751loPI    C111673  10.736   5.609   4.671 -0.0546 -0.0989  0.1154
  751loPI    C211674  10.766   5.315   4.402 -0.1959 -0.1672  0.1733
  751loPI    C311675  10.550   5.640   4.318  0.0668 -0.0191  0.0577
  751loPI   PO411676  10.676   5.533   4.982 -0.0474 -0.2386  0.1385
  751loPI   GL111677  10.731   5.260   5.337 -0.0414 -0.2882  0.0496
  751loPI   GL211678  10.440   5.104   5.487 -0.1214  0.0459  0.1849
  751loPI   C1A11679  10.663   5.431   5.780  0.0629  0.2551 -0.0987
  751loPI   C2A11680  10.531   5.858   5.942  0.2257  0.3338 -0.0295
  751loPI   C3A11681  10.532   6.139   6.313 -0.0529 -0.2169 -0.1247
  751loPI   C4A11682  10.247   6.495   6.387  0.0036 -0.0275 -0.1118
  751loPI   C5A11683  10.241   6.689   6.731 -0.1113 -0.1045  0.2198
  751loPI   C6A11684   9.976   6.590   6.883  0.0698  0.1501 -0.2137
  751loPI   C1B11685  10.242   4.935   5.887 -0.0099 -0.0510 -0.2084
  751loPI   C2B11686  10.218   4.857   6.307 -0.0814 -0.0854  0.2607
  751loPI   C3B11687  10.320   4.726   6.692  0.0380 -0.0983 -0.2177
  751loPI   C4B11688  10.230   4.433   6.916  0.0341 -0.0117  0.1542
  752loPI    C111689   6.013   5.544   4.715 -0.1333  0.1573  0.0835
  752loPI    C211690   6.101   5.910   4.849 -0.1608  0.2046 -0.0269
  752loPI    C311691   6.090   5.838   4.456  0.1437  0.0120 -0.0034
  752loPI   PO411692   5.726   5.536   4.824  0.3899  0.2606  0.0728
  752loPI   GL111693   5.833   5.724   5.232  0.0978  0.1665 -0.0123
  752loPI   GL211694   5.991   5.957   5.274  0.0673 -0.1186  0.1977
  752loPI   C1A11695   5.599   5.730   5.671  0.1549  0.1552 -0.0567
  752loPI   C2A11696   5.749   5.717   6.192 -0.3051  0.1134 -0.0542
  752loPI   C3A11697   5.897   6.050   6.458 -0.0261 -0.0627  0.3124
  752loPI   C4A11698   5.973   6.313   6.839 -0.0918  0.3898 -0.3141
  752loPI   C5A11699   6.061   6.423   7.290 -0.0641 -0.4432  0.0619
  752loPI   C6A11700   5.902   6.588   7.625 -0.3140  0.0733 -0.0649
  752loPI   C1B11701   6.134   5.908   5.648  0.0066  0.1140 -0.0190
  752loPI   C2B11702   6.227   6.204   5.909  0.1339 -0.0112 -0.0009
  752loPI   C3B11703   6.463   6.301   6.322  0.0819  0.2958 -0.0865
  752loPI   C4B11704   6.439   6.453   6.707 -0.3002 -0.2797  0.0656
  753loPI    C111705   5.015  13.936   4.993  0.1143 -0.1190  0.1979
  753loPI    C211706   5.240  14.252   5.095 -0.0612  0.0469  0.0774
  753loPI    C311707   5.378  13.881   5.152  0.1040  0.1434  0.3179
  753loPI   PO411708   4.742  14.106   5.014 -0.0195  0.1268 -0.4661
  753loPI   GL111709   4.496  14.137   5.489 -0.1738  0.1678 -0.0684
  753loPI   GL211710   4.453  13.770   5.421  0.1882 -0.1697 -0.1716
  753loPI   C1A11711   4.689  14.299   5.858 -0.1138 -0.1077 -0.0073
  753loPI   C2A11712   4.721  14.534   6.230  0.1559  0.2249 -0.0287
  753loPI   C3A11713   4.795  14.556   6.709 -0.0778  0.0989 -0.3481
  753loPI   C4A11714   4.603  14.592   7.074 -0.1724 -0.1496 -0.0185
  753loPI   C5A11715   4.436  14.892   7.343 -0.0810 -0.0569  0.0989
  753loPI   C6A11716   4.566  15.249   7.531 -0.0814  0.1528  0.1029
  753loPI   C1B11717   4.513  13.836   5.924  0.2903 -0.0176 -0.2798
  753loPI   C2B11718   4.373  14.144   6.232 -0.2041 -0.0301 -0.0415
  753loPI   C3B11719   4.526  14.055   6.747  0.2421 -0.1274 -0.0298
  753loPI   C4B11720   4.279  14.010   7.180 -0.0076  0.2081 -0.1360
  754loPI    C111721   6.298  14.249   4.847 -0.1633  0.1208 -0.0899
  754loPI    C211722   6.096  14.178   4.509 -0.1745  0.2335 -0.1075
  754loPI    C311723   6.467  14.328   4.493 -0.0770 -0.0002 -0.0762
  754loPI   PO411724   6.301  14.092   5.017 -0.2543  0.0248  0.1135
  754loPI   GL111725   6.196  13.982   5.392 -0.1834 -0.0201 -0.0249
  754loPI   GL211726   6.445  14.061   5.684  0.3398 -0.1440  0.3797
  754loPI   C1A11727   5.999  14.262   5.808  0.0695 -0.0213 -0.2765
  754loPI   C2A11728   5.975  14.644   6.082 -0.0702 -0.0709 -0.0165
  754loPI   C3A11729   6.095  15.004   6.122  0.1523  0.1777  0.0296
  754loPI   C4A11730   6.113  15.392   6.198 -0.0174  0.1309  0.1667
  754loPI   C5A11731   6.119  15.589   6.630  0.1729  0.1789  0.0180
  754loPI   C6A11732   6.399  15.758   6.944 -0.0120  0.1678  0.0121
  754loPI   C1B11733   6.425  13.853   6.041  0.0688 -0.0789  0.0394
  754loPI   C2B11734   6.429  13.908   6.462  0.1795 -0.0369 -0.1772
  754loPI   C3B11735   6.367  14.009   6.858 -0.1151 -0.0044 -0.2096
  754loPI   C4B11736   6.361  14.033   7.317 -0.1249  0.1789 -0.3119
  755loPI    C111737  10.751   2.100   4.149 -0.0258  0.0820  0.0759
  755loPI    C211738  11.119   1.969   4.063 -0.0595 -0.0097  0.0699
  755loPI    C311739  10.947   2.247   3.833  0.1105  0.2293  0.2270
  755loPI   PO411740  10.846   2.208   4.410 -0.1409  0.1287  0.0891
  755loPI   GL111741  11.054   2.264   4.837  0.3753  0.1541 -0.2360
  755loPI   GL211742  11.244   1.958   4.961  0.0618  0.0263  0.1014
  755loPI   C1A11743  11.155   2.330   5.281 -0.1221  0.1507 -0.1699
  755loPI   C2A11744  11.402   2.185   5.641  0.1978 -0.0486 -0.2882
  755loPI   C3A11745  11.717   2.123   6.011  0.0101  0.1800  0.1885
  755loPI   C4A11746  11.685   2.155   6.439 -0.0333  0.2076 -0.2282
  755loPI   C5A11747  11.828   2.251   6.787 -0.0026 -0.1857 -0.1888
  755loPI   C6A11748  11.938   2.470   7.201  0.2292 -0.0226  0.0448
  755loPI   C1B11749  11.297   1.700   5.350  0.0475  0.0734  0.0674
  755loPI   C2B11750  11.420   1.645   5.743  0.0024  0.1505  0.2728
  755loPI   C3B11751  11.320   1.857   6.174  0.2746 -0.3563 -0.0771
  755loPI   C4B11752  11.300   1.835   6.556  0.2104 -0.0664  0.3595
  756loPI    C111753   5.236   5.610   4.582  0.2589 -0.0198 -0.1311
  756loPI    C211754   4.960   5.892   4.518  0.3003  0.0635  0.0502
  756loPI    C311755   5.164   5.739   4.210 -0.0474 -0.1036 -0.1035
  756loPI   PO411756   5.157   5.545   4.890 -0.2893 -0.0095 -0.3332
  756loPI   GL111757   5.255   5.748   5.282 -0.0983 -0.0449  0.0380
  756loPI   GL211758   5.314   6.041   5.435 -0.2195 -0.1291 -0.0474
  756loPI   C1A11759   5.123   5.603   5.615  0.2418 -0.0807 -0.2955
  756loPI   C2A11760   5.155   5.667   6.132 -0.4257  0.0788 -0.2784
  756loPI   C3A11761   5.216   5.798   6.489  0.0042 -0.1982  0.2312
  756loPI   C4A11762   5.543   5.810   6.689  0.1109 -0.0006  0.1844
  756loPI   C5A11763   5.831   5.566   6.781 -0.0285  0.0824  0.0922
  756loPI   C6A11764   6.222   5.544   6.971 -0.0544  0.0617  0.2436
  756loPI   C1B11765   5.246   6.086   5.842  0.0735  0.0832  0.2239
  756loPI   C2B11766   5.085   6.206   6.234 -0.0327  0.1495  0.1242
  756loPI   C3B11767   5.271   6.307   6.663 -0.1119 -0.0486  0.0067
  756loPI   C4B11768   5.257   6.596   6.980 -0.1127  0.1361 -0.0364
  757loPI    C111769  14.192  11.081   4.485 -0.0107 -0.0753 -0.0345
  757loPI    C211770  14.508  10.853   4.395 -0.0311 -0.0777 -0.0997
  757loPI    C311771  14.262  10.979   4.105  0.1424  0.2686 -0.1025
  757loPI   PO411772  14.084  11.030   4.731 -0.0192 -0.3939 -0.0180
  757loPI   GL111773  13.956  11.140   5.114 -0.1738 -0.2700 -0.0904
  757loPI   GL211774  14.281  11.164   5.174 -0.1556  0.1004  0.2963
  757loPI   C1A11775  13.776  10.862   5.401 -0.1898 -0.0002  0.2107
  757loPI   C2A11776  13.838  10.756   5.808  0.1921 -0.0118 -0.1991
  757loPI   C3A11777  13.924  10.701   6.264 -0.2604 -0.2095  0.0955
  757loPI   C4A11778  14.101  10.871   6.773 -0.1366  0.1850 -0.0570
  757loPI   C5A11779  14.236  10.829   7.317 -0.0815  0.1398  0.0947
  757loPI   C6A11780  14.182  10.719   7.703  0.0099 -0.1008  0.1575
  757loPI   C1B11781  14.213  11.076   5.594  0.0405 -0.1974  0.0261
  757loPI   C2B11782  14.185  11.088   6.027  0.1341  0.1380 -0.0604
  757loPI   C3B11783  14.369  11.111   6.457  0.3663  0.1212 -0.3562
  757loPI   C4B11784  14.450  11.208   6.939 -0.0320 -0.0125  0.1516
  758loPI    C111785   8.849  17.525   4.585 -0.0565 -0.0829  0.0733
  758loPI    C211786   8.728  17.144   4.603  0.0396 -0.1113  0.1226
  758loPI    C311787   8.610  17.377   4.300  0.1280 -0.2322 -0.0062
  758loPI   PO411788   8.769  17.644   4.786 -0.2270  0.3690  0.2525
  758loPI   GL111789   8.950  17.722   5.137  0.2918 -0.1882 -0.0655
  758loPI   GL211790   9.068  17.584   5.243 -0.2991  0.4035 -0.2306
  758loPI   C1A11791   9.106  17.786   5.677 -0.1005  0.0570  0.0985
  758loPI   C2A11792   9.296  17.918   6.011  0.1519  0.0121 -0.1429
  758loPI   C3A11793   9.431  17.842   6.409 -0.0500 -0.0424 -0.1693
  758loPI   C4A11794   9.210  17.983   6.720 -0.1657  0.0969  0.2215
  758loPI   C5A11795   9.026  18.100   7.074 -0.1439  0.1529 -0.2466
  758loPI   C6A11796   8.776  18.353   7.384  0.3059  0.0275 -0.2165
  758loPI   C1B11797   9.500  17.786   5.249 -0.0354 -0.2050 -0.2218
  758loPI   C2B11798   9.622  17.859   5.582 -0.2683  0.1458  0.3486
  758loPI   C3B11799   9.604  17.534   6.015 -0.2813 -0.3498  0.0704
  758loPI   C4B11800   9.802  17.512   6.367  0.3848  0.3301  0.1893
  759loPI    C111801   7.754  12.855   4.855  0.0565  0.0544 -0.2715
  759loPI    C211802   7.380  12.751   4.762 -0.0764  0.2943 -0.0200
  759loPI    C311803   7.533  13.093   4.622 -0.0277  0.3030  0.0540
  759loPI   PO411804   7.747  12.738   5.082 -0.2288  0.1201  0.0422
  759loPI   GL111805   7.551  12.706   5.463 -0.3344  0.2253  0.0199
  759loPI   GL211806   7.297  12.640   5.279 -0.0778 -0.0446  0.1222
  759loPI   C1A11807   7.436  12.985   5.839 -0.1522  0.0326  0.2204
  759loPI   C2A11808   7.297  12.949   6.263 -0.2257 -0.0078  0.1148
  759loPI   C3A11809   7.250  12.900   6.704  0.2901 -0.0646  0.2241
  759loPI   C4A11810   7.020  12.762   7.072  0.0553 -0.0180  0.0623
  759loPI   C5A11811   6.775  12.654   7.394  0.0367  0.2121  0.0370
  759loPI   C6A11812   6.733  12.771   7.769 -0.1932  0.0758 -0.0958
  759loPI   C1B11813   7.120  12.548   5.654 -0.2790 -0.1681  0.2140
  759loPI   C2B11814   7.033  12.627   6.018  0.0231 -0.1567 -0.2899
  759loPI   C3B11815   6.812  12.638   6.420  0.0197 -0.2404 -0.0496
  759loPI   C4B11816   6.903  12.404   6.793  0.0736  0.0257  0.1418
  760loPI    C111817  14.626   5.427   4.580  0.0574 -0.0604  0.1571
  760loPI    C211818  14.343   5.270   4.344 -0.1245  0.2219  0.1830
  760loPI    C311819  14.702   5.360   4.192 -0.0996  0.0113  0.1133
  760loPI   PO411820  14.529   5.280   4.823  0.1743  0.3441 -0.0431
  760loPI   GL111821  14.454   5.410   5.284  0.2036  0.0015  0.2795
  760loPI   GL211822  14.678   5.438   5.353 -0.0142 -0.3077  0.0621
  760loPI   C1A11823  14.112   5.243   5.571  0.0572 -0.0604 -0.0164
  760loPI   C2A11824  13.771   5.497   5.800  0.4169 -0.0520 -0.2324
  760loPI   C3A11825  13.522   5.469   6.072  0.1055 -0.0161 -0.1840
  760loPI   C4A11826  13.396   5.261   6.350 -0.0138  0.3937 -0.1157
  760loPI   C5A11827  13.148   4.969   6.567  0.4861  0.1912  0.0872
  760loPI   C6A11828  12.972   4.929   6.984 -0.1101  0.1532 -0.0050
  760loPI   C1B11829  14.763   5.708   5.702 -0.0306 -0.3309  0.0855
  760loPI   C2B11830  14.840   5.762   6.178  0.1877 -0.2481 -0.2123
  760loPI   C3B11831  14.838   5.459   6.469 -0.1651  0.1267 -0.0836
  760loPI   C4B11832  14.803   5.358   6.819 -0.0383  0.4798 -0.1608
  761loPI    C111833   7.905   9.099   4.906  0.0914  0.2395 -0.0012
  761loPI    C211834   7.901   9.453   4.720 -0.2813  0.2619  0.0408
  761loPI    C311835   7.852   9.117   4.510 -0.1881  0.2517  0.0347
  761loPI   PO411836   8.156   9.077   5.147  0.1391 -0.0173  0.2079
  761loPI   GL111837   8.296   9.194   5.565 -0.2553  0.0554 -0.3650
  761loPI   GL211838   8.010   9.492   5.687  0.2945  0.0791 -0.0771
  761loPI   C1A11839   7.942   8.934   5.779  0.1670 -0.2481 -0.1344
  761loPI   C2A11840   7.511   8.737   5.913 -0.2538 -0.0744 -0.0085
  761loPI   C3A11841   7.254   8.575   6.296 -0.0135  0.2140 -0.1820
  761loPI   C4A11842   7.197   8.604   6.743  0.0418  0.0763  0.0422
  761loPI   C5A11843   7.192   8.633   7.121  0.1337  0.1481 -0.0525
  761loPI   C6A11844   7.150   8.714   7.572  0.0846  0.4984 -0.2142
  761loPI   C1B11845   7.997   9.441   6.150 -0.0449 -0.2171  0.1827
  761loPI   C2B11846   8.098   9.437   6.551 -0.2768  0.1203 -0.0805
  761loPI   C3B11847   8.359   9.478   6.916  0.0196 -0.0217 -0.0385
  761loPI   C4B11848   8.325   9.397   7.371  0.2201  0.0007  0.0804
  762loPI    C111849   1.560  18.718   4.398  0.0069 -0.1190  0.1682
  762loPI    C211850   1.921  18.844   4.281 -0.0360 -0.1807 -0.0352
  762loPI    C311851   1.723  18.575   4.062 -0.3700  0.1356 -0.1320
  762loPI   PO411852   1.577  18.617   4.716  0.0188  0.0065  0.0950
  762loPI   GL111853   1.426  18.726   5.096  0.1068 -0.0847 -0.4388
  762loPI   GL211854   1.574  19.021   5.095  0.3077 -0.1407  0.2401
  762loPI   C1A11855   1.243  18.454   5.298  0.0343 -0.4165 -0.2373
  762loPI   C2A11856   0.949  18.229   5.533 -0.1155  0.0840 -0.0918
  762loPI   C3A11857   0.977  18.268   5.965  0.0432 -0.2436  0.1971
  762loPI   C4A11858   1.009  18.213   6.463 -0.0423 -0.0680 -0.0793
  762loPI   C5A11859   1.306  18.069   6.728  0.0640 -0.0180  0.0346
  762loPI   C6A11860   1.631  17.885   6.895 -0.0551  0.0832 -0.2792
  762loPI   C1B11861   1.626  19.283   5.424 -0.3021  0.2962 -0.5803
  762loPI   C2B11862   1.760  19.647   5.606 -0.3960  0.3464  0.1001
  762loPI   C3B11863   1.508  19.833   5.895 -0.2914  0.0019  0.2224
  762loPI   C4B11864   1.249  20.244   5.955  0.3321 -0.2046 -0.0432
  763loPI    C111865   4.800  12.359   5.158  0.2273  0.0594  0.0749
  763loPI    C211866   5.113  12.436   4.920  0.3554 -0.2950  0.1228
  763loPI    C311867   4.938  12.076   4.910 -0.1637 -0.0484 -0.0272
  763loPI   PO411868   4.868  12.618   5.341 -0.2589  0.2313 -0.3215
  763loPI   GL111869   4.973  12.535   5.667 -0.3382 -0.2198  0.2337
  763loPI   GL211870   5.188  12.594   5.846 -0.1632 -0.0815  0.1599
  763loPI   C1A11871   4.765  12.218   5.934 -0.1031 -0.2091 -0.0834
  763loPI   C2A11872   4.702  12.139   6.374  0.1436 -0.0045  0.4291
  763loPI   C3A11873   4.699  11.819   6.578  0.4621 -0.0294  0.1545
  763loPI   C4A11874   4.642  11.605   6.950 -0.4206  0.1925 -0.1353
  763loPI   C5A11875   4.535  11.825   7.436  0.1280 -0.3829 -0.3225
  763loPI   C6A11876   4.558  12.262   7.375 -0.2531  0.2669  0.1352
  763loPI   C1B11877   5.197  12.405   6.209 -0.0706 -0.2464  0.1459
  763loPI   C2B11878   5.492  12.461   6.486  0.2930 -0.0846 -0.2337
  763loPI   C3B11879   5.489  12.777   6.856  0.5047  0.1276  0.0940
  763loPI   C4B11880   5.515  12.913   7.192 -0.0150 -0.0261 -0.0735
  764loPI    C111881  10.090  17.869   4.110  0.0697 -0.1413 -0.0232
  764loPI    C211882   9.819  17.663   3.901 -0.0136 -0.2601  0.1976
  764loPI    C311883   9.840  18.061   3.865 -0.2500 -0.2448  0.2155
  764loPI   PO411884  10.065  17.826   4.385 -0.3364 -0.1912  0.0120
  764loPI   GL111885  10.180  17.796   4.822 -0.1355  0.0996 -0.2894
  764loPI   GL211886  10.414  17.521   5.000 -0.1737 -0.2048  0.0985
  764loPI   C1A11887  10.116  17.751   5.349  0.1821  0.1484 -0.2549
  764loPI   C2A11888  10.120  17.692   5.839 -0.4250 -0.1296  0.0474
  764loPI   C3A11889  10.239  17.667   6.291 -0.0261 -0.1019 -0.2172
  764loPI   C4A11890  10.446  17.726   6.676  0.0982 -0.0175  0.1644
  764loPI   C5A11891  10.569  17.473   7.059  0.0427  0.1143 -0.1487
  764loPI   C6A11892  10.455  17.069   7.250 -0.1185  0.0612 -0.0114
  764loPI   C1B11893  10.401  17.362   5.418  0.0442  0.0503 -0.1934
  764loPI   C2B11894  10.518  17.304   5.750  0.2150  0.3531 -0.0781
  764loPI   C3B11895  10.601  17.214   6.125  0.2672  0.0366  0.1450
  764loPI   C4B11896  10.707  17.175   6.615 -0.0500  0.1790 -0.0548
  765loPI    C111897  10.281   9.386   4.808 -0.0140  0.0125  0.0188
  765loPI    C211898  10.472   9.080   4.981 -0.2557 -0.0272  0.2212
  765loPI    C311899  10.081   9.052   4.899 -0.2039  0.0966 -0.0832
  765loPI   PO411900  10.280   9.584   4.928  0.0887 -0.1575  0.1880
  765loPI   GL111901  10.087   9.577   5.301  0.4062  0.1515 -0.1911
  765loPI   GL211902  10.248   9.264   5.379 -0.1844 -0.0694 -0.0926
  765loPI   C1A11903  10.466   9.796   5.584 -0.2197 -0.2445  0.1419
  765loPI   C2A11904  10.421   9.820   6.002  0.1607  0.0344  0.0890
  765loPI   C3A11905  10.421   9.823   6.360 -0.1500 -0.1875  0.1657
  765loPI   C4A11906  10.273   9.871   6.783 -0.0116 -0.0930 -0.0441
  765loPI   C5A11907  10.277  10.189   7.139  0.0052 -0.0476  0.1694
  765loPI   C6A11908  10.614  10.355   7.417 -0.3411 -0.0182  0.0631
  765loPI   C1B11909  10.176   9.169   5.691  0.2669  0.4669  0.0425
  765loPI   C2B11910  10.211   8.893   6.052 -0.3035  0.1904 -0.1300
  765loPI   C3B11911  10.352   8.831   6.457  0.3339  0.0150  0.1149
  765loPI   C4B11912  10.598   8.926   6.809 -0.1598  0.0068  0.1079
  766loPI    C111913   1.669   0.392   4.519  0.0063  0.0543  0.0725
  766loPI    C211914   2.024   0.243   4.627  0.0522  0.0503 -0.0822
  766loPI    C311915   1.958   0.346   4.246 -0.1636 -0.0921 -0.0850
  766loPI   PO411916   1.631   0.625   4.700  0.1942 -0.1360  0.4238
  766loPI   GL111917   1.689   0.883   5.145  0.2187  0.0813 -0.0314
  766loPI   GL211918   1.470   0.617   5.247  0.2675 -0.2294  0.0916
  766loPI   C1A11919   1.807   0.690   5.644  0.1398 -0.2585 -0.2744
  766loPI   C2A11920   1.809   0.688   6.031 -0.3103  0.1747  0.4225
  766loPI   C3A11921   1.678   0.590   6.422 -0.2088 -0.0265  0.0437
  766loPI   C4A11922   1.580   0.824   6.857 -0.4653 -0.0936  0.0798
  766loPI   C5A11923   1.681   0.725   7.265  0.2601  0.0689 -0.0363
  766loPI   C6A11924   1.953   0.820   7.567  0.0969  0.0949  0.1409
  766loPI   C1B11925   1.139   0.493   5.537 -0.1602  0.1367  0.1646
  766loPI   C2B11926   0.741   0.701   5.743 -0.0599 -0.0357  0.0112
  766loPI   C3B11927   0.291   0.558   5.873 -0.1016  0.1104  0.3078
  766loPI   C4B11928   0.106   0.669   6.226 -0.0165 -0.1186  0.2929
  767loPI    C111929  18.986   9.913   4.746 -0.1406  0.2658  0.2150
  767loPI    C211930  18.671   9.740   4.570  0.1677 -0.1713  0.0738
  767loPI    C311931  18.892  10.004   4.368 -0.1072  0.1455  0.1772
  767loPI   PO411932  19.028   9.730   4.908 -0.0597 -0.0951 -0.1057
  767loPI   GL111933  18.767   9.644   5.207 -0.2220  0.1332  0.0055
  767loPI   GL211934  18.557   9.857   5.117  0.0058  0.0543  0.0395
  767loPI   C1A11935  18.840   9.669   5.671  0.4323  0.4499 -0.1715
  767loPI   C2A11936  19.072  10.032   5.866  0.1263  0.1142  0.1189
  767loPI   C3A11937  19.272  10.017   6.211  0.0095 -0.1169  0.0079
  767loPI   C4A11938  19.418  10.232   6.662 -0.0939  0.1531  0.1013
  767loPI   C5A11939  19.451  10.547   7.061 -0.2004  0.0617 -0.1284
  767loPI   C6A11940  19.350  10.969   7.069 -0.3791 -0.3028 -0.0469
  767loPI   C1B11941  18.426   9.844   5.528  0.2430 -0.0721  0.1301
  767loPI   C2B11942  18.533   9.950   5.951 -0.0113 -0.4124  0.1194
  767loPI   C3B11943  18.832   9.925   6.266 -0.0355 -0.1071  0.0259
  767loPI   C4B11944  18.970   9.938   6.726 -0.1954  0.1229  0.2427
  768loPI    C111945   2.694   2.593   4.467 -0.1558  0.1587 -0.0433
  768loPI    C211946   2.975   2.831   4.623 -0.0780  0.0826 -0.0665
  768loPI    C311947   3.067   2.584   4.322 -0.2594  0.3256 -0.3263
  768loPI   PO411948   2.552   2.634   4.713  0.1162 -0.0550  0.1623
  768loPI   GL111949   2.281   2.659   5.089 -0.0866 -0.2420  0.0945
  768loPI   GL211950   2.036   2.788   5.249 -0.2356 -0.0740  0.2611
  768loPI   C1A11951   2.335   2.450   5.486  0.0837  0.1538  0.0072
  768loPI   C2A11952   2.291   2.024   5.549  0.2538  0.1368  0.0332
  768loPI   C3A11953   2.526   1.791   5.799  0.3903 -0.1153 -0.0837
  768loPI   C4A11954   2.638   1.390   5.922  0.0710  0.2461 -0.0728
  768loPI   C5A11955   2.948   1.252   6.133  0.1662  0.0237  0.1567
  768loPI   C6A11956   3.385   1.101   6.258 -0.1182  0.0417  0.1341
  768loPI   C1B11957   1.994   2.923   5.678  0.1600 -0.0214 -0.4344
  768loPI   C2B11958   2.198   3.111   6.053  0.1302 -0.0885 -0.0335
  768loPI   C3B11959   2.498   3.034   6.351  0.0192  0.2172  0.1223
  768loPI   C4B11960   2.561   2.687   6.670 -0.0505 -0.2603  0.0105
  769loPI    C111961  17.217   8.175   4.999 -0.0534  0.1089 -0.0678
  769loPI    C211962  17.520   8.327   4.787 -0.2113  0.1295 -0.2827
  769loPI    C311963  17.526   7.943   4.898  0.0005  0.1875 -0.0848
  769loPI   PO411964  17.148   8.192   5.267  0.1278 -0.0955 -0.1413
  769loPI   GL111965  17.299   8.330   5.645  0.2392  0.0209  0.3216
  769loPI   GL211966  17.637   8.218   5.824 -0.1331  0.1148  0.1535
  769loPI   C1A11967  17.266   8.523   6.020  0.2636  0.3643 -0.0445
  769loPI   C2A11968  17.396   8.438   6.463  0.1905  0.1240  0.1130
  769loPI   C3A11969  17.235   8.120   6.719  0.2611  0.1293 -0.0284
  769loPI   C4A11970  17.327   7.728   6.957  0.2766  0.1412  0.0254
  769loPI   C5A11971  17.437   7.491   7.263 -0.1810  0.2084 -0.2271
  769loPI   C6A11972  17.566   7.587   7.542  0.1529 -0.2467  0.0586
  769loPI   C1B11973  17.332   8.017   6.077  0.0268  0.1941  0.1940
  769loPI   C2B11974  17.350   7.669   6.426 -0.0320  0.3149  0.0446
  769loPI   C3B11975  17.288   7.290   6.695  0.3635 -0.2417 -0.1030
  769loPI   C4B11976  17.510   7.056   7.040  0.2245  0.0350  0.3741
  770loPI    C111977  14.563   9.620   4.433  0.2232  0.2101  0.1946
  770loPI    C211978  14.816   9.874   4.255  0.0857  0.2519  0.0570
  770loPI    C311979  14.801   9.491   4.138 -0.0738  0.3020 -0.0902
  770loPI   PO411980  14.567   9.693   4.687  0.1119  0.0412  0.0143
  770loPI   GL111981  14.707   9.457   5.028  0.0813  0.2574 -0.0826
  770loPI   GL211982  14.289   9.324   5.119 -0.1363 -0.2548  0.2181
  770loPI   C1A11983  14.810   9.407   5.447 -0.0487 -0.3301  0.2324
  770loPI   C2A11984  15.078   9.444   5.763  0.2340  0.1711 -0.3049
  770loPI   C3A11985  15.325   9.563   6.127 -0.1532 -0.0978  0.0458
  770loPI   C4A11986  15.536   9.757   6.453  0.3090  0.0105  0.0914
  770loPI   C5A11987  15.792   9.973   6.817 -0.1133 -0.2088 -0.2340
  770loPI   C6A11988  15.988  10.188   7.070 -0.1110  0.0108 -0.0501
  770loPI   C1B11989  14.267   9.507   5.551 -0.0313  0.1990 -0.4433
  770loPI   C2B11990  14.555   9.287   5.856  0.0313  0.3725 -0.0582
  770loPI   C3B11991  14.502   9.475   6.242 -0.3074 -0.1463 -0.1893
  770loPI   C4B11992  14.488   9.585   6.758 -0.0107 -0.1022 -0.1545
  771loPI    C111993  13.550   3.735   4.661  0.4223 -0.0117  0.0174
  771loPI    C211994  13.606   3.421   4.420  0.2213  0.0442 -0.1049
  771loPI    C311995  13.854   3.734   4.401  0.2368  0.0262 -0.2023
  771loPI   PO411996  13.525   3.662   4.933 -0.2787  0.2234  0.0295
  771loPI   GL111997  13.709   3.591   5.306 -0.0232 -0.1085  0.2388
  771loPI   GL211998  13.922   3.754   5.406  0.3096  0.0492 -0.3062
  771loPI   C1A11999  13.552   3.387   5.617 -0.2263  0.0864 -0.1164
  771loPI   C2A12000  13.664   3.265   5.997 -0.0886 -0.0554 -0.1294
  771loPI   C3A12001  13.998   3.255   6.282 -0.1360 -0.2214 -0.3168
  771loPI   C4A12002  14.355   3.133   6.439  0.2056 -0.2338  0.0093
  771loPI   C5A12003  14.630   3.127   6.801 -0.1180  0.2138  0.2572
  771loPI   C6A12004  14.771   2.819   7.121  0.0128  0.0983  0.1137
  771loPI   C1B12005  13.913   3.720   5.878 -0.4071 -0.0251 -0.0528
  771loPI   C2B12006  13.931   3.779   6.361 -0.0682  0.3803 -0.1188
  771loPI   C3B12007  13.622   3.716   6.651 -0.2555  0.0308 -0.0222
  771loPI   C4B12008  13.318   3.919   6.932  0.2745  0.2318 -0.0245
  772loPI    C112009   3.073   9.502   4.743  0.1233 -0.1407 -0.2603
  772loPI    C212010   3.357   9.546   4.465  0.1705 -0.0809 -0.2028
  772loPI    C312011   2.979   9.649   4.383  0.2396  0.2324 -0.1427
  772loPI   PO412012   3.167   9.467   5.031  0.0105 -0.2767  0.0640
  772loPI   GL112013   3.175   9.499   5.438  0.0306  0.1738  0.2812
  772loPI   GL212014   3.349   9.779   5.607 -0.0388  0.1267  0.2250
  772loPI   C1A12015   2.913   9.560   5.740 -0.0763  0.4111  0.1391
  772loPI   C2A12016   3.001   9.663   6.224 -0.0512  0.1345 -0.1339
  772loPI   C3A12017   2.950   9.548   6.682  0.1458 -0.1950 -0.1112
  772loPI   C4A12018   2.952   9.285   7.024 -0.1806  0.2696 -0.2510
  772loPI   C5A12019   2.881   9.391   7.455  0.1287  0.2755 -0.0073
  772loPI   C6A12020   3.279   9.523   7.636  0.0140  0.1723 -0.0123
  772loPI   C1B12021   3.562   9.675   5.997  0.4183 -0.2178 -0.2075
  772loPI   C2B12022   3.879   9.397   6.240  0.0256 -0.0972 -0.0325
  772loPI   C3B12023   3.968   9.299   6.640 -0.1871  0.2368 -0.2405
  772loPI   C4B12024   3.880   9.354   7.105 -0.2664  0.1025  0.2322
  773loPI    C112025  14.586  13.192   4.291 -0.0017  0.1177  0.0293
  773loPI    C212026  14.732  13.564   4.268  0.2867  0.0045 -0.0117
  773loPI    C312027  14.680  13.348   3.935  0.2041 -0.0248  0.0198
  773loPI   PO412028  14.445  13.295   4.595 -0.3095  0.0577 -0.0394
  773loPI   GL112029  14.426  13.426   5.002  0.3155 -0.1941 -0.2321
  773loPI   GL212030  14.553  13.204   5.272 -0.3746  0.0048 -0.2476
  773loPI   C1A12031  14.181  13.506   5.406 -0.4031 -0.0247 -0.3808
  773loPI   C2A12032  14.125  13.689   5.812 -0.0851 -0.2578 -0.2717
  773loPI   C3A12033  14.056  13.681   6.275  0.2096 -0.1207 -0.1035
  773loPI   C4A12034  14.139  13.803   6.762  0.0715  0.0679 -0.0529
  773loPI   C5A12035  14.141  14.258   6.886  0.2552 -0.0374 -0.1018
  773loPI   C6A12036  14.282  14.611   7.141 -0.0106 -0.0702  0.2139
  773loPI   C1B12037  14.544  13.377   5.672  0.0012 -0.0442  0.0630
  773loPI   C2B12038  14.431  13.433   6.138 -0.1428 -0.0223 -0.1464
  773loPI   C3B12039  14.499  13.589   6.499 -0.3385 -0.0998 -0.3786
  773loPI   C4B12040  14.495  13.389   6.961 -0.0816 -0.1719 -0.2756
  774loPI    C112041  10.336   5.103   4.500  0.0501  0.1235 -0.1993
  774loPI    C212042  10.277   4.891   4.166 -0.1112  0.0798 -0.1438
  774loPI    C312043  10.248   5.290   4.158 -0.6242  0.0502 -0.0785
  774loPI   PO412044  10.191   4.896   4.676 -0.2235  0.1638  0.2486
  774loPI   GL112045  10.198   4.773   5.110  0.0896  0.2353 -0.3939
  774loPI   GL212046  10.428   4.665   5.160 -0.1481  0.0706 -0.0536
  774loPI   C1A12047  10.034   4.808   5.476  0.2811 -0.1105  0.2755
  774loPI   C2A12048   9.980   4.496   5.704  0.1430 -0.0578  0.0886
  774loPI   C3A12049   9.869   4.405   6.219 -0.0007  0.1019  0.0741
  774loPI   C4A12050   9.842   4.596   6.604  0.2045  0.1623 -0.1046
  774loPI   C5A12051   9.750   4.754   7.138 -0.0043  0.0319  0.0959
  774loPI   C6A12052   9.336   4.908   7.286  0.2351  0.0963  0.0238
  774loPI   C1B12053  10.428   4.522   5.567  0.0707 -0.2786 -0.0677
  774loPI   C2B12054  10.406   4.497   6.046 -0.1108 -0.0207 -0.1815
  774loPI   C3B12055  10.344   4.306   6.379 -0.1211  0.0993 -0.0958
  774loPI   C4B12056   9.978   4.127   6.617  0.2605 -0.4517  0.2149
  775loPI    C112057  17.131  16.064   4.296  0.2016 -0.0371 -0.0975
  775loPI    C212058  17.314  15.764   4.104 -0.1422 -0.2042 -0.1711
  775loPI    C312059  17.099  16.032   3.898  0.2827  0.1854 -0.1235
  775loPI   PO412060  17.274  16.150   4.449 -0.0048  0.0636 -0.1440
  775loPI   GL112061  17.264  16.128   4.866 -0.4242 -0.2948 -0.0102
  775loPI   GL212062  17.062  16.042   5.025 -0.0766  0.0885  0.1410
  775loPI   C1A12063  17.449  16.272   5.277 -0.4370  0.0465  0.1355
  775loPI   C2A12064  17.477  16.592   5.639 -0.1559  0.0147 -0.2850
  775loPI   C3A12065  17.422  16.991   5.910  0.1700  0.2435 -0.1325
  775loPI   C4A12066  17.210  17.160   6.278  0.0646  0.2737 -0.1622
  775loPI   C5A12067  17.013  17.263   6.719 -0.1225  0.0860 -0.2624
  775loPI   C6A12068  16.875  17.276   7.221 -0.2391  0.0938 -0.0162
  775loPI   C1B12069  16.977  16.109   5.429 -0.1881  0.1400  0.2691
  775loPI   C2B12070  17.202  16.104   5.875 -0.1243 -0.2865  0.0931
  775loPI   C3B12071  17.445  16.300   6.189 -0.3092  0.1598 -0.0117
  775loPI   C4B12072  17.708  16.587   6.094  0.4763 -0.0601 -0.0688
  776loPI    C112073   4.737  10.310   5.006  0.0761 -0.1865  0.0005
  776loPI    C212074   5.075  10.132   4.888 -0.0532 -0.3370 -0.1483
  776loPI    C312075   5.006  10.514   4.792  0.3792 -0.0906  0.4595
  776loPI   PO412076   4.628  10.117   5.264  0.1378 -0.1634 -0.3363
  776loPI   GL112077   4.604   9.831   5.527 -0.0522  0.2885  0.1632
  776loPI   GL212078   4.275   9.836   5.716  0.4506 -0.1611  0.1057
  776loPI   C1A12079   4.737   9.796   5.932  0.0962 -0.2128 -0.0423
  776loPI   C2A12080   4.690   9.888   6.333  0.1305 -0.1268 -0.0321
  776loPI   C3A12081   4.619  10.071   6.672 -0.4285  0.3019  0.1477
  776loPI   C4A12082   4.634  10.065   7.092 -0.1913  0.0554  0.1666
  776loPI   C5A12083   4.850  10.350   7.326  0.0302 -0.0404 -0.1487
  776loPI   C6A12084   5.215  10.461   7.402  0.0838  0.3383 -0.0758
  776loPI   C1B12085   4.287  10.026   6.117 -0.0025  0.2667 -0.2331
  776loPI   C2B12086   3.954   9.956   6.432 -0.1062 -0.1453  0.2266
  776loPI   C3B12087   3.776   9.783   6.784  0.0206  0.0560  0.0277
  776loPI   C4B12088   3.564   9.757   7.284 -0.0920  0.1697 -0.0558
  777loPI    C112089  10.090  19.464   4.472  0.1726 -0.1443  0.0783
  777loPI    C212090  10.441  19.502   4.283  0.1958 -0.1315  0.1236
  777loPI    C312091  10.130  19.727   4.173  0.2288 -0.0742  0.1470
  777loPI   PO412092  10.086  19.223   4.552 -0.2306  0.3719  0.1783
  777loPI   GL112093  10.371  19.066   4.930  0.0023  0.2904 -0.0792
  777loPI   GL212094  10.280  18.835   5.050 -0.2886  0.0966  0.1268
  777loPI   C1A12095  10.489  19.205   5.405  0.0455  0.0470 -0.1361
  777loPI   C2A12096  10.552  19.205   5.910 -0.0265  0.0182 -0.1004
  777loPI   C3A12097  10.638  19.015   6.278 -0.3158  0.0199  0.1888
  777loPI   C4A12098  10.822  18.694   6.503 -0.0006  0.1861  0.1247
  777loPI   C5A12099  11.128  18.691   6.810 -0.3597 -0.2246 -0.1448
  777loPI   C6A12100  11.212  18.668   7.343  0.0273  0.1519 -0.1295
  777loPI   C1B12101  10.339  18.468   5.249 -0.0075 -0.2059  0.0006
  777loPI   C2B12102  10.342  18.324   5.675  0.4458  0.0716 -0.1210
  777loPI   C3B12103  10.246  18.157   6.083  0.2879  0.1626 -0.1139
  777loPI   C4B12104   9.878  18.014   6.174  0.0329 -0.0865 -0.0629
  778loPI    C112105  11.261  18.702   4.140 -0.0694  0.1581  0.0422
  778loPI    C212106  11.123  19.055   4.011  0.0905  0.1573 -0.1344
  778loPI    C312107  11.178  18.754   3.752 -0.0616 -0.0039  0.0181
  778loPI   PO412108  11.497  18.749   4.359 -0.0622  0.1833  0.1274
  778loPI   GL112109  11.758  18.650   4.669 -0.1879  0.1134  0.1845
  778loPI   GL212110  11.878  18.353   4.567  0.0173  0.0056  0.4314
  778loPI   C1A12111  11.981  18.689   5.074 -0.2489 -0.3324 -0.0827
  778loPI   C2A12112  11.988  18.910   5.503 -0.0442 -0.1139 -0.0883
  778loPI   C3A12113  11.712  18.877   5.840 -0.2031  0.0058 -0.1879
  778loPI   C4A12114  11.570  19.054   6.243  0.2046  0.0067 -0.1024
  778loPI   C5A12115  11.563  19.112   6.697 -0.0490  0.0605 -0.0491
  778loPI   C6A12116  11.213  19.264   6.978  0.1360 -0.1189  0.0172
  778loPI   C1B12117  12.109  18.201   4.969 -0.1279  0.1615  0.0172
  778loPI   C2B12118  12.193  18.318   5.449  0.1177 -0.3798 -0.0643
  778loPI   C3B12119  12.028  18.457   5.821 -0.2589  0.2192 -0.4071
  778loPI   C4B12120  11.946  18.636   6.186  0.0774  0.1245  0.0692
  779loPI    C112121  10.756  10.735   4.743  0.0574 -0.1305  0.0813
  779loPI    C212122  11.001  10.666   4.436 -0.0022  0.0681 -0.0125
  779loPI    C312123  10.689  10.912   4.391  0.0271  0.1511  0.2253
  779loPI   PO412124  10.773  10.449   4.831  0.0079 -0.1743  0.1219
  779loPI   GL112125  10.660  10.309   5.342 -0.1896  0.0330  0.0960
  779loPI   GL212126  10.481  10.580   5.528 -0.0619  0.0744  0.3691
  779loPI   C1A12127  10.707  10.196   5.783  0.1449 -0.1422 -0.2423
  779loPI   C2A12128  10.751  10.282   6.183  0.2552 -0.2049 -0.0642
  779loPI   C3A12129  10.805  10.507   6.607  0.1760  0.1837 -0.1418
  779loPI   C4A12130  10.584  10.588   6.982 -0.1234 -0.0523  0.1982
  779loPI   C5A12131  10.509  11.095   7.098 -0.0851 -0.1774  0.4107
  779loPI   C6A12132  10.666  11.470   7.009 -0.2360 -0.1647 -0.5823
  779loPI   C1B12133  10.441  10.675   5.887  0.2044  0.2153 -0.1566
  779loPI   C2B12134  10.477  10.810   6.300 -0.0567 -0.2703 -0.0795
  779loPI   C3B12135  10.709  10.995   6.664  0.0380  0.1574 -0.1901
  779loPI   C4B12136  11.026  10.948   6.929 -0.3031 -0.0038 -0.2816
  780loPI    C112137  16.826   4.255   4.634 -0.1353 -0.0682  0.0553
  780loPI    C212138  16.889   4.647   4.678  0.1251 -0.0936 -0.0743
  780loPI    C312139  16.895   4.483   4.313  0.1187 -0.2347 -0.0116
  780loPI   PO412140  17.052   4.216   4.867 -0.2248 -0.0641 -0.4442
  780loPI   GL112141  17.491   4.412   5.036  0.0976 -0.0928 -0.1767
  780loPI   GL212142  17.656   4.670   5.312 -0.3480  0.0905 -0.0239
  780loPI   C1A12143  17.426   4.236   5.484 -0.1593  0.2230 -0.1366
  780loPI   C2A12144  17.433   4.061   5.915 -0.0868 -0.1594  0.1886
  780loPI   C3A12145  17.758   3.813   6.215 -0.2680  0.0499 -0.1600
  780loPI   C4A12146  17.714   3.703   6.671 -0.0443  0.2061 -0.0697
  780loPI   C5A12147  17.760   3.691   7.159 -0.0789  0.0695  0.0540
  780loPI   C6A12148  17.946   3.756   7.511  0.0958  0.1446 -0.1881
  780loPI   C1B12149  17.590   4.578   5.781  0.1990 -0.0243 -0.1450
  780loPI   C2B12150  17.639   4.425   6.128  0.0287 -0.2176  0.3489
  780loPI   C3B12151  17.696   4.419   6.532 -0.0892  0.0801  0.1580
  780loPI   C4B12152  17.776   4.192   6.914 -0.2373  0.2200 -0.0464
  781loPI    C112153  14.020  13.266   4.417  0.1667  0.3185  0.2159
  781loPI    C212154  13.801  13.522   4.202 -0.1453 -0.0033  0.1418
  781loPI    C312155  14.198  13.511   4.155 -0.1766  0.1458 -0.1902
  781loPI   PO412156  13.935  13.289   4.703  0.1187  0.2598 -0.0439
  781loPI   GL112157  13.871  13.645   5.093  0.0089 -0.2130  0.0259
  781loPI   GL212158  13.659  13.966   5.230  0.0084 -0.1685  0.0992
  781loPI   C1A12159  13.630  13.534   5.421 -0.2166 -0.0975  0.1113
  781loPI   C2A12160  13.446  13.380   5.692 -0.2984 -0.3127  0.2338
  781loPI   C3A12161  13.287  13.178   6.023 -0.2273  0.1376  0.1912
  781loPI   C4A12162  13.445  12.998   6.305 -0.0209  0.1315 -0.1433
  781loPI   C5A12163  13.523  13.102   6.793 -0.3374 -0.1106 -0.0195
  781loPI   C6A12164  13.526  13.266   7.181  0.3686 -0.1620 -0.1056
  781loPI   C1B12165  13.586  14.043   5.622  0.1573  0.3124  0.0686
  781loPI   C2B12166  13.621  13.708   6.013  0.0018  0.0163 -0.3385
  781loPI   C3B12167  13.550  13.500   6.452  0.3416  0.2093  0.1517
  781loPI   C4B12168  13.647  13.644   6.846  0.0427 -0.4576 -0.0844
  782loPI    C112169  11.244   7.352   5.248  0.2043  0.2487  0.0645
  782loPI    C212170  11.112   7.372   4.872 -0.3772  0.0332  0.2469
  782loPI    C312171  11.316   7.051   4.995 -0.2273  0.0829  0.1317
  782loPI   PO412172  11.327   7.566   5.282  0.1562  0.2383  0.1531
  782loPI   GL112173  11.616   7.768   5.432  0.0021  0.2048  0.0735
  782loPI   GL212174  11.916   7.683   5.362 -0.1603 -0.1025 -0.3174
  782loPI   C1A12175  11.579   7.543   5.840 -0.0569  0.3157 -0.1547
  782loPI   C2A12176  11.451   7.685   6.323 -0.3079 -0.1283 -0.3654
  782loPI   C3A12177  11.470   7.865   6.787 -0.1435  0.1310 -0.0143
  782loPI   C4A12178  11.531   7.621   7.206  0.4702  0.0838  0.2701
  782loPI   C5A12179  11.240   7.488   7.662  0.1369  0.2901  0.2858
  782loPI   C6A12180  11.019   7.802   7.969  0.0352 -0.1233  0.0606
  782loPI   C1B12181  12.164   7.311   5.604  0.1455  0.1009 -0.1632
  782loPI   C2B12182  12.341   7.247   6.004  0.4106  0.0504  0.1094
  782loPI   C3B12183  12.589   7.351   6.325  0.0779  0.0395  0.2126
  782loPI   C4B12184  12.860   7.413   6.686  0.1349  0.0012  0.1154
  783loPI    C112185  18.763   5.364   4.556  0.0872 -0.2453  0.1612
  783loPI    C212186  18.365   5.352   4.527  0.0997 -0.4090  0.0445
  783loPI    C312187  18.589   5.391   4.197  0.1831 -0.4029  0.1016
  783loPI   PO412188  18.768   5.229   4.803  0.1424 -0.0418 -0.3112
  783loPI   GL112189  18.736   5.068   5.188  0.4315 -0.0555 -0.2128
  783loPI   GL212190  18.640   4.804   5.269 -0.0356  0.1125  0.2830
  783loPI   C1A12191  18.877   5.139   5.633  0.0221  0.1107  0.1981
  783loPI   C2A12192  18.686   5.344   5.964  0.1841 -0.1138 -0.0974
  783loPI   C3A12193  18.682   5.380   6.399 -0.1271 -0.1536 -0.0169
  783loPI   C4A12194  18.673   5.345   6.821 -0.1808 -0.1732  0.2408
  783loPI   C5A12195  18.577   4.982   7.105  0.1475 -0.0873  0.0774
  783loPI   C6A12196  18.344   4.484   7.288 -0.0043 -0.2367 -0.1399
  783loPI   C1B12197  18.484   4.865   5.707 -0.1636 -0.0378  0.0269
  783loPI   C2B12198  18.470   4.878   6.130  0.1523 -0.1906 -0.0018
  783loPI   C3B12199  18.471   4.848   6.572 -0.1254  0.1566 -0.3421
  783loPI   C4B12200  18.183   4.653   6.849  0.1128  0.1020 -0.0741
  784loPI    C112201   3.551  12.410   4.614 -0.1643  0.0706  0.0594
  784loPI    C212202   3.662  12.228   4.952  0.0266 -0.1292 -0.1082
  784loPI    C312203   3.368  12.073   4.730 -0.1050  0.0071 -0.0309
  784loPI   PO412204   3.489  12.678   4.727 -0.0967 -0.0260 -0.0079
  784loPI   GL112205   3.457  12.861   5.209 -0.0740  0.0820  0.1103
  784loPI   GL212206   3.753  12.640   5.188  0.3480 -0.2290  0.3491
  784loPI   C1A12207   3.374  12.783   5.646  0.0600  0.1722 -0.1608
  784loPI   C2A12208   3.280  12.707   6.004  0.1460  0.0256 -0.1372
  784loPI   C3A12209   3.061  12.488   6.329 -0.1483  0.1690  0.1096
  784loPI   C4A12210   3.054  12.423   6.801 -0.3224 -0.1382  0.2804
  784loPI   C5A12211   3.295  12.345   7.155 -0.2511 -0.0477 -0.0022
  784loPI   C6A12212   3.737  12.439   7.262  0.0298  0.1328 -0.2227
  784loPI   C1B12213   3.843  12.869   5.585 -0.0514 -0.1335  0.0006
  784loPI   C2B12214   3.999  13.024   6.055 -0.2725 -0.1097  0.2944
  784loPI   C3B12215   4.063  12.983   6.486 -0.3916  0.1392 -0.0971
  784loPI   C4B12216   4.238  13.121   6.784 -0.1027 -0.0556  0.0332
  785loPI    C112217  12.969   5.012   4.452  0.3535  0.0240  0.0603
  785loPI    C212218  13.150   4.661   4.390  0.3799  0.0624 -0.0840
  785loPI    C312219  13.071   4.902   4.081 -0.2131 -0.0971 -0.0696
  785loPI   PO412220  12.946   4.943   4.777  0.1135  0.0189  0.0896
  785loPI   GL112221  12.805   4.918   5.156 -0.0739 -0.3044 -0.2524
  785loPI   GL212222  13.150   4.794   5.333  0.2077  0.2874  0.0037
  785loPI   C1A12223  12.974   5.091   5.700 -0.3193  0.0708  0.0644
  785loPI   C2A12224  13.127   4.937   6.011 -0.1506  0.2319  0.3781
  785loPI   C3A12225  13.532   4.749   6.214 -0.0937  0.1979  0.1199
  785loPI   C4A12226  13.696   4.775   6.546 -0.0960 -0.1691  0.0495
  785loPI   C5A12227  13.587   5.100   6.816 -0.2141 -0.0691  0.2314
  785loPI   C6A12228  13.470   5.345   7.283 -0.1678 -0.2985 -0.3285
  785loPI   C1B12229  12.959   4.542   5.599  0.0623 -0.0551  0.1129
  785loPI   C2B12230  12.669   4.613   5.969  0.1519  0.2218  0.1513
  785loPI   C3B12231  12.337   4.711   6.135  0.1054  0.0530 -0.0859
  785loPI   C4B12232  12.181   4.648   6.538  0.3147 -0.2934 -0.3436
  786loPI    C112233  11.778  10.647   5.150  0.0724  0.1254  0.1195
  786loPI    C212234  11.513  10.412   5.337 -0.1773  0.2474 -0.0744
  786loPI    C312235  11.825  10.250   5.146 -0.1125  0.1022  0.1507
  786loPI   PO412236  11.631  10.830   5.057  0.1044  0.0879  0.0277
  786loPI   GL112237  11.354  11.028   5.325  0.2619  0.1917  0.0211
  786loPI   GL212238  11.065  11.268   5.339 -0.3000  0.2887 -0.0270
  786loPI   C1A12239  11.422  11.032   5.692 -0.1785  0.1063 -0.0332
  786loPI   C2A12240  11.436  11.047   6.064 -0.1900 -0.1655 -0.2465
  786loPI   C3A12241  11.422  11.117   6.391 -0.3130  0.1001 -0.1325
  786loPI   C4A12242  11.672  10.913   6.672 -0.2909 -0.2984 -0.4444
  786loPI   C5A12243  11.682  10.975   7.110 -0.0300  0.0908 -0.2248
  786loPI   C6A12244  11.419  10.949   7.439  0.1874 -0.1201  0.1920
  786loPI   C1B12245  11.128  11.403   5.806  0.0163 -0.1658  0.1170
  786loPI   C2B12246  11.296  11.586   6.151 -0.1758 -0.4576 -0.2685
  786loPI   C3B12247  11.339  11.712   6.509  0.0270  0.1004  0.1379
  786loPI   C4B12248  11.169  11.829   6.978  0.1298  0.0945  0.3536
  787loPI    C112249  12.148   9.354   4.591  0.4599  0.2303 -0.0900
  787loPI    C212250  12.303   9.084   4.843 -0.1254  0.0135  0.0552
  787loPI    C312251  12.381   9.061   4.451  0.1130 -0.1524  0.1102
  787loPI   PO412252  12.193   9.584   4.795  0.4801 -0.0459  0.4321
  787loPI   GL112253  12.266   9.708   5.172  0.0929 -0.0040 -0.0152
  787loPI   GL212254  12.118   9.818   5.309 -0.4845  0.0326 -0.0256
  787loPI   C1A12255  12.533   9.673   5.583  0.0782 -0.0584 -0.0775
  787loPI   C2A12256  12.541   9.504   6.090 -0.2952  0.0279  0.1928
  787loPI   C3A12257  12.686   9.424   6.503 -0.0271  0.5021 -0.0251
  787loPI   C4A12258  12.744   9.452   6.947 -0.0327 -0.0227  0.0628
  787loPI   C5A12259  12.879   9.496   7.334 -0.1785  0.0883  0.0780
  787loPI   C6A12260  13.100   9.420   7.672 -0.1037  0.0597 -0.1311
  787loPI   C1B12261  12.237  10.093   5.694  0.0006  0.1667  0.1833
  787loPI   C2B12262  12.407   9.974   6.081  0.0811  0.1733  0.0924
  787loPI   C3B12263  12.364   9.864   6.550  0.0899  0.0445  0.0380
  787loPI   C4B12264  12.286   9.652   6.825  0.3114  0.2827  0.2132
  788loPI    C112265   8.981  14.948   5.173  0.1298  0.1117  0.0076
  788loPI    C212266   8.883  14.927   4.786 -0.0666 -0.0316  0.0637
  788loPI    C312267   8.623  15.078   5.051  0.0249 -0.0332  0.1551
  788loPI   PO412268   9.336  14.938   5.089  0.3563  0.0123 -0.1119
  788loPI   GL112269   9.538  15.039   5.460  0.1153 -0.0948 -0.1470
  788loPI   GL212270   9.358  14.762   5.552  0.2497  0.1313 -0.0354
  788loPI   C1A12271   9.847  15.093   5.859 -0.0011  0.3911  0.4403
  788loPI   C2A12272  10.088  15.272   6.049  0.3507  0.1055 -0.0945
  788loPI   C3A12273  10.240  15.189   6.497 -0.1424 -0.1623 -0.0227
  788loPI   C4A12274  10.319  15.169   6.920 -0.0479 -0.2211  0.2037
  788loPI   C5A12275  10.673  15.082   7.183 -0.0382  0.1359  0.0608
  788loPI   C6A12276  10.861  14.942   7.510  0.0403 -0.1490 -0.2573
  788loPI   C1B12277   9.575  14.588   5.988  0.1305  0.1926 -0.0457
  788loPI   C2B12278   9.629  14.406   6.377 -0.2718  0.1678 -0.1427
  788loPI   C3B12279   9.877  14.256   6.827  0.0176 -0.2609 -0.0813
  788loPI   C4B12280   9.768  14.079   7.310 -0.1620 -0.2670  0.2026
  789loPI    C112281  19.239   8.604   5.062 -0.0454  0.1895  0.0021
  789loPI    C212282  18.890   8.604   5.257 -0.0729 -0.0342 -0.0436
  789loPI    C312283  18.923   8.792   4.906 -0.1562 -0.0399 -0.0546
  789loPI   PO412284  19.352   8.339   5.240  0.1402 -0.1968 -0.0972
  789loPI   GL112285  19.437   8.125   5.529  0.0919 -0.1360  0.0439
  789loPI   GL212286  19.125   8.142   5.712  0.0320  0.0528  0.1730
  789loPI   C1A12287  19.459   7.975   5.991 -0.1186  0.0044 -0.0001
  789loPI   C2A12288  19.537   7.753   6.376  0.0112  0.2294 -0.0043
  789loPI   C3A12289  19.621   7.452   6.664 -0.2008 -0.0125 -0.1155
  789loPI   C4A12290  19.799   7.111   6.774  0.0127  0.1354 -0.0683
  789loPI   C5A12291  19.864   6.868   7.164 -0.0172 -0.0123  0.1556
  789loPI   C6A12292  19.924   7.002   7.652  0.0127 -0.2891 -0.2165
  789loPI   C1B12293  19.136   8.399   5.960  0.1343 -0.1497  0.0639
  789loPI   C2B12294  19.198   8.821   6.092 -0.0004  0.0808 -0.1838
  789loPI   C3B12295  19.382   9.196   6.155 -0.1773 -0.1113 -0.2594
  789loPI   C4B12296  19.446   9.603   5.938 -0.2015  0.0216 -0.0429
  790loPI    C112297  17.847   0.410   4.145 -0.1024 -0.0299 -0.1764
  790loPI    C212298  18.056   0.073   4.090  0.0137 -0.0148  0.1516
  790loPI    C312299  17.661   0.075   4.031  0.0019 -0.2284  0.2177
  790loPI   PO412300  17.907   0.479   4.448  0.4770 -0.1784  0.0803
  790loPI   GL112301  18.131   0.423   4.759 -0.1315 -0.1264  0.1168
  790loPI   GL212302  18.281   0.251   4.904  0.2281 -0.1614  0.3573
  790loPI   C1A12303  17.886   0.227   5.157  0.2496 -0.2032  0.0791
  790loPI   C2A12304  17.729  -0.019   5.565 -0.0295 -0.1704  0.0102
  790loPI   C3A12305  17.740  -0.343   5.874  0.0255 -0.0088  0.3392
  790loPI   C4A12306  17.634  -0.277   6.269 -0.0055 -0.1124  0.2297
  790loPI   C5A12307  17.428  -0.392   6.629  0.0642 -0.3405 -0.1914
  790loPI   C6A12308  17.160  -0.394   7.100  0.1877  0.2097 -0.0444
  790loPI   C1B12309  18.352   0.150   5.309 -0.0321 -0.2117  0.1422
  790loPI   C2B12310  18.542  -0.094   5.634 -0.2552 -0.0483  0.0035
  790loPI   C3B12311  18.658  -0.511   5.888  0.1601 -0.2100 -0.0483
  790loPI   C4B12312  18.559  -0.511   6.355  0.0410 -0.1538 -0.3198
  791loPI    C112313  19.327  17.646   4.135 -0.1058  0.1586  0.0699
  791loPI    C212314  19.695  17.725   4.000 -0.0764 -0.2019 -0.0702
  791loPI    C312315  19.410  18.004   3.978  0.2215  0.1296  0.1689
  791loPI   PO412316  19.328  17.598   4.431 -0.0067  0.0338 -0.0689
  791loPI   GL112317  19.409  17.326   4.783  0.3771 -0.1253 -0.5440
  791loPI   GL212318  19.636  17.638   4.827 -0.6206 -0.0732 -0.1028
  791loPI   C1A12319  19.690  17.323   5.174  0.0609  0.1539 -0.1305
  791loPI   C2A12320  19.733  17.407   5.598 -0.4627  0.1180 -0.0551
  791loPI   C3A12321  19.830  17.213   6.027  0.2180  0.1346  0.2720
  791loPI   C4A12322  19.912  17.115   6.339 -0.2049  0.1435  0.3281
  791loPI   C5A12323  19.891  17.290   6.759 -0.2443  0.0079  0.3604
  791loPI   C6A12324  19.884  17.453   7.256  0.1222 -0.1142 -0.1266
  791loPI   C1B12325  19.296  17.685   5.177  0.2144  0.0003  0.1401
  791loPI   C2B12326  19.320  17.668   5.553 -0.2067  0.4332 -0.1092
  791loPI   C3B12327  19.669  17.822   5.915  0.0749  0.1784  0.0801
  791loPI   C4B12328  19.817  17.658   6.366  0.4066  0.1267  0.1154
  792loPI    C112329  16.117   2.566   4.645 -0.0953 -0.0316 -0.1675
  792loPI    C212330  16.044   2.954   4.707 -0.1645 -0.0840  0.0932
  792loPI    C312331  15.864   2.763   4.405  0.1566  0.1712 -0.2710
  792loPI   PO412332  16.076   2.482   4.891 -0.1191 -0.3560  0.1984
  792loPI   GL112333  15.983   2.522   5.280  0.2031  0.2145  0.2471
  792loPI   GL212334  16.049   2.791   5.310  0.2382 -0.0894  0.0696
  792loPI   C1A12335  16.119   2.328   5.749  0.0466 -0.0357  0.2543
  792loPI   C2A12336  16.240   2.544   6.152  0.3050  0.3295 -0.1077
  792loPI   C3A12337  16.429   2.689   6.451 -0.1128 -0.1267  0.3660
  792loPI   C4A12338  16.590   2.686   6.894 -0.1443 -0.2022 -0.2619
  792loPI   C5A12339  16.897   2.661   7.144 -0.1610 -0.1990 -0.2557
  792loPI   C6A12340  17.327   2.762   7.175  0.0637  0.1191  0.2959
  792loPI   C1B12341  16.093   2.825   5.784  0.0306 -0.3998 -0.2520
  792loPI   C2B12342  16.051   2.979   6.241 -0.0570 -0.2725 -0.1727
  792loPI   C3B12343  15.880   2.840   6.642 -0.0679  0.1137 -0.2049
  792loPI   C4B12344  15.725   2.642   7.087  0.1973 -0.3298 -0.3925
  793loPI    C112345  14.075  18.336   4.027 -0.0846 -0.0604 -0.0885
  793loPI    C212346  14.255  18.693   4.007 -0.0586 -0.0662  0.0385
  793loPI    C312347  14.133  18.512   3.672 -0.0507  0.0510 -0.0284
  793loPI   PO412348  14.265  18.311   4.342 -0.3747  0.2661 -0.4598
  793loPI   GL112349  14.254  18.317   4.801 -0.0481  0.1639  0.0875
  793loPI   GL212350  14.591  18.489   4.807  0.1110 -0.1981  0.0505
  793loPI   C1A12351  14.138  18.354   5.216  0.1726  0.4125 -0.3283
  793loPI   C2A12352  14.251  18.206   5.555  0.1533 -0.0322  0.1276
  793loPI   C3A12353  14.439  18.006   5.901 -0.1826  0.1483 -0.1742
  793loPI   C4A12354  14.383  17.815   6.261  0.0125 -0.1050  0.1357
  793loPI   C5A12355  13.966  17.561   6.494  0.0458 -0.1395  0.2477
  793loPI   C6A12356  13.774  17.376   6.939 -0.1532  0.2211 -0.3945
  793loPI   C1B12357  14.739  18.331   5.210 -0.5047 -0.2765  0.2210
  793loPI   C2B12358  14.861  18.427   5.627  0.0553  0.1974 -0.2828
  793loPI   C3B12359  14.991  18.693   5.922  0.3845 -0.0385 -0.4103
  793loPI   C4B12360  15.100  18.849   6.302  0.3468 -0.1635 -0.2966
  794loPI    C112361  11.491  16.085   4.450 -0.0375 -0.0453  0.3613
  794loPI    C212362  11.800  15.911   4.264 -0.1520 -0.0725  0.1946
  794loPI    C312363  11.857  16.104   4.609  0.0896  0.1010  0.0607
  794loPI   PO412364  11.322  15.843   4.517 -0.1848  0.0165  0.2462
  794loPI   GL112365  11.215  15.686   4.932 -0.0034 -0.0094 -0.2914
  794loPI   GL212366  11.025  15.770   5.162 -0.3800  0.4096 -0.2181
  794loPI   C1A12367  11.635  15.889   5.128 -0.1365  0.0985  0.3143
  794loPI   C2A12368  11.704  15.864   5.593  0.3422 -0.0631  0.1791
  794loPI   C3A12369  11.685  15.983   6.046  0.1295  0.2552  0.0932
  794loPI   C4A12370  11.646  16.121   6.414 -0.1713 -0.1002  0.0971
  794loPI   C5A12371  11.896  16.314   6.728  0.4572 -0.0735 -0.2064
  794loPI   C6A12372  12.020  16.564   7.003 -0.2499  0.1902 -0.0088
  794loPI   C1B12373  11.113  16.229   5.303 -0.1884  0.1054 -0.0847
  794loPI   C2B12374  11.291  16.205   5.677 -0.3267 -0.2680  0.0866
  794loPI   C3B12375  11.204  16.157   6.097 -0.1512  0.0755 -0.0401
  794loPI   C4B12376  11.168  16.300   6.580 -0.0499  0.0577  0.0354
  795loPI    C112377   8.520   3.475   4.531  0.0543  0.0335  0.0060
  795loPI    C212378   8.903   3.378   4.471  0.0500 -0.1186  0.2147
  795loPI    C312379   8.757   3.718   4.318  0.2364 -0.1175  0.0342
  795loPI   PO412380   8.418   3.209   4.534  0.3143 -0.1668  0.0186
  795loPI   GL112381   8.157   3.163   4.875 -0.0514  0.1692  0.0341
  795loPI   GL212382   7.938   2.931   4.866 -0.1508  0.1093  0.3322
  795loPI   C1A12383   8.235   3.122   5.296  0.0445 -0.1110 -0.3330
  795loPI   C2A12384   8.130   3.025   5.760  0.1950  0.0437 -0.1815
  795loPI   C3A12385   7.951   3.057   6.119 -0.2079 -0.1135  0.0510
  795loPI   C4A12386   7.903   3.007   6.494  0.1378 -0.0873  0.3578
  795loPI   C5A12387   7.752   3.186   6.880  0.1078 -0.1707  0.3426
  795loPI   C6A12388   7.385   2.925   7.096 -0.1095  0.1309 -0.0850
  795loPI   C1B12389   7.858   2.801   5.273 -0.1533 -0.0512 -0.4154
  795loPI   C2B12390   7.617   2.922   5.677  0.2291  0.0343 -0.0323
  795loPI   C3B12391   7.436   2.858   6.108  0.3546  0.0811 -0.1284
  795loPI   C4B12392   7.383   2.799   6.631  0.2927  0.0351  0.0686
  796loPI    C112393  16.277  13.323   4.458  0.0398  0.0620  0.2596
  796loPI    C212394  16.036  13.607   4.312 -0.0780 -0.1180  0.0985
  796loPI    C312395  16.057  13.251   4.131  0.3894 -0.0711  0.0486
  796loPI   PO412396  16.213  13.324   4.664  0.2814  0.1772 -0.1241
  796loPI   GL112397  16.426  13.514   5.058 -0.2425 -0.0334 -0.1753
  796loPI   GL212398  16.641  13.284   4.879  0.1193 -0.2155  0.1678
  796loPI   C1A12399  16.551  13.435   5.461  0.1900 -0.0750  0.0133
  796loPI   C2A12400  16.501  13.406   5.909  0.0650 -0.3528 -0.2814
  796loPI   C3A12401  16.424  13.380   6.346 -0.0956 -0.0829 -0.3719
  796loPI   C4A12402  16.300  13.485   6.602  0.3639 -0.2792  0.1262
  796loPI   C5A12403  15.999  13.341   6.883  0.1048  0.0183  0.2276
  796loPI   C6A12404  15.735  13.471   7.288 -0.3264  0.2273 -0.1103
  796loPI   C1B12405  16.948  13.108   5.238 -0.1906  0.2654  0.0164
  796loPI   C2B12406  16.892  13.075   5.661  0.0240 -0.0333 -0.1816
  796loPI   C3B12407  16.916  12.879   6.051 -0.1584 -0.1069 -0.0297
  796loPI   C4B12408  16.693  12.974   6.382 -0.2328  0.0350  0.1457
  797loPI    C112409  14.173   1.859   4.866  0.0050 -0.0985  0.1398
  797loPI    C212410  13.968   1.899   4.524  0.0829  0.1070  0.1158
  797loPI    C312411  14.291   1.664   4.537  0.1601  0.2069  0.0111
  797loPI   PO412412  13.983   2.011   5.055 -0.1892  0.0005 -0.1300
  797loPI   GL112413  14.096   2.204   5.472 -0.1761 -0.0631 -0.0785
  797loPI   GL212414  13.923   1.947   5.592  0.0528  0.0156 -0.1121
  797loPI   C1A12415  14.128   2.179   5.911 -0.1101  0.1598 -0.0943
  797loPI   C2A12416  14.291   2.407   6.239 -0.0773 -0.1093 -0.0413
  797loPI   C3A12417  14.020   2.771   6.477 -0.1089  0.5362  0.2040
  797loPI   C4A12418  13.631   3.057   6.559 -0.0311 -0.2945 -0.0526
  797loPI   C5A12419  13.495   3.238   6.908 -0.1592  0.1295 -0.1493
  797loPI   C6A12420  13.571   3.595   7.176  0.4545  0.0120 -0.0669
  797loPI   C1B12421  14.068   1.654   5.866  0.0992  0.0617 -0.1452
  797loPI   C2B12422  13.954   1.524   6.269 -0.3353  0.3705 -0.0755
  797loPI   C3B12423  13.876   1.386   6.615  0.0502  0.1783  0.2204
  797loPI   C4B12424  13.615   1.040   6.806 -0.2528 -0.3776 -0.2973
  798loPI    C112425   5.306  11.525   5.331  0.0362 -0.1520  0.0575
  798loPI    C212426   5.291  11.656   4.954  0.0972  0.2169  0.1791
  798loPI    C312427   5.458  11.302   5.036 -0.0669  0.0568 -0.1566
  798loPI   PO412428   5.084  11.493   5.427  0.2697 -0.1962 -0.0750
  798loPI   GL112429   5.078  11.336   5.798  0.0749 -0.1463  0.0403
  798loPI   GL212430   4.933  11.138   6.020  0.3949 -0.0459  0.3553
  798loPI   C1A12431   5.112  11.611   6.241 -0.0210 -0.1623 -0.2203
  798loPI   C2A12432   5.096  11.506   6.565 -0.2356 -0.0201  0.0715
  798loPI   C3A12433   5.131  11.391   6.969  0.0653  0.0461 -0.1364
  798loPI   C4A12434   5.179  11.172   7.412  0.0774 -0.3373 -0.1992
  798loPI   C5A12435   5.096  11.148   7.831 -0.2922 -0.1516  0.3742
  798loPI   C6A12436   5.157  10.755   8.156 -0.0970 -0.2025  0.0611
  798loPI   C1B12437   5.285  11.131   6.204  0.1766  0.0758  0.0695
  798loPI   C2B12438   5.554  11.069   6.487  0.1867  0.2652 -0.1362
  798loPI   C3B12439   5.591  11.126   6.944 -0.1342  0.1147  0.0446
  798loPI   C4B12440   5.805  11.188   7.336 -0.0420 -0.0848  0.1861
  799loPI    C112441  13.433   1.742   4.605 -0.2161 -0.0359 -0.1665
  799loPI    C212442  13.509   2.029   4.338 -0.0425  0.0003 -0.0801
  799loPI    C312443  13.586   1.647   4.248 -0.0527  0.0049 -0.1086
  799loPI   PO412444  13.529   1.847   4.808  0.4829  0.0314  0.1247
  799loPI   GL112445  13.280   2.107   5.090  0.3347 -0.0445  0.3565
  799loPI   GL212446  13.527   2.162   5.239  0.2562 -0.1089  0.0916
  799loPI   C1A12447  13.071   2.131   5.497  0.1317 -0.1148  0.2944
  799loPI   C2A12448  12.738   2.165   5.843  0.4566  0.0580 -0.1896
  799loPI   C3A12449  12.586   1.808   6.138  0.1961  0.2888  0.0088
  799loPI   C4A12450  12.583   1.573   6.582 -0.2355 -0.0244  0.2678
  799loPI   C5A12451  12.712   1.386   6.979  0.2381 -0.3634 -0.0746
  799loPI   C6A12452  12.962   1.519   7.364  0.0825 -0.2241  0.2436
  799loPI   C1B12453  13.635   2.362   5.679  0.2846 -0.0463  0.1428
  799loPI   C2B12454  13.625   2.444   6.140  0.0159 -0.3278  0.1416
  799loPI   C3B12455  13.314   2.877   6.218 -0.1413 -0.2225  0.2219
  799loPI   C4B12456  13.127   3.004   6.648  0.1044  0.0637 -0.1595
  800loPI    C112457   9.924   6.939   4.787 -0.1341  0.2137 -0.1703
  800loPI    C212458   9.863   6.767   4.431 -0.0550  0.0874 -0.1234
  800loPI    C312459  10.171   7.017   4.482 -0.1863  0.2670 -0.1993
  800loPI   PO412460  10.034   6.733   5.072  0.1268  0.2182  0.0989
  800loPI   GL112461   9.920   6.835   5.517  0.0342  0.1691  0.0344
  800loPI   GL212462  10.112   6.580   5.504  0.2505 -0.0409  0.2000
  800loPI   C1A12463   9.698   7.015   5.862  0.1402  0.1711 -0.0121
  800loPI   C2A12464   9.500   7.365   5.929 -0.0015 -0.3330  0.0172
  800loPI   C3A12465   9.056   7.522   6.072  0.1477  0.0655 -0.2952
  800loPI   C4A12466   9.030   7.801   6.401  0.1631 -0.2379 -0.0230
  800loPI   C5A12467   9.249   7.878   6.715  0.1681 -0.1741  0.2367
  800loPI   C6A12468   9.280   8.028   7.136 -0.1441  0.1373  0.0659
  800loPI   C1B12469  10.213   6.708   5.922 -0.2604 -0.0513  0.3982
  800loPI   C2B12470  10.158   6.985   6.326 -0.1524 -0.2823 -0.2117
  800loPI   C3B12471  10.333   7.264   6.566  0.0420 -0.0061  0.0990
  800loPI   C4B12472  10.187   7.580   6.668  0.1760  0.0849 -0.2427
  801loPI    C112473   9.544  13.879   4.851 -0.0568 -0.2442  0.0801
  801loPI    C212474   9.249  14.056   5.055 -0.2141 -0.3756 -0.0311
  801loPI    C312475   9.204  13.979   4.665 -0.0053 -0.3356 -0.0642
  801loPI   PO412476   9.729  13.949   5.132  0.0321 -0.2240 -0.1189
  801loPI   GL112477   9.755  14.065   5.531  0.0116 -0.1185  0.0754
  801loPI   GL212478   9.741  14.358   5.644 -0.0119 -0.0230 -0.5407
  801loPI   C1A12479   9.489  13.913   5.913 -0.1602  0.2845  0.2958
  801loPI   C2A12480   9.256  13.757   6.225  0.1239  0.0454 -0.1745
  801loPI   C3A12481   9.060  13.677   6.619  0.1814  0.0179  0.0550
  801loPI   C4A12482   9.030  13.502   6.909  0.0162 -0.3262  0.0950
  801loPI   C5A12483   9.078  13.390   7.315  0.0976 -0.0245 -0.0301
  801loPI   C6A12484   9.045  13.350   7.817 -0.1356  0.0875 -0.2082
  801loPI   C1B12485   9.936  14.151   5.942 -0.2187 -0.0407 -0.0686
  801loPI   C2B12486  10.035  14.094   6.317  0.0330  0.0460  0.0189
  801loPI   C3B12487  10.403  14.031   6.601 -0.0279  0.2317  0.1440
  801loPI   C4B12488  10.396  14.051   7.016  0.1837  0.2469  0.0907
  802loPI    C112489   2.757  16.092   4.494  0.0060 -0.2770  0.2368
  802loPI    C212490   2.472  15.998   4.229  0.1121  0.0384  0.0045
  802loPI    C312491   2.777  15.747   4.293 -0.0257 -0.1353 -0.0139
  802loPI   PO412492   2.613  16.122   4.749 -0.0033 -0.2544 -0.1408
  802loPI   GL112493   2.373  15.964   5.183 -0.0911  0.3102  0.4340
  802loPI   GL212494   2.357  15.723   5.138 -0.4683  0.1106 -0.1183
  802loPI   C1A12495   2.162  16.268   5.590  0.4029 -0.0663  0.0605
  802loPI   C2A12496   2.243  16.293   6.066  0.1090 -0.2910 -0.0635
  802loPI   C3A12497   2.421  16.305   6.463 -0.2474  0.3472 -0.2341
  802loPI   C4A12498   2.707  16.448   6.808 -0.0418  0.2942  0.1290
  802loPI   C5A12499   2.715  16.773   7.126 -0.0354  0.1571 -0.1456
  802loPI   C6A12500   2.726  17.206   7.135 -0.0474  0.0661  0.0278
  802loPI   C1B12501   2.207  15.584   5.576 -0.2356  0.0569  0.3462
  802loPI   C2B12502   2.133  15.768   5.885  0.1158 -0.0217 -0.1171
  802loPI   C3B12503   1.838  15.946   6.190  0.2072  0.3479 -0.0364
  802loPI   C4B12504   1.814  16.066   6.611 -0.0104  0.1201  0.1093
  803loPI    C112505   3.287  16.755   4.658  0.3338 -0.0519  0.1054
  803loPI    C212506   3.331  16.891   4.284 -0.0364  0.1528  0.1316
  803loPI    C312507   3.596  16.992   4.566  0.1552  0.1293 -0.0375
  803loPI   PO412508   3.016  16.896   4.784  0.0176 -0.0883  0.0233
  803loPI   GL112509   2.769  17.100   5.207  0.0296  0.0940 -0.2628
  803loPI   GL212510   2.907  17.301   5.183  0.0499  0.1275  0.1621
  803loPI   C1A12511   2.936  16.812   5.548  0.0778 -0.0952 -0.1735
  803loPI   C2A12512   3.155  16.816   5.959 -0.1083 -0.3854 -0.1125
  803loPI   C3A12513   3.191  16.517   6.396  0.0094 -0.1320  0.2429
  803loPI   C4A12514   3.160  16.220   6.684  0.0257  0.3628 -0.4300
  803loPI   C5A12515   2.788  15.979   6.827 -0.0341  0.1056  0.2107
  803loPI   C6A12516   2.332  16.020   6.956  0.1110 -0.2692 -0.2463
  803loPI   C1B12517   3.078  17.387   5.641  0.0111 -0.1431 -0.0567
  803loPI   C2B12518   2.939  17.649   6.096 -0.1400  0.2042 -0.1792
  803loPI   C3B12519   3.211  17.693   6.532 -0.1232 -0.0528  0.1887
  803loPI   C4B12520   3.419  17.647   6.929 -0.1059  0.4423  0.0896
  804loPI    C112521   2.253  13.978   4.317  0.5003  0.1972  0.1756
  804loPI    C212522   2.445  14.244   4.088  0.2296  0.1296 -0.1368
  804loPI    C312523   2.046  14.252   4.113  0.2380 -0.0554  0.0960
  804loPI   PO412524   2.326  14.045   4.590  0.1678  0.1813 -0.0496
  804loPI   GL112525   2.342  13.976   5.041  0.3248  0.3030  0.1184
  804loPI   GL212526   2.562  13.804   5.276  0.3189 -0.1830 -0.1108
  804loPI   C1A12527   2.158  14.095   5.422 -0.1382 -0.0511  0.1630
  804loPI   C2A12528   2.359  13.992   5.816 -0.3689  0.0944  0.1317
  804loPI   C3A12529   2.397  14.042   6.221  0.1439 -0.1136  0.3202
  804loPI   C4A12530   2.038  14.070   6.439  0.0418  0.4373  0.0004
  804loPI   C5A12531   1.929  14.311   6.802 -0.1013  0.1674 -0.2749
  804loPI   C6A12532   1.866  14.190   7.228 -0.0380  0.0237 -0.1738
  804loPI   C1B12533   2.565  13.551   5.768  0.3673  0.2285 -0.0034
  804loPI   C2B12534   2.686  13.446   6.089 -0.0936 -0.1394  0.2598
  804loPI   C3B12535   2.793  13.436   6.531 -0.0998 -0.0493 -0.1731
  804loPI   C4B12536   2.809  13.571   6.942  0.1639  0.0115 -0.0528
  805loPI    C112537  15.214  11.162   4.741  0.1091  0.0603 -0.0078
  805loPI    C212538  15.195  11.465   4.481  0.2388  0.0446 -0.0360
  805loPI    C312539  14.967  11.141   4.427  0.3096  0.0153 -0.1643
  805loPI   PO412540  15.122  11.222   4.918 -0.4882  0.1229 -0.3759
  805loPI   GL112541  15.074  11.263   5.359 -0.2121 -0.1187  0.2105
  805loPI   GL212542  15.231  11.042   5.334 -0.0547 -0.1701 -0.2384
  805loPI   C1A12543  15.266  11.350   5.787 -0.0953  0.1833  0.0735
  805loPI   C2A12544  15.593  11.554   5.885  0.1118 -0.2489  0.1894
  805loPI   C3A12545  15.839  11.812   6.109 -0.0622 -0.3397 -0.2466
  805loPI   C4A12546  15.749  12.223   6.347  0.2524  0.1977  0.1171
  805loPI   C5A12547  15.734  12.393   6.751  0.2455 -0.1217 -0.2955
  805loPI   C6A12548  15.644  12.624   7.197 -0.2705  0.2288 -0.2063
  805loPI   C1B12549  15.605  10.961   5.707 -0.3314  0.1699 -0.3350
  805loPI   C2B12550  15.531  11.067   6.096  0.1650  0.0683 -0.1411
  805loPI   C3B12551  15.590  11.202   6.526  0.2982  0.4500 -0.0004
  805loPI   C4B12552  15.463  11.023   6.804 -0.0744  0.1412  0.1479
  806loPI    C112553  15.769  19.220   4.367  0.0393  0.1372 -0.0914
  806loPI    C212554  15.526  19.527   4.284  0.0456  0.1623 -0.0182
  806loPI    C312555  15.642  19.279   3.992  0.0352  0.2253 -0.0764
  806loPI   PO412556  15.684  19.142   4.549 -0.1070 -0.0661 -0.1470
  806loPI   GL112557  15.347  18.987   4.772  0.0168 -0.0255 -0.2650
  806loPI   GL212558  15.121  18.911   4.936 -0.0108 -0.0977  0.1055
  806loPI   C1A12559  15.481  19.149   5.198 -0.0353  0.0340  0.4475
  806loPI   C2A12560  15.710  19.149   5.649 -0.0249 -0.1659  0.1818
  806loPI   C3A12561  15.988  18.973   6.086 -0.0069  0.0079  0.0599
  806loPI   C4A12562  15.994  18.654   6.436  0.0895  0.0097  0.1139
  806loPI   C5A12563  16.193  18.305   6.729 -0.0042  0.1779  0.0743
  806loPI   C6A12564  16.149  17.865   6.631 -0.0416 -0.1662 -0.2763
  806loPI   C1B12565  14.993  18.897   5.360  0.2211  0.1096 -0.0930
  806loPI   C2B12566  15.016  19.206   5.616  0.3801  0.3407  0.0267
  806loPI   C3B12567  15.053  19.300   6.055  0.1907  0.2085  0.1228
  806loPI   C4B12568  14.969  19.324   6.484  0.2097  0.0550 -0.1680
  807loPI    C112569  11.040  17.909   4.082  0.1073  0.1231  0.0200
  807loPI    C212570  11.150  18.239   3.884  0.2484  0.0305 -0.0581
  807loPI    C312571  10.933  17.958   3.699  0.1463  0.0693  0.0019
  807loPI   PO412572  11.025  17.984   4.369 -0.1494 -0.2187 -0.2010
  807loPI   GL112573  10.946  17.815   4.741 -0.1528  0.2427 -0.2422
  807loPI   GL212574  10.896  17.475   4.770  0.2511  0.1190  0.4759
  807loPI   C1A12575  11.085  17.902   5.226 -0.3755  0.2253  0.0505
  807loPI   C2A12576  11.130  17.961   5.672  0.2412  0.1013 -0.0012
  807loPI   C3A12577  11.248  17.981   6.144 -0.2982  0.1536 -0.0848
  807loPI   C4A12578  11.209  18.237   6.490  0.2677  0.0976 -0.1425
  807loPI   C5A12579  11.366  18.288   6.943  0.0271  0.0717  0.1385
  807loPI   C6A12580  11.521  18.251   7.339  0.2105  0.1112 -0.0891
  807loPI   C1B12581  10.891  17.364   5.215  0.0783 -0.1781 -0.3981
  807loPI   C2B12582  10.939  17.457   5.593 -0.0384 -0.0219  0.0380
  807loPI   C3B12583  11.061  17.468   5.894  0.0645  0.0766 -0.2577
  807loPI   C4B12584  11.095  17.364   6.263  0.0616 -0.0207 -0.1179
  808loPI    C112585  10.265  16.255   4.397 -0.0934  0.0645 -0.0548
  808loPI    C212586  10.522  16.236   4.091 -0.1415 -0.0434 -0.0889
  808loPI    C312587  10.131  16.177   4.028 -0.1962  0.2717 -0.0628
  808loPI   PO412588  10.489  16.169   4.663  0.0054 -0.1202  0.1097
  808loPI   GL112589  10.568  16.003   5.077  0.1222 -0.2187  0.2064
  808loPI   GL212590  10.582  15.606   5.242  0.2318 -0.0577  0.2406
  808loPI   C1A12591  10.747  15.907   5.560 -0.1520 -0.3077 -0.1579
  808loPI   C2A12592  10.875  15.784   5.996  0.1402  0.1125  0.2220
  808loPI   C3A12593  10.909  15.849   6.361  0.2734 -0.0027  0.0228
  808loPI   C4A12594  10.951  15.758   6.819 -0.2641 -0.3551  0.0621
  808loPI   C5A12595  10.665  15.618   7.174  0.0334  0.1693 -0.3633
  808loPI   C6A12596  10.287  15.532   7.249 -0.0371 -0.1811 -0.0745
  808loPI   C1B12597  10.864  15.427   5.553  0.0150  0.0413  0.0544
  808loPI   C2B12598  10.934  15.202   5.867 -0.0982 -0.0444  0.0822
  808loPI   C3B12599  11.120  15.150   6.383  0.0998  0.3652 -0.0395
  808loPI   C4B12600  11.109  15.294   6.780  0.2253  0.4102  0.1326
  809loPI    C112601  13.089   4.171   4.513 -0.0747  0.4714  0.1060
  809loPI    C212602  12.781   4.026   4.303  0.0147  0.1873  0.1675
  809loPI    C312603  13.116   4.139   4.116  0.1853 -0.2908  0.1685
  809loPI   PO412604  12.925   4.200   4.738 -0.0447  0.1055  0.1055
  809loPI   GL112605  12.751   4.136   5.101  0.3746  0.1370  0.1709
  809loPI   GL212606  12.709   4.467   5.095 -0.0705 -0.0217  0.2674
  809loPI   C1A12607  12.663   4.127   5.519  0.1008  0.2465 -0.1377
  809loPI   C2A12608  12.587   3.826   5.923  0.2859  0.0337 -0.0870
  809loPI   C3A12609  12.764   3.706   6.341  0.0818  0.2352  0.1128
  809loPI   C4A12610  12.667   3.402   6.612 -0.1077  0.1435 -0.0052
  809loPI   C5A12611  12.701   3.249   7.015 -0.4330  0.3557  0.2002
  809loPI   C6A12612  12.739   2.826   7.279  0.0378 -0.1259  0.0161
  809loPI   C1B12613  12.512   4.637   5.499  0.0338  0.2206  0.1678
  809loPI   C2B12614  12.077   4.776   5.646  0.0074 -0.2122  0.2470
  809loPI   C3B12615  11.846   4.654   5.946 -0.1817  0.0365 -0.2342
  809loPI   C4B12616  11.856   4.324   6.165  0.0656 -0.1750 -0.1832
  810loPI    C112617   8.808   4.336   4.672  0.0271 -0.2328 -0.2853
  810loPI    C212618   9.090   4.497   4.438 -0.0550 -0.3667 -0.4788
  810loPI    C312619   9.003   4.108   4.408 -0.0151 -0.4021 -0.1715
  810loPI   PO412620   8.884   4.329   4.998 -0.0724 -0.0850  0.1549
  810loPI   GL112621   8.942   4.646   5.287 -0.2041  0.1504 -0.0319
  810loPI   GL212622   8.833   4.871   5.111 -0.0224 -0.0726 -0.2054
  810loPI   C1A12623   8.948   4.378   5.660  0.0266 -0.1387  0.1975
  810loPI   C2A12624   9.005   4.223   6.072 -0.1102  0.1953  0.1232
  810loPI   C3A12625   8.980   4.061   6.486  0.0660  0.0205 -0.1637
  810loPI   C4A12626   8.909   3.976   6.926 -0.3278  0.0425 -0.0954
  810loPI   C5A12627   8.770   3.730   7.295  0.1191 -0.2113  0.2748
  810loPI   C6A12628   8.665   3.283   7.275  0.1797  0.0322 -0.0047
  810loPI   C1B12629   8.923   5.055   5.518 -0.0330 -0.1491  0.1112
  810loPI   C2B12630   9.059   4.862   5.842  0.1553 -0.2089  0.1448
  810loPI   C3B12631   9.041   4.645   6.308  0.3322 -0.0600  0.0228
  810loPI   C4B12632   9.107   4.533   6.742  0.0340 -0.2013 -0.0226
  811loPI    C112633   7.490  16.845   4.492  0.1665 -0.0265 -0.0684
  811loPI    C212634   7.587  16.667   4.147 -0.0401 -0.1607 -0.0586
  811loPI    C312635   7.564  17.065   4.166 -0.0582 -0.1539 -0.2081
  811loPI   PO412636   7.580  16.766   4.773 -0.0582  0.1961 -0.4058
  811loPI   GL112637   7.624  16.714   5.148  0.0803  0.0694 -0.0546
  811loPI   GL212638   7.771  16.449   5.283  0.2304 -0.4394 -0.1324
  811loPI   C1A12639   7.878  16.824   5.566  0.0388  0.2237  0.0065
  811loPI   C2A12640   7.911  16.759   5.960  0.2340 -0.1524  0.2883
  811loPI   C3A12641   7.868  16.838   6.375 -0.2063  0.1976  0.4487
  811loPI   C4A12642   8.107  16.758   6.782 -0.4339  0.1395  0.1495
  811loPI   C5A12643   7.959  16.680   7.233  0.1986  0.2042  0.1273
  811loPI   C6A12644   7.963  16.813   7.619  0.0249  0.2618 -0.3197
  811loPI   C1B12645   8.133  16.405   5.495 -0.3625  0.0648 -0.4794
  811loPI   C2B12646   8.139  16.329   5.829 -0.1882 -0.0206 -0.0922
  811loPI   C3B12647   8.172  16.441   6.294  0.1217 -0.0641  0.0994
  811loPI   C4B12648   8.390  16.937   6.345 -0.1894  0.1277 -0.2628
  812loPI    C112649  19.451  15.331   4.449  0.0457  0.0194  0.1645
  812loPI    C212650  19.569  15.122   4.129  0.0017 -0.0354  0.1839
  812loPI    C312651  19.684  15.502   4.173 -0.0245 -0.0157  0.0831
  812loPI   PO412652  19.361  15.152   4.624  0.1432 -0.0281 -0.0777
  812loPI   GL112653  19.284  15.091   5.047 -0.1816 -0.0266 -0.0644
  812loPI   GL212654  19.647  14.952   5.053  0.1026  0.0708 -0.1326
  812loPI   C1A12655  19.234  15.449   5.373  0.0841  0.0537  0.2057
  812loPI   C2A12656  19.114  15.337   5.625  0.2757  0.3861 -0.2914
  812loPI   C3A12657  19.161  15.529   6.082  0.1006  0.2465  0.0714
  812loPI   C4A12658  19.065  15.476   6.517 -0.0093 -0.1043 -0.2112
  812loPI   C5A12659  19.361  15.686   6.837 -0.2199 -0.0233 -0.0065
  812loPI   C6A12660  19.418  15.980   7.139  0.0423  0.0422 -0.2750
  812loPI   C1B12661  19.522  15.043   5.484  0.0637 -0.0115  0.0507
  812loPI   C2B12662  19.505  14.846   5.950  0.0591 -0.2731 -0.0264
  812loPI   C3B12663  19.549  14.612   6.334 -0.2121  0.2285 -0.0449
  812loPI   C4B12664  19.791  14.692   6.685  0.0969 -0.1608  0.1282
  813loPI    C112665  10.777   4.796   4.423 -0.1069 -0.1028  0.3124
  813loPI    C212666  10.624   4.554   4.144  0.2559 -0.0830  0.0904
  813loPI    C312667  10.766   4.914   4.041  0.2753 -0.0234  0.3214
  813loPI   PO412668  10.751   4.637   4.744  0.1517  0.0924  0.0289
  813loPI   GL112669  10.880   4.321   4.912 -0.2037 -0.2514  0.1222
  813loPI   GL212670  10.672   4.243   5.126 -0.0293 -0.0475  0.0302
  813loPI   C1A12671  11.133   4.363   5.319  0.0731  0.1591  0.5229
  813loPI   C2A12672  11.342   4.341   5.703 -0.0011 -0.0603  0.3114
  813loPI   C3A12673  11.421   4.568   6.182  0.1305  0.2691  0.2102
  813loPI   C4A12674  11.257   4.763   6.549  0.2125 -0.3164  0.1977
  813loPI   C5A12675  11.394   5.034   6.874 -0.0879  0.5122 -0.2117
  813loPI   C6A12676  11.422   5.201   7.374 -0.2718 -0.0797 -0.2154
  813loPI   C1B12677  10.575   3.980   5.443 -0.3973  0.3567 -0.0097
  813loPI   C2B12678  10.586   3.887   5.861  0.0122 -0.0054  0.1500
  813loPI   C3B12679  10.778   3.935   6.287  0.1591  0.0297  0.2075
  813loPI   C4B12680  10.735   3.925   6.677  0.0341 -0.0428 -0.2714
  814loPI    C112681  15.946   9.949   4.471 -0.0019 -0.1478  0.0426
  814loPI    C212682  16.129  10.002   4.119  0.0084  0.0896  0.0825
  814loPI    C312683  15.729   9.998   4.138  0.0067 -0.1908  0.0305
  814loPI   PO412684  16.034  10.102   4.625  0.1881 -0.0137 -0.1150
  814loPI   GL112685  15.995  10.125   5.029  0.3616 -0.1105  0.1576
  814loPI   GL212686  16.154   9.912   5.117  0.0022  0.1803 -0.1569
  814loPI   C1A12687  15.637  10.137   5.227 -0.0752  0.1532 -0.0814
  814loPI   C2A12688  15.584  10.277   5.650 -0.1517  0.1762 -0.4742
  814loPI   C3A12689  15.697  10.533   5.935  0.1089 -0.0473  0.0019
  814loPI   C4A12690  15.861  10.767   6.303 -0.0785 -0.0483  0.1807
  814loPI   C5A12691  15.927  10.883   6.714 -0.3606  0.3140 -0.4162
  814loPI   C6A12692  15.939  10.738   7.069 -0.0473 -0.2362  0.0411
  814loPI   C1B12693  16.158   9.879   5.559 -0.0383  0.0194 -0.0044
  814loPI   C2B12694  16.036  10.009   5.862  0.3383 -0.0131 -0.1053
  814loPI   C3B12695  16.013   9.892   6.363 -0.1907 -0.1089 -0.4023
  814loPI   C4B12696  16.298   9.870   6.777  0.3858 -0.1917 -0.2667
  815loPI    C112697   4.168  12.062   4.806 -0.2081  0.1444 -0.0165
  815loPI    C212698   4.107  12.455   4.842 -0.4579  0.1191 -0.1422
  815loPI    C312699   4.063  12.278   4.487 -0.2456 -0.0072 -0.1076
  815loPI   PO412700   4.412  12.095   5.068  0.0607  0.0568  0.3963
  815loPI   GL112701   4.413  12.195   5.429  0.2851  0.1378 -0.0805
  815loPI   GL212702   4.231  12.499   5.456 -0.0216 -0.0176 -0.0718
  815loPI   C1A12703   4.260  12.042   5.818  0.0826  0.0433 -0.3053
  815loPI   C2A12704   3.873  12.018   6.124  0.0638  0.3748  0.1847
  815loPI   C3A12705   3.715  11.754   6.492  0.4019 -0.0536 -0.0014
  815loPI   C4A12706   3.742  11.719   6.974 -0.0105 -0.0750  0.2353
  815loPI   C5A12707   3.536  11.893   7.339  0.0696 -0.0558 -0.1086
  815loPI   C6A12708   3.609  11.973   7.812  0.3089 -0.0663 -0.2560
  815loPI   C1B12709   3.852  12.331   5.749 -0.2607  0.0353  0.3299
  815loPI   C2B12710   3.699  12.530   6.082  0.0100 -0.1352 -0.1810
  815loPI   C3B12711   3.904  12.529   6.409  0.1676  0.1876  0.0069
  815loPI   C4B12712   4.021  12.584   6.811  0.2507 -0.1332 -0.0525
  816loPI    C112713   4.035   2.519   4.979  0.0456 -0.0879  0.2092
  816loPI    C212714   3.798   2.206   4.900 -0.0705  0.0153  0.1457
  816loPI    C312715   4.087   2.309   4.642 -0.1632  0.0831  0.0680
  816loPI   PO412716   3.918   2.612   5.191 -0.2671 -0.2308 -0.3711
  816loPI   GL112717   3.856   2.867   5.564 -0.1829 -0.1707 -0.0401
  816loPI   GL212718   3.540   2.800   5.583  0.1519 -0.1516 -0.1480
  816loPI   C1A12719   3.987   3.071   6.020 -0.2195  0.0970  0.0905
  816loPI   C2A12720   4.231   3.256   6.388  0.0984 -0.1067  0.1793
  816loPI   C3A12721   4.227   3.574   6.709  0.1919  0.1481 -0.1307
  816loPI   C4A12722   4.062   3.954   6.896  0.2397 -0.0336  0.1448
  816loPI   C5A12723   4.019   4.095   7.262  0.1083 -0.2269 -0.2715
  816loPI   C6A12724   4.092   4.213   7.667  0.0946 -0.0357  0.1699
  816loPI   C1B12725   3.172   2.850   5.847 -0.2127  0.2110  0.0002
  816loPI   C2B12726   2.982   2.962   6.262 -0.0318  0.1202 -0.1078
  816loPI   C3B12727   3.061   2.929   6.586  0.0024  0.0187  0.0996
  816loPI   C4B12728   3.113   2.452   6.748  0.0163 -0.2112  0.0365
  817loPI    C112729   6.669   3.808   4.486  0.0873  0.3156 -0.1098
  817loPI    C212730   7.007   4.023   4.480  0.2761  0.0272 -0.0320
  817loPI    C312731   6.993   3.666   4.299 -0.0219  0.0834 -0.1264
  817loPI   PO412732   6.661   3.730   4.810  0.2449 -0.0800 -0.1949
  817loPI   GL112733   6.799   3.703   5.218 -0.1287 -0.1221 -0.0012
  817loPI   GL212734   7.038   4.013   5.194  0.0425  0.1621  0.2164
  817loPI   C1A12735   6.769   3.720   5.556  0.0498  0.1914 -0.2462
  817loPI   C2A12736   6.731   3.780   5.964  0.1751  0.0911  0.4216
  817loPI   C3A12737   6.471   3.858   6.364 -0.0047 -0.1298  0.0208
  817loPI   C4A12738   6.467   3.943   6.892 -0.0553  0.3277 -0.1201
  817loPI   C5A12739   6.477   4.300   7.106 -0.2089 -0.1072  0.0860
  817loPI   C6A12740   6.959   4.548   7.189  0.0757  0.1687 -0.0842
  817loPI   C1B12741   7.009   4.172   5.644  0.2801  0.1355  0.0851
  817loPI   C2B12742   7.070   4.110   6.028 -0.2065  0.0010 -0.0213
  817loPI   C3B12743   6.967   4.015   6.528 -0.0136  0.0985 -0.0163
  817loPI   C4B12744   6.931   4.090   6.934 -0.0083  0.2979 -0.1196
  818loPI    C112745  16.949  17.695   3.822  0.1789  0.1408  0.3437
  818loPI    C212746  16.677  17.812   3.554  0.2531 -0.2078  0.1103
  818loPI    C312747  16.860  18.083   3.784 -0.0461  0.0624  0.0372
  818loPI   PO412748  16.834  17.525   4.000  0.0413 -0.0502 -0.3575
  818loPI   GL112749  16.992  17.458   4.390  0.3377 -0.2563  0.3369
  818loPI   GL212750  17.064  17.132   4.403  0.2787 -0.1205  0.1405
  818loPI   C1A12751  16.914  17.526   4.747  0.2070 -0.2098 -0.0562
  818loPI   C2A12752  16.933  17.447   5.180 -0.0880 -0.0415 -0.0990
  818loPI   C3A12753  16.849  17.246   5.609 -0.1049 -0.2290 -0.0416
  818loPI   C4A12754  16.795  17.027   5.956  0.0593 -0.1254  0.2277
  818loPI   C5A12755  16.707  16.990   6.384 -0.1820 -0.1540  0.0569
  818loPI   C6A12756  16.610  17.029   6.846 -0.0191 -0.1265 -0.0782
  818loPI   C1B12757  16.882  17.011   4.805  0.0171 -0.0481 -0.1185
  818loPI   C2B12758  16.483  17.247   5.092 -0.1756 -0.1979  0.3268
  818loPI   C3B12759  16.455  17.624   5.446  0.1676  0.1731 -0.0673
  818loPI   C4B12760  16.099  17.928   5.337 -0.1357 -0.5775  0.0548
  819loPI    C112761   9.019   0.697   4.435 -0.0744 -0.0107  0.1014
  819loPI    C212762   8.737   0.496   4.235  0.0986 -0.0082 -0.1509
  819loPI    C312763   9.065   0.306   4.364  0.0235  0.0066  0.0671
  819loPI   PO412764   8.889   0.784   4.640 -0.1725  0.0649 -0.2331
  819loPI   GL112765   8.736   0.704   5.153 -0.1173  0.1693  0.4069
  819loPI   GL212766   8.974   0.524   5.190  0.2283  0.1670 -0.0845
  819loPI   C1A12767   8.462   0.609   5.425  0.0027  0.0023  0.2234
  819loPI   C2A12768   8.526   0.627   5.763  0.0049  0.0048 -0.0628
  819loPI   C3A12769   8.755   0.610   6.115 -0.1500 -0.1168 -0.0789
  819loPI   C4A12770   8.849   0.737   6.488  0.0885  0.0008 -0.2714
  819loPI   C5A12771   8.704   0.995   6.793 -0.1726  0.1923  0.4613
  819loPI   C6A12772   8.807   1.285   7.105 -0.1059  0.1829  0.2662
  819loPI   C1B12773   9.031   0.597   5.653  0.0178 -0.3945  0.1052
  819loPI   C2B12774   9.217   0.707   6.083 -0.0796  0.2812 -0.0010
  819loPI   C3B12775   9.265   0.880   6.372 -0.0609 -0.0760 -0.0875
  819loPI   C4B12776   9.203   1.028   6.832  0.0942 -0.3515 -0.1062
  820loPI    C112777   0.843  14.126   4.123  0.0330 -0.0951  0.2337
  820loPI    C212778   0.580  14.206   3.832  0.1856  0.0280  0.1277
  820loPI    C312779   0.960  14.121   3.740  0.2228  0.0167  0.2890
  820loPI   PO412780   0.683  13.998   4.319 -0.1239  0.1830  0.1180
  820loPI   GL112781   0.512  13.956   4.753 -0.3470 -0.1732 -0.2649
  820loPI   GL212782   0.751  13.959   5.012  0.0455 -0.0909 -0.0290
  820loPI   C1A12783   0.124  13.925   5.130  0.2551  0.0365 -0.0885
  820loPI   C2A12784  -0.271  14.124   5.183  0.0785 -0.1348 -0.0810
  820loPI   C3A12785  -0.599  14.400   5.400  0.1531  0.1884 -0.1916
  820loPI   C4A12786  -0.578  14.608   5.721 -0.2868 -0.0090  0.0948
  820loPI   C5A12787  -0.448  14.722   6.164  0.1036 -0.1231  0.1668
  820loPI   C6A12788  -0.172  15.089   6.482  0.0587  0.5837  0.1192
  820loPI   C1B12789   0.888  14.156   5.353  0.1392 -0.1853  0.1770
  820loPI   C2B12790   0.724  14.175   5.673 -0.3140 -0.1971  0.1657
  820loPI   C3B12791   0.693  14.004   6.025 -0.0438  0.3118 -0.1641
  820loPI   C4B12792   0.726  13.926   6.431 -0.2541 -0.2106 -0.3365
  821loPI    C112793  15.147  13.237   4.386 -0.0071 -0.2256  0.0559
  821loPI    C212794  15.493  13.191   4.190  0.1037  0.2729  0.1212
  821loPI    C312795  15.151  13.069   4.023  0.2881 -0.0671 -0.0175
  821loPI   PO412796  15.221  13.210   4.718  0.1588  0.1064 -0.0588
  821loPI   GL112797  15.054  13.335   5.181  0.1055  0.1044  0.1024
  821loPI   GL212798  15.084  12.901   5.317 -0.0346 -0.3466  0.2504
  821loPI   C1A12799  15.056  13.507   5.668  0.0456 -0.2157  0.1652
  821loPI   C2A12800  14.891  13.701   5.938  0.0823 -0.0317 -0.0320
  821loPI   C3A12801  14.944  13.886   6.361  0.2109  0.1276  0.3400
  821loPI   C4A12802  14.985  14.107   6.655  0.1207 -0.0656 -0.1054
  821loPI   C5A12803  15.171  14.194   7.020 -0.0518  0.0227  0.0706
  821loPI   C6A12804  15.433  14.480   7.257 -0.0532  0.1599  0.1457
  821loPI   C1B12805  14.883  13.039   5.643  0.1974  0.2135  0.1586
  821loPI   C2B12806  14.836  13.125   6.072 -0.0967  0.0153  0.0665
  821loPI   C3B12807  14.887  13.267   6.506  0.1341 -0.0732 -0.2424
  821loPI   C4B12808  14.995  13.631   6.798 -0.1123 -0.1747 -0.0817
  822loPI    C112809   7.721  15.369   4.692  0.0294  0.0846  0.1057
  822loPI    C212810   7.967  15.168   4.449 -0.3886 -0.4706  0.1222
  822loPI    C312811   7.610  15.289   4.316 -0.2624  0.0128  0.2047
  822loPI   PO412812   7.766  15.188   4.937  0.2069 -0.1239  0.2513
  822loPI   GL112813   7.662  15.207   5.329 -0.4688  0.0893 -0.0941
  822loPI   GL212814   7.859  15.433   5.382  0.0223 -0.0091  0.0685
  822loPI   C1A12815   7.637  15.012   5.771  0.0471 -0.0685 -0.0098
  822loPI   C2A12816   7.788  14.724   6.116  0.0338 -0.2736  0.0420
  822loPI   C3A12817   7.588  14.413   6.379  0.2732  0.0293 -0.2604
  822loPI   C4A12818   7.269  14.413   6.653 -0.3752  0.0154  0.2149
  822loPI   C5A12819   7.298  14.500   7.088  0.1649  0.3611  0.2729
  822loPI   C6A12820   7.447  14.806   7.421  0.2526 -0.0944  0.0738
  822loPI   C1B12821   8.045  15.803   5.699 -0.0115 -0.1382 -0.4001
  822loPI   C2B12822   7.995  15.956   6.097 -0.2175  0.2328 -0.2543
  822loPI   C3B12823   8.008  16.018   6.566 -0.0450  0.0726  0.1724
  822loPI   C4B12824   8.222  16.257   6.811 -0.0049 -0.0045  0.2101
  823loPI    C112825   5.410   7.471   4.765  0.1105  0.0708  0.0946
  823loPI    C212826   5.525   7.183   5.018  0.2224  0.0793  0.0539
  823loPI    C312827   5.256   7.103   4.733  0.3080 -0.0049 -0.0040
  823loPI   PO412828   5.550   7.688   4.863 -0.0630 -0.3359  0.1353
  823loPI   GL112829   5.454   7.603   5.304 -0.4186 -0.3713 -0.1097
  823loPI   GL212830   5.448   8.014   5.314 -0.0539 -0.1204 -0.1465
  823loPI   C1A12831   5.528   7.429   5.808 -0.0418  0.2158  0.0336
  823loPI   C2A12832   5.503   7.473   6.174 -0.1421  0.4279  0.3396
  823loPI   C3A12833   5.427   7.464   6.597  0.0768 -0.0863  0.1393
  823loPI   C4A12834   5.444   7.257   6.989 -0.0079 -0.1235 -0.0222
  823loPI   C5A12835   5.649   6.898   7.332 -0.2093 -0.2255  0.2382
  823loPI   C6A12836   5.448   6.597   7.409  0.1581  0.0692  0.1196
  823loPI   C1B12837   5.520   7.975   5.789  0.3402 -0.2848 -0.1754
  823loPI   C2B12838   5.409   7.988   6.236  0.1678 -0.1630  0.2110
  823loPI   C3B12839   5.499   7.948   6.687  0.0291  0.1054 -0.2152
  823loPI   C4B12840   5.533   7.811   7.139  0.1682  0.0573  0.0577
  824loPI    C112841   8.391  10.933   4.679  0.1871  0.1205 -0.0595
  824loPI    C212842   8.193  10.586   4.656  0.2274  0.0934 -0.0002
  824loPI    C312843   8.075  10.899   4.437  0.0211  0.1251  0.1538
  824loPI   PO412844   8.439  10.932   4.925  0.0856  0.1295 -0.2167
  824loPI   GL112845   8.432  10.714   5.278  0.0106  0.0750  0.0712
  824loPI   GL212846   8.498  10.646   5.589 -0.3886 -0.1210 -0.1522
  824loPI   C1A12847   8.059  10.580   5.485  0.0144  0.0172 -0.2911
  824loPI   C2A12848   8.067  10.411   5.988  0.0842  0.0186 -0.0099
  824loPI   C3A12849   8.050  10.562   6.466 -0.2427  0.0399 -0.0497
  824loPI   C4A12850   8.151  10.946   6.707 -0.2830 -0.2973  0.0955
  824loPI   C5A12851   8.469  11.216   7.130  0.0623  0.0359 -0.0076
  824loPI   C6A12852   8.796  11.074   7.466 -0.0073 -0.0253  0.0542
  824loPI   C1B12853   8.473  10.737   6.045 -0.0886  0.1916  0.1448
  824loPI   C2B12854   8.567  10.855   6.478 -0.2165  0.1283  0.0278
  824loPI   C3B12855   8.808  10.797   6.935  0.2843 -0.2407 -0.1682
  824loPI   C4B12856   9.098  10.784   7.248  0.1536 -0.2876 -0.2818
  825loPI    C112857  11.390  12.384   4.347  0.0282 -0.3069  0.0735
  825loPI    C212858  11.629  12.079   4.245  0.1595 -0.1056 -0.2376
  825loPI    C312859  11.481  12.321   3.963 -0.1524 -0.0323 -0.0175
  825loPI   PO412860  11.433  12.436   4.528  0.0161 -0.0248  0.1730
  825loPI   GL112861  11.599  12.439   4.967  0.0216  0.2165 -0.0470
  825loPI   GL212862  11.433  12.703   5.024  0.1096 -0.1797  0.1474
  825loPI   C1A12863  11.751  12.395   5.422 -0.3547 -0.0894 -0.4345
  825loPI   C2A12864  11.819  12.206   5.780  0.0332  0.1666  0.0564
  825loPI   C3A12865  11.876  12.129   6.173 -0.1690 -0.0563 -0.0111
  825loPI   C4A12866  11.954  11.896   6.487 -0.1236  0.0019 -0.2434
  825loPI   C5A12867  12.151  11.766   6.871 -0.0390 -0.2624  0.0068
  825loPI   C6A12868  12.337  11.961   7.239 -0.5173  0.1804 -0.1373
  825loPI   C1B12869  11.279  12.563   5.499  0.0474 -0.1777  0.0863
  825loPI   C2B12870  11.547  12.579   5.873 -0.1118 -0.1624 -0.2251
  825loPI   C3B12871  11.598  12.574   6.234 -0.1324 -0.1000 -0.1058
  825loPI   C4B12872  11.445  12.733   6.571  0.0870  0.1009 -0.1592
  826loPI    C112873   4.949   8.564   4.687 -0.0925 -0.1051 -0.1178
  826loPI    C212874   4.790   8.329   4.405 -0.1862  0.0356 -0.1833
  826loPI    C312875   4.935   8.689   4.307  0.0197 -0.0216 -0.0949
  826loPI   PO412876   5.099   8.414   4.879  0.1470  0.3986 -0.1296
  826loPI   GL112877   5.269   8.500   5.258  0.1285 -0.0900 -0.3110
  826loPI   GL212878   5.035   8.454   5.431  0.3804 -0.0165 -0.0404
  826loPI   C1A12879   5.480   8.524   5.626 -0.0417  0.1047 -0.0666
  826loPI   C2A12880   5.362   8.455   6.046 -0.1304  0.2834  0.0541
  826loPI   C3A12881   5.274   8.392   6.481 -0.0163 -0.0261 -0.0789
  826loPI   C4A12882   5.192   8.309   6.911 -0.2790 -0.1542 -0.0735
  826loPI   C5A12883   5.268   8.208   7.336  0.0560  0.2249 -0.0217
  826loPI   C6A12884   5.604   8.094   7.672 -0.2695  0.0897  0.1650
  826loPI   C1B12885   5.023   8.129   5.784 -0.0622  0.2479  0.2695
  826loPI   C2B12886   4.897   8.173   6.156 -0.0753  0.0154  0.1401
  826loPI   C3B12887   4.649   8.128   6.598 -0.2882 -0.1984 -0.2184
  826loPI   C4B12888   4.680   8.120   7.052  0.2492 -0.1800  0.1322
  827loPI    C112889   2.144   9.381   4.873  0.1067  0.2394 -0.0821
  827loPI    C212890   2.448   9.551   4.677  0.1352  0.0933 -0.1663
  827loPI    C312891   2.324   9.185   4.575 -0.0945  0.1671 -0.1579
  827loPI   PO412892   2.184   9.298   5.127  0.1455 -0.2042 -0.0067
  827loPI   GL112893   2.457   9.253   5.561 -0.1119  0.1725 -0.1605
  827loPI   GL212894   2.350   9.156   5.728  0.0326 -0.1141  0.0132
  827loPI   C1A12895   2.169   9.571   5.703 -0.0953  0.3628  0.2913
  827loPI   C2A12896   1.917   9.586   6.046 -0.0331 -0.1659  0.2087
  827loPI   C3A12897   1.620   9.603   6.392 -0.1951 -0.1316  0.0646
  827loPI   C4A12898   1.559   9.831   6.715 -0.0551 -0.0078  0.2850
  827loPI   C5A12899   1.389  10.008   6.964  0.0722 -0.1174  0.0285
  827loPI   C6A12900   1.317  10.393   7.295 -0.1205 -0.0544  0.0083
  827loPI   C1B12901   2.230   9.239   6.133 -0.5623  0.0411 -0.2660
  827loPI   C2B12902   2.075   9.037   6.457 -0.0565 -0.1450  0.2402
  827loPI   C3B12903   2.193   9.028   6.878 -0.2158 -0.0894 -0.1105
  827loPI   C4B12904   2.035   8.921   7.242 -0.1344  0.2616 -0.0019
  828loPI    C112905   2.793  14.125   4.757 -0.0749  0.0719 -0.1282
  828loPI    C212906   2.868  14.415   4.491 -0.1757 -0.1630 -0.4188
  828loPI    C312907   2.854  14.033   4.372 -0.0642 -0.2885 -0.0440
  828loPI   PO412908   2.853  14.264   5.051 -0.2071  0.1459  0.3214
  828loPI   GL112909   2.983  14.165   5.417 -0.0956 -0.0279 -0.1028
  828loPI   GL212910   2.775  14.221   5.561 -0.0892  0.0547 -0.2143
  828loPI   C1A12911   3.225  14.355   5.736  0.0256 -0.3965 -0.3785
  828loPI   C2A12912   3.336  14.199   6.118  0.3214  0.1797  0.1703
  828loPI   C3A12913   3.465  13.947   6.479  0.2115  0.0708  0.0433
  828loPI   C4A12914   3.591  13.859   6.962 -0.4603  0.0403 -0.0897
  828loPI   C5A12915   3.673  13.783   7.398  0.2627  0.1106 -0.1219
  828loPI   C6A12916   3.991  13.938   7.647  0.3647 -0.0137  0.0113
  828loPI   C1B12917   2.772  14.355   6.080 -0.2856  0.1831  0.1969
  828loPI   C2B12918   2.986  14.349   6.521 -0.1021  0.0574 -0.2651
  828loPI   C3B12919   2.943  14.462   6.962  0.0833 -0.3378 -0.0863
  828loPI   C4B12920   3.103  14.667   7.263  0.3181 -0.2074 -0.0064
  829loPI    C112921   1.341   6.166   4.754  0.0701  0.0063  0.1039
  829loPI    C212922   0.995   6.081   4.571  0.1298  0.0013 -0.0075
  829loPI    C312923   1.296   6.245   4.364  0.1247  0.1934  0.1346
  829loPI   PO412924   1.255   6.325   4.957 -0.2179  0.3454 -0.1583
  829loPI   GL112925   1.276   6.427   5.366 -0.4359 -0.1714 -0.0325
  829loPI   GL212926   1.462   6.677   5.568  0.1107  0.2283  0.1294
  829loPI   C1A12927   1.211   6.121   5.564 -0.0793  0.1610  0.1816
  829loPI   C2A12928   0.895   6.078   5.871  0.1868 -0.0393  0.0489
  829loPI   C3A12929   0.745   5.916   6.261 -0.2828 -0.2503  0.1579
  829loPI   C4A12930   0.419   5.908   6.566  0.0470 -0.1067 -0.5362
  829loPI   C5A12931   0.535   6.184   6.900 -0.0666 -0.0202  0.0710
  829loPI   C6A12932   0.567   6.401   7.224 -0.1834 -0.1771 -0.3254
  829loPI   C1B12933   1.677   6.934   5.807  0.0814  0.1926  0.0390
  829loPI   C2B12934   1.708   6.739   6.153  0.2413  0.1380 -0.1528
  829loPI   C3B12935   1.679   6.917   6.632  0.3865 -0.0681  0.1251
  829loPI   C4B12936   1.665   6.902   7.071 -0.1565  0.1855  0.1787
  830loPI    C112937   5.790  17.405   5.031  0.2113 -0.1606  0.0360
  830loPI    C212938   5.586  17.492   4.698 -0.1492 -0.3991  0.1893
  830loPI    C312939   5.978  17.569   4.717 -0.2170  0.0638 -0.1114
  830loPI   PO412940   5.665  17.546   5.199 -0.1100 -0.3673 -0.0733
  830loPI   GL112941   5.435  17.883   5.316  0.0320  0.0602 -0.0261
  830loPI   GL212942   5.606  18.256   5.315 -0.0959  0.0251 -0.0137
  830loPI   C1A12943   5.532  17.892   5.796 -0.1872 -0.3180 -0.1358
  830loPI   C2A12944   5.742  17.674   6.057 -0.0763  0.1824 -0.0147
  830loPI   C3A12945   5.859  17.486   6.487  0.2263 -0.3103 -0.0243
  830loPI   C4A12946   6.114  17.688   6.734  0.2369  0.1188 -0.2177
  830loPI   C5A12947   6.500  17.897   6.932  0.1616 -0.1328 -0.0260
  830loPI   C6A12948   6.661  18.200   7.316 -0.0443  0.0800  0.1685
  830loPI   C1B12949   5.508  18.419   5.702  0.1669 -0.1846  0.4631
  830loPI   C2B12950   5.592  18.460   6.095 -0.0391 -0.1454 -0.2134
  830loPI   C3B12951   5.648  18.474   6.575 -0.0268 -0.0205  0.1785
  830loPI   C4B12952   5.450  18.339   7.038 -0.0880 -0.2831  0.3620
  831loPI    C112953  11.686   0.767   4.344  0.0254  0.1765 -0.0189
  831loPI    C212954  11.526   1.030   4.090 -0.2345 -0.0929 -0.1411
  831loPI    C312955  11.678   0.686   3.953  0.0959 -0.0143  0.0175
  831loPI   PO412956  11.579   0.697   4.581 -0.1235 -0.1975  0.1538
  831loPI   GL112957  11.542   0.427   4.917 -0.2327  0.0391 -0.1519
  831loPI   GL212958  11.478   0.095   4.845 -0.0122 -0.0804  0.3151
  831loPI   C1A12959  11.349   0.578   5.360 -0.3063  0.1603 -0.1669
  831loPI   C2A12960  11.218   0.437   5.746 -0.3185  0.0645 -0.0724
  831loPI   C3A12961  11.021   0.458   6.177  0.2758  0.0311 -0.0741
  831loPI   C4A12962  10.652   0.612   6.377 -0.3156  0.0935 -0.3044
  831loPI   C5A12963  10.318   0.651   6.159  0.2945 -0.0488 -0.3636
  831loPI   C6A12964  10.055   0.602   5.838 -0.0387  0.1671 -0.0807
  831loPI   C1B12965  11.488   0.089   5.328  0.1846  0.0273  0.1030
  831loPI   C2B12966  11.668   0.239   5.793  0.0082  0.2778  0.0142
  831loPI   C3B12967  11.671   0.055   6.092  0.0286 -0.1339  0.4179
  831loPI   C4B12968  11.724  -0.055   6.425  0.1961 -0.0592  0.1167
  832loPI    C112969   6.529  14.695   4.855 -0.1023 -0.1221  0.0183
  832loPI    C212970   6.873  14.689   5.059 -0.0986 -0.1049  0.0125
  832loPI    C312971   6.757  14.367   4.852 -0.0311 -0.0724 -0.0763
  832loPI   PO412972   6.351  14.894   5.070  0.1252  0.2498  0.0391
  832loPI   GL112973   6.638  14.933   5.403 -0.0900  0.3910 -0.1692
  832loPI   GL212974   6.588  15.274   5.414  0.3688 -0.0066 -0.0701
  832loPI   C1A12975   6.382  14.643   5.772 -0.0020 -0.1051 -0.1056
  832loPI   C2A12976   6.380  14.343   6.086 -0.0930  0.0492 -0.0438
  832loPI   C3A12977   6.163  14.336   6.527  0.2938  0.1454 -0.0752
  832loPI   C4A12978   6.373  14.512   6.844  0.1959  0.0934 -0.0831
  832loPI   C5A12979   6.283  14.846   7.146  0.1219  0.1585  0.0771
  832loPI   C6A12980   5.959  15.071   7.367 -0.1840  0.3083 -0.0390
  832loPI   C1B12981   6.496  15.242   5.815  0.1147  0.1305  0.0741
  832loPI   C2B12982   6.651  15.230   6.175  0.1056  0.2357  0.1309
  832loPI   C3B12983   6.411  15.222   6.603 -0.0167  0.1517 -0.2157
  832loPI   C4B12984   5.957  15.214   6.869  0.0513 -0.1045 -0.1262
  833loPI    C112985  13.404  18.786   3.991 -0.0609 -0.1107  0.0210
  833loPI    C212986  13.217  18.660   4.321 -0.1011 -0.2941 -0.0703
  833loPI    C312987  13.326  19.043   4.287 -0.1007 -0.2729  0.1529
  833loPI   PO412988  13.695  18.664   4.052 -0.0106 -0.2071 -0.0097
  833loPI   GL112989  13.871  18.631   4.500 -0.0032 -0.0342 -0.0463
  833loPI   GL212990  13.690  18.321   4.387 -0.0693  0.1673  0.1119
  833loPI   C1A12991  13.968  18.706   4.922  0.0120 -0.1641  0.2722
  833loPI   C2A12992  13.974  18.789   5.396  0.1495  0.0506 -0.0723
  833loPI   C3A12993  13.990  18.669   5.675  0.0502 -0.2798 -0.2733
  833loPI   C4A12994  14.312  18.518   5.937 -0.1226 -0.1376  0.1823
  833loPI   C5A12995  14.574  18.361   6.227 -0.0021 -0.1484  0.0006
  833loPI   C6A12996  14.889  18.372   6.553 -0.0942 -0.2606 -0.1340
  833loPI   C1B12997  13.421  18.549   4.735 -0.3641 -0.0553  0.0017
  833loPI   C2B12998  13.404  18.732   5.197 -0.1558  0.0628  0.2355
  833loPI   C3B12999  13.560  18.940   5.595 -0.0552  0.2767 -0.3680
  833loPI   C4B13000  13.540  18.857   6.044 -0.0716 -0.4062  0.1524
  834loPI    C113001  10.617   8.164   4.924  0.0065  0.2671 -0.0112
  834loPI    C213002  10.362   8.162   4.616 -0.0955  0.0701  0.0729
  834loPI    C313003  10.750   8.234   4.554 -0.0703 -0.2267 -0.1396
  834loPI   PO413004  10.559   8.001   5.075 -0.2851  0.2027 -0.1843
  834loPI   GL113005  10.329   8.013   5.406 -0.0414 -0.1073 -0.0026
  834loPI   GL213006  10.663   7.896   5.555  0.0091 -0.2320 -0.0824
  834loPI   C1A13007  10.037   7.804   5.702 -0.2395 -0.1487  0.0556
  834loPI   C2A13008  10.135   7.753   6.192  0.1907 -0.1522  0.6614
  834loPI   C3A13009  10.190   8.040   6.568 -0.3872 -0.0384  0.3356
  834loPI   C4A13010  10.357   7.928   6.932 -0.0233 -0.1548 -0.0104
  834loPI   C5A13011  10.671   7.899   7.257  0.2269 -0.1016 -0.1810
  834loPI   C6A13012  11.004   7.698   7.232  0.2442  0.1023 -0.2498
  834loPI   C1B13013  10.811   8.019   5.915 -0.0047  0.0926  0.0189
  834loPI   C2B13014  11.025   8.035   6.272 -0.0289  0.0696  0.2720
  834loPI   C3B13015  11.202   8.351   6.638  0.0842  0.1372 -0.1790
  834loPI   C4B13016  11.033   8.661   6.886 -0.2529  0.1022 -0.2463
  835loPI    C113017   3.423  17.731   4.890 -0.1286 -0.0627  0.1176
  835loPI    C213018   3.286  18.097   4.974 -0.1082 -0.0272 -0.0031
  835loPI    C313019   3.216  17.934   4.615  0.2685  0.0422 -0.1122
  835loPI   PO413020   3.646  17.733   4.970  0.0349  0.0705 -0.2694
  835loPI   GL113021   3.806  17.507   5.245 -0.0092 -0.0087 -0.1780
  835loPI   GL213022   3.466  17.495   5.373 -0.1206 -0.1396 -0.0713
  835loPI   C1A13023   3.970  17.296   5.641 -0.3249 -0.0920 -0.1882
  835loPI   C2A13024   3.958  17.206   6.145 -0.1542  0.0016  0.0958
  835loPI   C3A13025   4.057  17.165   6.651  0.2524  0.0102 -0.3489
  835loPI   C4A13026   4.117  17.436   7.013 -0.1516 -0.1175 -0.1560
  835loPI   C5A13027   4.171  17.726   7.369 -0.3457 -0.2881  0.1315
  835loPI   C6A13028   4.255  18.104   7.597 -0.1662 -0.1365  0.2715
  835loPI   C1B13029   3.473  17.047   5.645  0.0039 -0.2566  0.3126
  835loPI   C2B13030   3.688  16.762   6.007  0.3213 -0.2635 -0.3351
  835loPI   C3B13031   3.782  16.815   6.394  0.3338  0.0312 -0.0826
  835loPI   C4B13032   3.478  16.814   6.664  0.2581  0.0049  0.0397
  836loPI    C113033   5.852   4.150   4.504 -0.1438  0.0502  0.1119
  836loPI    C213034   5.774   3.863   4.237  0.3083  0.1978 -0.1921
  836loPI    C313035   5.580   4.212   4.218 -0.0009  0.0401 -0.0274
  836loPI   PO413036   5.851   4.064   4.711 -0.0703 -0.3584 -0.1567
  836loPI   GL113037   5.611   4.083   5.131  0.0001 -0.0034  0.0807
  836loPI   GL213038   5.477   3.765   5.194 -0.0265 -0.0674 -0.2580
  836loPI   C1A13039   5.521   4.229   5.487 -0.1119 -0.2453  0.1924
  836loPI   C2A13040   5.232   4.199   5.875  0.2919  0.1264 -0.0229
  836loPI   C3A13041   4.861   4.209   6.167  0.1612 -0.0515  0.0733
  836loPI   C4A13042   4.676   4.212   6.549 -0.1969 -0.1367  0.0881
  836loPI   C5A13043   4.786   4.374   6.977  0.1368 -0.0702  0.0911
  836loPI   C6A13044   4.919   4.722   7.227  0.0810 -0.0599  0.2033
  836loPI   C1B13045   5.361   3.742   5.639  0.1433  0.2225  0.2669
  836loPI   C2B13046   5.447   3.815   6.079  0.3015 -0.3051 -0.0905
  836loPI   C3B13047   5.560   3.933   6.567 -0.0793  0.1374 -0.0716
  836loPI   C4B13048   5.667   4.310   6.804  0.1528 -0.0293  0.0532
  837loPI    C113049  12.419   2.480   4.344  0.3021  0.1461  0.0046
  837loPI    C213050  12.328   2.862   4.418 -0.1809 -0.0207  0.3149
  837loPI    C313051  12.319   2.724   4.043 -0.0372  0.2612  0.2051
  837loPI   PO413052  12.539   2.460   4.611 -0.0862 -0.0008  0.0811
  837loPI   GL113053  12.497   2.198   4.840  0.1023  0.2031 -0.3424
  837loPI   GL213054  12.556   1.898   4.861 -0.0956 -0.1563 -0.1607
  837loPI   C1A13055  12.589   2.316   5.269 -0.0063 -0.1630  0.1085
  837loPI   C2A13056  12.489   2.571   5.616 -0.2483  0.0677 -0.1963
  837loPI   C3A13057  12.477   2.585   6.040  0.1178  0.2391  0.0641
  837loPI   C4A13058  12.443   2.411   6.390  0.1017  0.2319 -0.4967
  837loPI   C5A13059  12.756   2.087   6.478  0.0684 -0.2344 -0.3045
  837loPI   C6A13060  12.976   1.825   6.852  0.1187 -0.0840  0.0266
  837loPI   C1B13061  12.647   1.801   5.361 -0.0828  0.0067 -0.0348
  837loPI   C2B13062  12.866   1.671   5.719 -0.4929 -0.3337 -0.0409
  837loPI   C3B13063  13.193   1.464   5.859  0.2949 -0.0203 -0.0348
  837loPI   C4B13064  13.569   1.408   5.728  0.1774 -0.1218  0.3676
  838loPI    C113065  19.327   8.762   4.581  0.0583  0.3376 -0.0912
  838loPI    C213066  19.451   8.407   4.446  0.3169  0.4580 -0.1778
  838loPI    C313067  19.091   8.545   4.342  0.0788  0.0809  0.1174
  838loPI   PO413068  19.483   8.958   4.791 -0.0261  0.0391  0.1035
  838loPI   GL113069  19.484   9.159   5.331 -0.1226 -0.0234 -0.1545
  838loPI   GL213070  19.630   9.269   5.537  0.1086 -0.4070  0.0464
  838loPI   C1A13071  19.146   9.233   5.725 -0.2734  0.0231  0.4444
  838loPI   C2A13072  19.021   9.476   6.162 -0.1631 -0.2959  0.3373
  838loPI   C3A13073  19.268   9.577   6.537  0.0323  0.1029  0.0991
  838loPI   C4A13074  19.335   9.442   6.986  0.0124  0.3448 -0.2544
  838loPI   C5A13075  18.973   9.568   7.234  0.2575  0.0877  0.0198
  838loPI   C6A13076  18.537   9.757   7.066 -0.2438 -0.0039  0.1496
  838loPI   C1B13077  19.839   9.278   6.025  0.0627 -0.1522 -0.1057
  838loPI   C2B13078  19.730   9.365   6.457  0.3269 -0.2642 -0.1281
  838loPI   C3B13079  19.807   9.281   6.886 -0.1964  0.0756 -0.4403
  838loPI   C4B13080  19.918   9.606   7.145  0.0348 -0.0559  0.0437
  839loPI    C113081  15.274   5.571   4.978  0.2856  0.0480 -0.1826
  839loPI    C213082  14.991   5.298   4.904  0.0917  0.2092 -0.0480
  839loPI    C313083  15.083   5.570   4.626 -0.0240  0.2770 -0.0207
  839loPI   PO413084  15.215   5.662   5.156 -0.0753 -0.0714 -0.2185
  839loPI   GL113085  15.452   5.638   5.518  0.1824 -0.2850  0.0111
  839loPI   GL213086  15.176   5.439   5.665  0.4394  0.0886  0.2240
  839loPI   C1A13087  15.408   5.572   6.044 -0.0676  0.1087  0.1454
  839loPI   C2A13088  15.410   5.440   6.457 -0.0448 -0.1702  0.0861
  839loPI   C3A13089  15.537   5.710   6.835 -0.0494  0.4733  0.0953
  839loPI   C4A13090  15.399   6.008   7.272 -0.0367 -0.1374 -0.2542
  839loPI   C5A13091  15.347   6.416   7.601  0.3143 -0.1633 -0.0347
  839loPI   C6A13092  15.297   6.747   7.922  0.1305  0.0407  0.0379
  839loPI   C1B13093  14.980   5.308   6.011  0.2785  0.0155  0.0978
  839loPI   C2B13094  14.761   5.020   6.295 -0.3235  0.2298  0.0222
  839loPI   C3B13095  14.475   5.005   6.652  0.3257 -0.1139 -0.0506
  839loPI   C4B13096  14.112   5.050   6.824  0.1351  0.2348  0.1188
  840loPI    C113097   0.271  10.942   4.776 -0.0884  0.0382  0.0111
  840loPI    C213098   0.047  10.615   4.726  0.1320 -0.1236  0.0628
  840loPI    C313099   0.293  10.734   4.435  0.3110 -0.2064  0.1789
  840loPI   PO413100   0.448  10.903   4.999  0.2825  0.1181 -0.0905
  840loPI   GL113101   0.636  10.983   5.333 -0.1531  0.2529 -0.2764
  840loPI   GL213102   0.287  10.879   5.507  0.0548 -0.0315 -0.3289
  840loPI   C1A13103   0.648  11.255   5.633  0.0038  0.1261  0.2357
  840loPI   C2A13104   0.744  11.492   6.099 -0.2446 -0.0779 -0.1421
  840loPI   C3A13105   0.931  11.688   6.467  0.1045  0.1875  0.1249
  840loPI   C4A13106   0.981  11.710   6.894 -0.0162 -0.1804  0.2779
  840loPI   C5A13107   0.951  11.750   7.381 -0.0841 -0.1138 -0.2050
  840loPI   C6A13108   1.140  11.623   7.741 -0.1245 -0.1849  0.0933
  840loPI   C1B13109   0.167  10.617   5.851 -0.5105  0.0309  0.1273
  840loPI   C2B13110   0.187  10.517   6.321  0.1912 -0.1972 -0.1221
  840loPI   C3B13111   0.227  10.654   6.717 -0.0447 -0.4112  0.0540
  840loPI   C4B13112   0.360  11.044   6.984  0.0098  0.3098 -0.1625
  841loPI    C113113   9.788   0.389   4.466 -0.1673 -0.2433  0.0787
  841loPI    C213114   9.489   0.643   4.392  0.1175  0.0434 -0.1127
  841loPI    C313115   9.532   0.315   4.168 -0.3046 -0.2304  0.1924
  841loPI   PO413116   9.795   0.363   4.682 -0.0828  0.2203 -0.0126
  841loPI   GL113117   9.719   0.333   5.060  0.0794 -0.0817 -0.1335
  841loPI   GL213118   9.419   0.192   5.251  0.0171 -0.0349  0.2202
  841loPI   C1A13119   9.972   0.235   5.444  0.2304  0.4383  0.3897
  841loPI   C2A13120  10.175   0.089   5.834 -0.0238  0.3342  0.2345
  841loPI   C3A13121  10.167  -0.045   6.192  0.0753  0.4986 -0.2244
  841loPI   C4A13122  10.188  -0.172   6.537  0.1754 -0.3837 -0.1455
  841loPI   C5A13123  10.340  -0.419   6.822 -0.4240 -0.2550  0.0968
  841loPI   C6A13124  10.276  -0.479   7.234  0.0862  0.2135 -0.0428
  841loPI   C1B13125   9.551  -0.026   5.627  0.1173  0.0466  0.0358
  841loPI   C2B13126   9.673  -0.097   6.049 -0.0915  0.0354  0.0191
  841loPI   C3B13127   9.700  -0.243   6.465  0.2627 -0.1704  0.1168
  841loPI   C4B13128   9.857  -0.382   6.902 -0.0144 -0.0598 -0.2705
  842loPI    C113129  12.427   1.221   4.190 -0.0038  0.1030 -0.1835
  842loPI    C213130  12.046   1.098   4.188  0.0290 -0.0019 -0.0866
  842loPI    C313131  12.324   0.894   3.984  0.0204  0.1187 -0.2207
  842loPI   PO413132  12.477   1.227   4.468 -0.0563 -0.0279  0.0440
  842loPI   GL113133  12.293   1.158   4.919 -0.1998 -0.0983 -0.1595
  842loPI   GL213134  12.228   1.478   4.839  0.3478 -0.2616 -0.1259
  842loPI   C1A13135  12.353   0.898   5.352  0.3646 -0.0044  0.2637
  842loPI   C2A13136  12.376   0.979   5.832 -0.3180  0.1104  0.2227
  842loPI   C3A13137  12.222   0.919   6.231 -0.1167  0.0701  0.0440
  842loPI   C4A13138  12.299   0.816   6.676 -0.0193 -0.0497  0.3340
  842loPI   C5A13139  12.443   0.391   6.799 -0.1865 -0.0778 -0.4720
  842loPI   C6A13140  12.726   0.319   7.099  0.3105 -0.1887  0.2607
  842loPI   C1B13141  12.249   1.522   5.263  0.0637 -0.1505 -0.0135
  842loPI   C2B13142  12.368   1.497   5.717  0.0975  0.0282 -0.3177
  842loPI   C3B13143  12.225   1.458   6.148 -0.2296 -0.0586  0.0723
  842loPI   C4B13144  12.122   1.331   6.556  0.0374  0.1530 -0.0165
  843loPI    C113145  15.043   3.108   4.603  0.3182 -0.0996 -0.0794
  843loPI    C213146  15.246   2.918   4.315  0.3595 -0.1637 -0.0082
  843loPI    C313147  14.938   2.738   4.495  0.2992 -0.1029 -0.0498
  843loPI   PO413148  15.221   3.413   4.807  0.0945  0.1170 -0.0156
  843loPI   GL113149  15.371   3.367   5.306  0.1116 -0.1415 -0.0734
  843loPI   GL213150  15.164   3.081   5.524 -0.1469  0.1818  0.1632
  843loPI   C1A13151  15.306   3.410   5.812 -0.0217  0.0931 -0.2090
  843loPI   C2A13152  15.194   3.409   6.263 -0.0056 -0.1808 -0.0636
  843loPI   C3A13153  14.768   3.450   6.384  0.0998  0.1715  0.1613
  843loPI   C4A13154  14.437   3.581   6.199 -0.1658  0.2343  0.2072
  843loPI   C5A13155  14.347   3.916   6.147  0.1705 -0.2337  0.0813
  843loPI   C6A13156  14.296   4.142   6.478 -0.1028  0.2793 -0.0364
  843loPI   C1B13157  15.442   2.844   5.829 -0.0853  0.0311  0.1073
  843loPI   C2B13158  15.553   2.930   6.210 -0.2089 -0.0983  0.0308
  843loPI   C3B13159  15.408   2.991   6.627 -0.2364 -0.0351 -0.2338
  843loPI   C4B13160  15.288   2.885   7.010 -0.0525 -0.2537  0.2406
  844loPI    C113161   2.361  14.933   4.585  0.2302  0.3653 -0.2408
  844loPI    C213162   2.105  14.868   4.284  0.0352 -0.1359  0.0215
  844loPI    C313163   2.460  14.683   4.289  0.1463  0.0725 -0.0261
  844loPI   PO413164   2.168  14.872   4.852  0.0938 -0.3730  0.1987
  844loPI   GL113165   1.773  14.617   5.017  0.0405  0.0847  0.0154
  844loPI   GL213166   1.673  14.923   4.994 -0.0622 -0.2975  0.6739
  844loPI   C1A13167   1.915  14.569   5.539  0.1528 -0.2341 -0.1497
  844loPI   C2A13168   1.942  14.374   5.856  0.1994 -0.0515 -0.3720
  844loPI   C3A13169   1.863  14.496   6.250  0.2036 -0.1173 -0.0677
  844loPI   C4A13170   2.014  14.737   6.571 -0.0405  0.5365  0.1710
  844loPI   C5A13171   1.821  15.115   6.688 -0.3234 -0.2839  0.0848
  844loPI   C6A13172   1.574  15.234   7.074 -0.2252 -0.0744  0.0336
  844loPI   C1B13173   1.528  14.816   5.395  0.2633  0.0132 -0.0801
  844loPI   C2B13174   1.602  14.771   5.843  0.1586  0.0099  0.1368
  844loPI   C3B13175   1.450  14.876   6.259 -0.0682  0.1067  0.3899
  844loPI   C4B13176   1.254  15.059   6.675  0.1334 -0.1769  0.0597
  845loPI    C113177   8.188   7.475   4.494 -0.3495 -0.1462 -0.0993
  845loPI    C213178   7.982   7.731   4.267 -0.1001 -0.0157 -0.1826
  845loPI    C313179   8.287   7.526   4.109 -0.1063 -0.1377 -0.0377
  845loPI   PO413180   8.232   7.624   4.786 -0.3052 -0.0763 -0.1703
  845loPI   GL113181   8.206   7.788   5.289 -0.0260 -0.0621  0.5030
  845loPI   GL213182   8.443   7.461   5.238 -0.0388 -0.2181 -0.1499
  845loPI   C1A13183   7.874   7.816   5.637  0.1429  0.1483 -0.1971
  845loPI   C2A13184   7.552   7.700   5.871 -0.1118 -0.3251 -0.3699
  845loPI   C3A13185   7.354   7.710   6.301 -0.1276 -0.0085 -0.1304
  845loPI   C4A13186   7.184   7.689   6.731  0.1113 -0.1940 -0.0840
  845loPI   C5A13187   7.432   7.739   7.080 -0.2347 -0.0646 -0.0844
  845loPI   C6A13188   7.475   7.769   7.491 -0.0495 -0.1886  0.3740
  845loPI   C1B13189   8.298   7.508   5.671  0.0177  0.0063  0.1587
  845loPI   C2B13190   8.186   7.459   6.055  0.0996 -0.3383 -0.0119
  845loPI   C3B13191   7.852   7.659   6.245  0.2924 -0.0159 -0.0824
  845loPI   C4B13192   7.710   8.188   6.270 -0.0353 -0.0384 -0.1218
  846loPI    C113193   1.780  16.550   4.588 -0.3450 -0.1322  0.1681
  846loPI    C213194   1.813  16.859   4.336  0.0861 -0.1996  0.1352
  846loPI    C313195   1.649  16.516   4.211 -0.1993 -0.0570  0.1100
  846loPI   PO413196   1.692  16.565   4.759 -0.0508 -0.1819  0.2137
  846loPI   GL113197   1.808  16.891   5.102  0.3452 -0.0526  0.4287
  846loPI   GL213198   1.482  16.851   5.207 -0.1650 -0.1744  0.0135
  846loPI   C1A13199   1.809  16.663   5.540  0.0779 -0.0708 -0.1887
  846loPI   C2A13200   1.777  16.345   5.897  0.2123 -0.0335  0.1411
  846loPI   C3A13201   1.788  16.462   6.316  0.1135  0.1500 -0.2265
  846loPI   C4A13202   1.816  16.479   6.834  0.2736 -0.0261  0.0553
  846loPI   C5A13203   1.921  16.216   7.124 -0.0109 -0.1976 -0.2579
  846loPI   C6A13204   2.233  16.156   7.523 -0.0566  0.0795 -0.0937
  846loPI   C1B13205   1.585  17.048   5.676 -0.0145 -0.1291  0.2541
  846loPI   C2B13206   1.709  17.116   6.083 -0.6897 -0.0367 -0.0161
  846loPI   C3B13207   1.831  17.042   6.460 -0.0394  0.1548 -0.3908
  846loPI   C4B13208   1.897  17.012   6.873  0.0974 -0.1496  0.1739
  847loPI    C113209   1.148   2.269   4.362  0.0903  0.0699 -0.1043
  847loPI    C213210   0.748   2.278   4.357  0.0809 -0.1132  0.1269
  847loPI    C313211   0.954   2.325   4.017 -0.1231  0.4334  0.0690
  847loPI   PO413212   1.174   2.197   4.598  0.3243  0.1338  0.2699
  847loPI   GL113213   1.252   2.243   4.933 -0.2698 -0.2022  0.0026
  847loPI   GL213214   1.530   2.326   5.140 -0.0183  0.0293  0.0198
  847loPI   C1A13215   1.176   2.041   5.332  0.1000 -0.0539 -0.0902
  847loPI   C2A13216   1.402   2.071   5.671 -0.0278 -0.4086  0.4421
  847loPI   C3A13217   1.342   2.124   6.087 -0.0208 -0.1110 -0.1411
  847loPI   C4A13218   1.199   2.040   6.517 -0.1438 -0.1424 -0.0512
  847loPI   C5A13219   0.989   2.045   6.898  0.4710  0.2914 -0.1239
  847loPI   C6A13220   0.559   1.857   7.028  0.1780  0.1306  0.2229
  847loPI   C1B13221   1.824   2.352   5.381 -0.0937 -0.0977 -0.1705
  847loPI   C2B13222   1.905   2.317   5.764  0.1458 -0.2198 -0.0245
  847loPI   C3B13223   1.760   2.405   6.103 -0.1947 -0.0212  0.0709
  847loPI   C4B13224   1.478   2.478   6.387 -0.2774  0.0755  0.1208
  848loPI    C113225   9.300   3.316   4.765 -0.0274 -0.3318  0.0183
  848loPI    C213226   9.669   3.295   4.612 -0.0572  0.1579 -0.1365
  848loPI    C313227   9.352   3.216   4.381 -0.0832  0.5194 -0.2305
  848loPI   PO413228   9.296   3.570   4.935 -0.2617 -0.1210 -0.0014
  848loPI   GL113229   9.097   3.646   5.279 -0.2695  0.2470  0.2149
  848loPI   GL213230   8.998   3.936   5.339  0.2486 -0.2854  0.0857
  848loPI   C1A13231   9.194   3.321   5.602  0.3537 -0.3459 -0.1085
  848loPI   C2A13232   9.323   3.337   6.130  0.3578 -0.1037 -0.0436
  848loPI   C3A13233   9.449   3.201   6.549 -0.0270 -0.2279  0.0748
  848loPI   C4A13234   9.461   3.369   6.909 -0.2942 -0.2597  0.0018
  848loPI   C5A13235   9.636   3.665   7.241  0.0291  0.0953 -0.0840
  848loPI   C6A13236   9.811   3.755   7.627  0.1336 -0.0585  0.2395
  848loPI   C1B13237   9.083   3.830   5.741  0.1378  0.0391 -0.3546
  848loPI   C2B13238   8.955   3.694   6.160  0.2165 -0.3718  0.0849
  848loPI   C3B13239   9.096   3.562   6.530 -0.1490 -0.1171  0.1111
  848loPI   C4B13240   8.855   3.426   6.862  0.1744  0.2304  0.1384
  849loPI    C113241  19.386   7.242   4.923 -0.2314  0.0167  0.0227
  849loPI    C213242  19.579   6.936   4.751 -0.0020  0.2156 -0.0799
  849loPI    C313243  19.235   7.070   4.595 -0.1597 -0.0561  0.0277
  849loPI   PO413244  19.351   7.116   5.185  0.2736 -0.0652 -0.2175
  849loPI   GL113245  19.073   7.030   5.478  0.2467  0.1276  0.0933
  849loPI   GL213246  19.387   6.775   5.562 -0.2576  0.0267  0.2909
  849loPI   C1A13247  19.049   6.785   5.961  0.0050  0.1062  0.1727
  849loPI   C2A13248  19.015   6.688   6.399 -0.1305 -0.3802  0.1458
  849loPI   C3A13249  18.944   6.625   6.844  0.0953  0.2485  0.1045
  849loPI   C4A13250  19.167   6.743   7.183  0.1292  0.1774 -0.1733
  849loPI   C5A13251  19.454   6.929   7.467 -0.1934  0.1387  0.1591
  849loPI   C6A13252  19.497   7.276   7.775 -0.1265  0.2150 -0.1696
  849loPI   C1B13253  19.472   7.146   5.877 -0.2024 -0.0609 -0.1547
  849loPI   C2B13254  19.337   7.317   6.201 -0.0372 -0.5851 -0.2057
  849loPI   C3B13255  19.054   7.445   6.585 -0.0614 -0.0303 -0.3315
  849loPI   C4B13256  18.705   7.287   7.066  0.0948  0.1148 -0.1957
  850loPI    C113257   0.509  14.456   4.333  0.2563 -0.0566  0.0621
  850loPI    C213258   0.798  14.731   4.369  0.0440  0.1791 -0.0040
  850loPI    C313259   0.494  14.792   4.117 -0.1552  0.0135  0.1916
  850loPI   PO413260   0.431  14.456   4.595 -0.0674 -0.1988 -0.3882
  850loPI   GL113261   0.558  14.720   4.996 -0.3647  0.1792  0.0334
  850loPI   GL213262   0.525  14.384   5.106  0.0274 -0.1771  0.1011
  850loPI   C1A13263   0.333  14.653   5.498 -0.3868 -0.0320  0.0309
  850loPI   C2A13264   0.369  14.474   5.975  0.0751  0.0199 -0.5448
  850loPI   C3A13265   0.462  14.341   6.347  0.2037 -0.4209  0.0106
  850loPI   C4A13266   0.493  14.190   6.726 -0.3442  0.0118 -0.1352
  850loPI   C5A13267   0.486  14.496   7.158 -0.2261 -0.0273  0.0450
  850loPI   C6A13268   0.465  14.693   7.535  0.1781 -0.0423 -0.0365
  850loPI   C1B13269   0.259  14.162   5.512 -0.4698  0.1180  0.0410
  850loPI   C2B13270  -0.067  13.878   5.643  0.3147 -0.1127 -0.1612
  850loPI   C3B13271  -0.446  14.030   5.683 -0.2777  0.0604 -0.3056
  850loPI   C4B13272  -0.621  14.124   6.068  0.1060 -0.0142 -0.1248
  851loPI    C113273  16.283  18.018   3.733 -0.0726 -0.0197 -0.0130
  851loPI    C213274  16.059  18.336   3.639 -0.1556 -0.0731  0.0038
  851loPI    C313275  16.385  18.251   3.424 -0.1085  0.0485  0.0265
  851loPI   PO413276  16.277  17.993   3.997  0.1798  0.1038 -0.2199
  851loPI   GL113277  16.143  18.054   4.539  0.2013 -0.0691 -0.0275
  851loPI   GL213278  15.961  18.269   4.677 -0.2584 -0.0690 -0.1254
  851loPI   C1A13279  16.375  17.738   4.828  0.0200  0.0563 -0.0803
  851loPI   C2A13280  16.737  17.921   5.072  0.2338  0.1682 -0.1123
  851loPI   C3A13281  16.891  17.944   5.405 -0.2364 -0.1475 -0.1031
  851loPI   C4A13282  16.834  17.754   5.835 -0.0232  0.0359  0.0274
  851loPI   C5A13283  16.479  17.552   6.070 -0.4174  0.0116 -0.3070
  851loPI   C6A13284  16.339  17.308   6.458 -0.0129  0.0886 -0.0993
  851loPI   C1B13285  15.757  17.902   4.879 -0.0506 -0.0630  0.1575
  851loPI   C2B13286  15.509  17.726   5.253 -0.1380  0.2063  0.3286
  851loPI   C3B13287  15.310  17.681   5.642  0.1791 -0.0111 -0.1363
  851loPI   C4B13288  15.227  17.793   6.056 -0.0721 -0.1412 -0.2479
  852loPI    C113289   2.353  12.031   4.829  0.1588 -0.1145  0.1398
  852loPI    C213290   2.444  11.810   4.508 -0.2004 -0.0117 -0.0371
  852loPI    C313291   2.351  12.197   4.465 -0.0654  0.0504  0.2141
  852loPI   PO413292   2.500  11.924   5.037  0.0232  0.1586 -0.1496
  852loPI   GL113293   2.599  11.891   5.502  0.0474 -0.0982  0.0637
  852loPI   GL213294   2.243  11.967   5.520  0.0959 -0.0017 -0.0035
  852loPI   C1A13295   2.523  11.740   5.924  0.0289  0.0894 -0.2271
  852loPI   C2A13296   2.444  11.658   6.366  0.2320  0.2971 -0.0641
  852loPI   C3A13297   2.591  11.223   6.661  0.0554  0.2282  0.3197
  852loPI   C4A13298   2.412  11.051   7.036  0.2083  0.0752 -0.1554
  852loPI   C5A13299   2.080  10.975   7.327  0.3882  0.1403 -0.0805
  852loPI   C6A13300   1.708  10.904   7.484 -0.1349 -0.0159 -0.0474
  852loPI   C1B13301   2.163  12.057   6.028 -0.1474  0.1506  0.1611
  852loPI   C2B13302   2.404  12.270   6.379  0.1656  0.0470 -0.2743
  852loPI   C3B13303   2.267  12.338   6.707  0.0083 -0.2838 -0.0663
  852loPI   C4B13304   2.262  12.312   7.227 -0.0387 -0.0862 -0.0282
  853loPI    C113305   0.522   8.460   5.166 -0.0282  0.1232  0.0814
  853loPI    C213306   0.253   8.753   5.206 -0.1476  0.0256  0.0026
  853loPI    C313307   0.237   8.511   4.889 -0.1140 -0.1323  0.1204
  853loPI   PO413308   0.808   8.534   5.335  0.5202 -0.2197 -0.1414
  853loPI   GL113309   1.144   8.198   5.535  0.0968  0.0272  0.0031
  853loPI   GL213310   1.505   8.240   5.576  0.4697  0.0693  0.2289
  853loPI   C1A13311   0.971   8.303   5.925 -0.0352 -0.0936  0.0634
  853loPI   C2A13312   0.883   8.160   6.321 -0.3101  0.3475  0.0283
  853loPI   C3A13313   0.875   8.045   6.690  0.0096  0.0153 -0.1359
  853loPI   C4A13314   0.961   7.655   6.883 -0.0349  0.1902  0.3440
  853loPI   C5A13315   1.087   7.602   7.186 -0.2550 -0.2042  0.4724
  853loPI   C6A13316   1.186   7.478   7.647 -0.2796 -0.5403 -0.1473
  853loPI   C1B13317   1.387   7.888   5.871  0.0942  0.0086  0.1458
  853loPI   C2B13318   1.562   7.708   6.249 -0.2795  0.1609  0.0180
  853loPI   C3B13319   1.584   7.267   6.284 -0.3497 -0.1412  0.0363
  853loPI   C4B13320   1.245   7.140   6.412  0.0272 -0.3324  0.0969
  854loPI    C113321   9.004  14.482   4.704 -0.1754  0.0180  0.1105
  854loPI    C213322   9.236  14.389   4.392 -0.2013 -0.0312  0.1058
  854loPI    C313323   8.929  14.641   4.346  0.0536  0.3014  0.1844
  854loPI   PO413324   9.131  14.500   4.850 -0.2511 -0.3293  0.2455
  854loPI   GL113325   8.979  14.408   5.301  0.0348  0.0863  0.4300
  854loPI   GL213326   8.802  14.240   5.435 -0.0370  0.1153 -0.1311
  854loPI   C1A13327   9.189  14.318   5.737  0.2161 -0.0485 -0.0037
  854loPI   C2A13328   9.196  14.215   6.169  0.0895 -0.0552  0.0764
  854loPI   C3A13329   9.133  14.245   6.580 -0.0673 -0.2925 -0.1308
  854loPI   C4A13330   8.995  14.058   6.944 -0.0589  0.0180  0.2712
  854loPI   C5A13331   9.103  14.006   7.359 -0.0711  0.0446  0.0550
  854loPI   C6A13332   9.386  13.711   7.484  0.3329  0.0140 -0.3067
  854loPI   C1B13333   8.742  14.341   5.964 -0.0674  0.0030 -0.2368
  854loPI   C2B13334   8.382  14.525   6.060 -0.0077  0.1099  0.0004
  854loPI   C3B13335   8.144  14.520   6.540 -0.2291  0.2680  0.1938
  854loPI   C4B13336   7.842  14.584   6.828  0.1696 -0.0058  0.1872
  855loPI    C113337  11.625  16.655   3.985  0.0136 -0.0722  0.0851
  855loPI    C213338  11.246  16.741   3.890  0.0628  0.0721  0.0171
  855loPI    C313339  11.541  16.990   3.784  0.1538  0.0713  0.2619
  855loPI   PO413340  11.617  16.589   4.231  0.0114  0.0229 -0.1538
  855loPI   GL113341  11.591  16.564   4.536 -0.2225 -0.3836  0.0960
  855loPI   GL213342  11.571  16.886   4.657  0.0005  0.0942  0.2572
  855loPI   C1A13343  11.707  16.423   4.945 -0.1107  0.1434 -0.1203
  855loPI   C2A13344  11.635  16.314   5.343  0.2078 -0.2333  0.1663
  855loPI   C3A13345  11.802  16.419   5.789  0.1951 -0.2289  0.1681
  855loPI   C4A13346  11.986  16.340   6.151  0.0030 -0.1797  0.0220
  855loPI   C5A13347  12.217  16.010   6.427 -0.0305 -0.0544 -0.0876
  855loPI   C6A13348  12.328  16.090   6.859  0.0548  0.3160 -0.1732
  855loPI   C1B13349  11.680  16.859   5.149  0.1194  0.0511 -0.1087
  855loPI   C2B13350  11.806  16.941   5.652  0.1081  0.0044  0.0632
  855loPI   C3B13351  12.043  16.910   6.126  0.0075  0.0397 -0.3924
  855loPI   C4B13352  12.096  16.946   6.693 -0.0149  0.3288  0.2153
  856loPI    C113353  17.909   7.634   5.092  0.1151 -0.1915  0.1393
  856loPI    C213354  18.063   8.002   5.129 -0.1803 -0.0594  0.0877
  856loPI    C313355  18.036   7.831   4.768 -0.0103 -0.1478  0.1160
  856loPI   PO413356  17.727   7.727   5.372  0.2658  0.1024  0.1289
  856loPI   GL113357  17.588   7.763   5.653 -0.0282  0.2019 -0.2664
  856loPI   GL213358  17.847   7.682   5.881  0.2034 -0.2023 -0.1431
  856loPI   C1A13359  17.385   7.554   5.968  0.0314  0.1579 -0.0223
  856loPI   C2A13360  17.235   7.237   6.101 -0.0500 -0.0564  0.1911
  856loPI   C3A13361  17.112   6.865   6.337  0.0575 -0.0056 -0.1782
  856loPI   C4A13362  17.202   6.673   6.835 -0.0941  0.1048 -0.1571
  856loPI   C5A13363  17.363   6.414   7.258 -0.0967 -0.2993  0.3285
  856loPI   C6A13364  17.424   5.983   7.372  0.0784 -0.0027  0.0420
  856loPI   C1B13365  17.910   7.675   6.306 -0.1306  0.2417 -0.0174
  856loPI   C2B13366  17.797   7.537   6.785 -0.1619 -0.0331  0.2547
  856loPI   C3B13367  18.012   7.675   7.236  0.1278  0.4870 -0.2331
  856loPI   C4B13368  18.344   7.660   7.438  0.0799  0.1602 -0.0062
  857loPI    C113369   0.323   7.389   5.024  0.2116 -0.1381 -0.3208
  857loPI    C213370   0.127   7.682   4.834 -0.0576 -0.1443 -0.0605
  857loPI    C313371   0.287   7.380   4.625 -0.1711 -0.0468 -0.2923
  857loPI   PO413372   0.449   7.576   5.212 -0.2956 -0.2337 -0.0877
  857loPI   GL113373   0.421   7.826   5.539  0.4139  0.0462 -0.1035
  857loPI   GL213374   0.494   8.185   5.578  0.0610  0.0557  0.0435
  857loPI   C1A13375   0.420   7.561   5.836 -0.1609 -0.0295 -0.3120
  857loPI   C2A13376   0.323   7.326   6.229  0.0994  0.1971 -0.0714
  857loPI   C3A13377   0.414   6.906   6.334  0.0212 -0.1625 -0.0995
  857loPI   C4A13378   0.740   6.835   6.749  0.0123 -0.0655  0.1719
  857loPI   C5A13379   0.855   6.800   7.055  0.2229 -0.2844  0.1582
  857loPI   C6A13380   0.820   6.752   7.586 -0.2625  0.1706  0.0528
  857loPI   C1B13381   0.387   8.089   6.037 -0.0749  0.1917 -0.1891
  857loPI   C2B13382   0.424   8.241   6.510 -0.2473 -0.1992  0.1075
  857loPI   C3B13383   0.686   8.549   6.760  0.0431  0.0332 -0.1732
  857loPI   C4B13384   0.588   8.842   7.060 -0.0327  0.1101  0.5175
  858loPI    C113385  11.989  16.951   4.242 -0.0128 -0.2249 -0.1297
  858loPI    C213386  12.050  16.951   3.847  0.1216 -0.0249 -0.1110
  858loPI    C313387  12.361  16.973   4.097  0.0391 -0.1795  0.0077
  858loPI   PO413388  11.788  17.139   4.214 -0.0522  0.0646 -0.3817
  858loPI   GL113389  11.679  17.459   4.486  0.1110  0.1320  0.5903
  858loPI   GL213390  11.345  17.471   4.583  0.0868  0.1272  0.2412
  858loPI   C1A13391  11.773  17.254   4.899 -0.2063 -0.2045  0.0148
  858loPI   C2A13392  11.875  17.305   5.309  0.1061  0.1241 -0.3216
  858loPI   C3A13393  11.948  17.479   5.644 -0.2706  0.1403 -0.1909
  858loPI   C4A13394  11.941  17.375   5.997  0.0788  0.3120  0.0322
  858loPI   C5A13395  11.965  17.361   6.434 -0.0661 -0.1794 -0.1197
  858loPI   C6A13396  11.877  17.406   6.852 -0.1723  0.1880 -0.0343
  858loPI   C1B13397  11.421  17.640   4.922  0.1277 -0.0475 -0.0533
  858loPI   C2B13398  11.472  17.694   5.420  0.2303  0.4520  0.1546
  858loPI   C3B13399  11.480  17.706   5.794  0.0813  0.0598 -0.1436
  858loPI   C4B13400  11.528  17.573   6.246 -0.3406  0.0330 -0.1293
  859loPI    C113401   9.721  14.952   4.720  0.1253  0.0791 -0.1696
  859loPI    C213402   9.348  14.874   4.599  0.0479  0.2589 -0.0513
  859loPI    C313403   9.658  14.775   4.367 -0.0487 -0.2811  0.0351
  859loPI   PO413404   9.821  14.809   4.934  0.0122  0.0202  0.0579
  859loPI   GL113405   9.952  14.914   5.271  0.1399  0.1103  0.2817
  859loPI   GL213406  10.024  15.176   5.438  0.3543 -0.3579  0.0652
  859loPI   C1A13407  10.108  14.633   5.588  0.0684 -0.0519  0.2920
  859loPI   C2A13408  10.052  14.585   6.097  0.1107 -0.1488 -0.0438
  859loPI   C3A13409   9.937  14.719   6.511 -0.1630  0.0799 -0.1828
  859loPI   C4A13410   9.627  14.778   6.787  0.1903 -0.0368 -0.2667
  859loPI   C5A13411   9.357  14.882   7.138  0.1607  0.1007 -0.2850
  859loPI   C6A13412   9.430  15.284   7.431 -0.0596 -0.0512 -0.0521
  859loPI   C1B13413  10.294  15.480   5.571  0.1230  0.0698 -0.0248
  859loPI   C2B13414  10.435  15.596   5.935  0.0359  0.0483  0.1447
  859loPI   C3B13415  10.532  15.463   6.219  0.1469  0.0480 -0.0504
  859loPI   C4B13416  10.674  15.422   6.609 -0.1235 -0.0118  0.0444
  860loPI    C113417   9.301  18.606   4.499  0.0399  0.1089 -0.1034
  860loPI    C213418   9.227  18.413   4.157  0.1167 -0.0793 -0.0154
  860loPI    C313419   9.244  18.813   4.161  0.2060 -0.0788 -0.2488
  860loPI   PO413420   9.135  18.532   4.700  0.3189  0.0145  0.0971
  860loPI   GL113421   9.183  18.742   5.071  0.0362  0.1963 -0.2047
  860loPI   GL213422   9.156  19.127   5.155  0.1736  0.0926  0.0272
  860loPI   C1A13423   9.429  18.881   5.440  0.1865 -0.2003 -0.2068
  860loPI   C2A13424   9.439  18.924   5.932  0.3344  0.3141  0.0630
  860loPI   C3A13425   9.535  18.799   6.319 -0.0894  0.1874  0.2845
  860loPI   C4A13426   9.614  18.762   6.697 -0.0004  0.0486 -0.0861
  860loPI   C5A13427   9.946  18.426   6.984 -0.0070  0.1870 -0.1229
  860loPI   C6A13428   9.874  18.025   7.197  0.0407  0.3430 -0.0664
  860loPI   C1B13429   9.019  19.353   5.454  0.1041  0.0152 -0.3259
  860loPI   C2B13430   9.132  19.373   5.922 -0.0645 -0.3608  0.1384
  860loPI   C3B13431   9.162  19.286   6.304  0.4359 -0.1578 -0.0838
  860loPI   C4B13432   9.342  19.132   6.749 -0.2929  0.2614  0.1316
  861loPI    C113433   6.825   0.403   4.619 -0.1541 -0.0815  0.0594
  861loPI    C213434   6.706   0.768   4.730 -0.2266 -0.1069  0.0655
  861loPI    C313435   6.723   0.673   4.342  0.2514  0.0583  0.0406
  861loPI   PO413436   6.648   0.242   4.779  0.0219  0.0480 -0.1877
  861loPI   GL113437   6.698   0.332   5.095 -0.0476 -0.0121  0.0681
  861loPI   GL213438   6.612   0.518   5.217  0.3852 -0.1912  0.0222
  861loPI   C1A13439   7.029   0.236   5.458 -0.0136  0.1893  0.1703
  861loPI   C2A13440   7.319   0.135   5.754 -0.0378  0.0843  0.0091
  861loPI   C3A13441   7.385  -0.176   6.064  0.2613 -0.5653  0.1218
  861loPI   C4A13442   7.391  -0.170   6.487 -0.0413  0.1624 -0.1600
  861loPI   C5A13443   7.441  -0.270   6.895 -0.0921 -0.0892  0.1731
  861loPI   C6A13444   7.653  -0.359   7.377  0.0350  0.1181  0.1166
  861loPI   C1B13445   6.598   0.318   5.594 -0.2387  0.0949  0.0085
  861loPI   C2B13446   6.460   0.130   5.937 -0.2503  0.0759 -0.1381
  861loPI   C3B13447   6.325  -0.070   6.286  0.3004 -0.1236  0.4317
  861loPI   C4B13448   5.964  -0.102   6.364  0.0407  0.0543  0.0097
  862loPI    C113449   8.373   2.293   4.538 -0.0948  0.1573  0.0663
  862loPI    C213450   8.236   2.417   4.183  0.1065  0.3732  0.0618
  862loPI    C313451   8.626   2.344   4.233  0.0811  0.3571  0.2428
  862loPI   PO413452   8.217   2.480   4.716  0.0454  0.0332  0.2599
  862loPI   GL113453   8.193   2.438   5.099  0.2271  0.2124 -0.2226
  862loPI   GL213454   8.522   2.311   5.163  0.1050  0.0250 -0.1377
  862loPI   C1A13455   8.441   2.666   5.448 -0.0147  0.2814 -0.3298
  862loPI   C2A13456   8.535   2.655   5.858  0.1016  0.2585  0.0992
  862loPI   C3A13457   8.380   2.754   6.306  0.3035 -0.2214  0.0409
  862loPI   C4A13458   8.168   2.675   6.686  0.1109 -0.0058  0.2779
  862loPI   C5A13459   7.776   2.662   6.970 -0.1321 -0.2582 -0.4116
  862loPI   C6A13460   7.497   2.498   7.309  0.0588 -0.2438  0.1699
  862loPI   C1B13461   8.704   2.250   5.560  0.1038 -0.1575  0.2292
  862loPI   C2B13462   8.857   2.194   5.968  0.0100  0.0125  0.0344
  862loPI   C3B13463   8.890   2.488   6.320 -0.0909 -0.1466 -0.1050
  862loPI   C4B13464   9.207   2.599   6.605  0.0360 -0.2712  0.1001
  863loPI    C113465  18.026   9.926   4.610 -0.1564  0.0920 -0.0205
  863loPI    C213466  17.745  10.192   4.712 -0.0264  0.2251 -0.0050
  863loPI    C313467  17.825  10.124   4.326 -0.1771  0.0829 -0.0121
  863loPI   PO413468  18.245  10.005   4.792 -0.2304 -0.0081 -0.0252
  863loPI   GL113469  18.126  10.150   5.196  0.1031 -0.0085  0.0585
  863loPI   GL213470  17.784   9.995   5.193 -0.0334  0.3462 -0.0875
  863loPI   C1A13471  18.316  10.305   5.633  0.0564 -0.0825  0.2582
  863loPI   C2A13472  17.997  10.438   5.921 -0.1881  0.2847 -0.0949
  863loPI   C3A13473  17.550  10.309   5.916 -0.0931 -0.1796  0.3420
  863loPI   C4A13474  17.104  10.419   6.045 -0.1597 -0.1187  0.2633
  863loPI   C5A13475  17.147  10.346   6.470  0.1238 -0.0050  0.2356
  863loPI   C6A13476  16.888  10.214   6.804  0.0422  0.3055  0.3076
  863loPI   C1B13477  17.936  10.016   5.670  0.0995  0.2551 -0.2120
  863loPI   C2B13478  18.057   9.909   6.153 -0.1662 -0.0896 -0.0643
  863loPI   C3B13479  18.389   9.974   6.486 -0.0274 -0.0883 -0.3713
  863loPI   C4B13480  18.430  10.237   6.798  0.0875 -0.0502 -0.1743
  864loPI    C113481  12.529  12.953   4.523 -0.0662  0.2294  0.0177
  864loPI    C213482  12.190  12.888   4.321 -0.1680  0.3016  0.1641
  864loPI    C313483  12.542  12.857   4.134 -0.2506  0.1414  0.0321
  864loPI   PO413484  12.392  12.946   4.749 -0.3095 -0.0184 -0.2856
  864loPI   GL113485  12.344  12.706   5.103 -0.3909 -0.0922 -0.0609
  864loPI   GL213486  12.095  12.677   5.291 -0.1885 -0.0268 -0.1003
  864loPI   C1A13487  12.595  12.520   5.402  0.0024  0.0882  0.4924
  864loPI   C2A13488  12.597  12.525   5.784 -0.1680  0.0943  0.2305
  864loPI   C3A13489  12.488  12.658   6.243  0.2780  0.0032  0.0668
  864loPI   C4A13490  12.390  12.669   6.692 -0.1971  0.1201 -0.1262
  864loPI   C5A13491  12.452  12.968   7.105  0.0266 -0.2959 -0.0068
  864loPI   C6A13492  12.412  12.877   7.552  0.1644 -0.0526  0.0144
  864loPI   C1B13493  12.181  12.626   5.665  0.0542 -0.0032 -0.1665
  864loPI   C2B13494  12.042  12.627   6.057  0.2826  0.1115  0.0982
  864loPI   C3B13495  11.974  12.913   6.341  0.0119  0.3118 -0.0488
  864loPI   C4B13496  11.991  13.010   6.803  0.0066 -0.1981  0.1113
  865loPI    C113497   9.269  13.428   4.705 -0.2185 -0.1119  0.0502
  865loPI    C213498   8.929  13.291   4.543 -0.1323  0.1952 -0.4109
  865loPI    C313499   9.145  13.567   4.350  0.3161  0.0992 -0.0627
  865loPI   PO413500   9.183  13.569   5.011 -0.0278  0.5572 -0.0941
  865loPI   GL113501   9.389  13.687   5.419 -0.0134  0.2102 -0.1512
  865loPI   GL213502   9.166  13.881   5.465  0.2568 -0.2625  0.1005
  865loPI   C1A13503   9.333  13.373   5.830 -0.0948  0.2722  0.0969
  865loPI   C2A13504   9.222  13.117   6.188 -0.1981 -0.1077  0.0444
  865loPI   C3A13505   9.070  13.183   6.511  0.0584 -0.3233  0.3140
  865loPI   C4A13506   9.051  12.992   6.980  0.0512 -0.0948  0.0685
  865loPI   C5A13507   9.043  12.648   7.163 -0.2772 -0.2769  0.0381
  865loPI   C6A13508   9.160  12.464   7.558 -0.1548 -0.0463 -0.0164
  865loPI   C1B13509   8.923  13.883   5.802  0.0392  0.0121 -0.1919
  865loPI   C2B13510   8.741  13.940   6.353  0.1770  0.2038 -0.1065
  865loPI   C3B13511   8.643  14.307   6.536 -0.0598 -0.1882 -0.1764
  865loPI   C4B13512   8.731  14.694   6.426 -0.3382  0.0750  0.1750
  866loPI    C113513  17.313  16.491   4.089  0.1480  0.0905 -0.0952
  866loPI    C213514  17.591  16.469   3.802  0.1126 -0.2168 -0.1092
  866loPI    C313515  17.571  16.186   4.084 -0.1303 -0.1496 -0.0564
  866loPI   PO413516  17.373  16.742   4.234  0.0771 -0.0624  0.2312
  866loPI   GL113517  17.401  16.882   4.669 -0.1162  0.3675  0.0195
  866loPI   GL213518  17.824  16.908   4.621  0.0232  0.0523 -0.3525
  866loPI   C1A13519  17.318  16.669   5.052  0.1231  0.1352  0.2336
  866loPI   C2A13520  16.957  16.539   5.159 -0.1996 -0.1762 -0.0119
  866loPI   C3A13521  16.717  16.459   5.584  0.5189  0.1361  0.1528
  866loPI   C4A13522  16.741  16.258   5.901  0.0821  0.0138 -0.0210
  866loPI   C5A13523  16.983  16.137   6.332 -0.0574  0.2265 -0.0659
  866loPI   C6A13524  17.286  16.008   6.703  0.1490 -0.0417  0.0788
  866loPI   C1B13525  17.828  17.127   4.950  0.1479 -0.2286 -0.2010
  866loPI   C2B13526  17.874  17.345   5.406  0.2534  0.0147 -0.0226
  866loPI   C3B13527  17.749  17.468   5.746  0.2412 -0.3459  0.0309
  866loPI   C4B13528  17.739  17.374   6.135 -0.4006 -0.0572 -0.0883
  867loPI    C113529  15.734  11.358   4.578 -0.1724  0.0352 -0.0064
  867loPI    C213530  15.682  11.665   4.327  0.1349 -0.0452 -0.1729
  867loPI    C313531  15.891  11.344   4.210  0.1331 -0.1584  0.1271
  867loPI   PO413532  15.821  11.506   4.764  0.2224 -0.1380  0.4255
  867loPI   GL113533  16.120  11.272   5.074  0.1951 -0.2116  0.2558
  867loPI   GL213534  16.273  11.104   5.044  0.1831 -0.0692 -0.0472
  867loPI   C1A13535  15.939  11.305   5.489 -0.2800 -0.1861 -0.0941
  867loPI   C2A13536  15.987  11.220   5.971 -0.1932 -0.1738 -0.0083
  867loPI   C3A13537  16.076  11.225   6.390  0.1749 -0.1238 -0.0353
  867loPI   C4A13538  16.306  11.184   6.873  0.0003 -0.2174  0.2986
  867loPI   C5A13539  16.276  11.343   7.304 -0.2446 -0.0046  0.0159
  867loPI   C6A13540  16.594  11.458   7.567 -0.3332 -0.0175  0.1363
  867loPI   C1B13541  16.649  11.128   5.343 -0.1187  0.2504  0.2401
  867loPI   C2B13542  17.107  10.987   5.357 -0.1305 -0.0232 -0.2406
  867loPI   C3B13543  17.184  10.639   5.574 -0.3302  0.0766  0.0307
  867loPI   C4B13544  16.977  10.188   5.624  0.4773 -0.1174  0.1895
  868loPI    C113545  16.752  12.278   4.532  0.1377  0.0825  0.0807
  868loPI    C213546  16.879  12.274   4.153 -0.0954 -0.0210  0.0020
  868loPI    C313547  16.803  12.622   4.334  0.1937  0.0373  0.0161
  868loPI   PO413548  16.997  12.253   4.706 -0.0077  0.2884  0.0880
  868loPI   GL113549  17.198  12.130   5.147  0.0378  0.1346  0.4385
  868loPI   GL213550  17.530  12.112   5.249 -0.0849  0.0512  0.4025
  868loPI   C1A13551  16.986  12.049   5.525  0.0304  0.1523  0.0345
  868loPI   C2A13552  16.763  12.117   5.900  0.4844 -0.0281 -0.3064
  868loPI   C3A13553  16.666  12.015   6.253  0.1384  0.0467  0.2110
  868loPI   C4A13554  16.826  12.054   6.661  0.3757  0.2849 -0.2111
  868loPI   C5A13555  17.112  12.318   6.914 -0.1148 -0.0868  0.0225
  868loPI   C6A13556  17.562  12.324   7.212 -0.3071  0.1348  0.1461
  868loPI   C1B13557  17.573  11.952   5.596 -0.2229  0.1423  0.2389
  868loPI   C2B13558  17.741  11.681   5.939 -0.1900 -0.0811  0.1338
  868loPI   C3B13559  18.017  11.493   6.247 -0.2486 -0.2078  0.1665
  868loPI   C4B13560  18.009  11.389   6.710 -0.0666  0.1715 -0.0572
  869loPI    C113561   9.311  16.142   4.574 -0.0518  0.1943  0.1623
  869loPI    C213562   8.940  16.288   4.604 -0.1464 -0.0538  0.2282
  869loPI    C313563   9.057  16.107   4.267 -0.2228 -0.3401  0.3524
  869loPI   PO413564   9.457  16.350   4.723 -0.0617 -0.0791 -0.0813
  869loPI   GL113565   9.421  16.247   5.130 -0.1129  0.0626 -0.1466
  869loPI   GL213566   9.152  16.350   5.192 -0.3025 -0.1275  0.2297
  869loPI   C1A13567   9.525  16.279   5.583  0.0584  0.1407 -0.3936
  869loPI   C2A13568   9.536  16.409   5.996  0.1230 -0.0258  0.1275
  869loPI   C3A13569   9.617  16.525   6.420  0.3129 -0.0221  0.0541
  869loPI   C4A13570   9.555  16.509   6.855 -0.1489 -0.0633  0.0128
  869loPI   C5A13571   9.631  16.261   7.269  0.2807  0.0264  0.2907
  869loPI   C6A13572   9.185  16.289   7.377  0.1759  0.2342  0.1800
  869loPI   C1B13573   9.069  16.040   5.433 -0.0661 -0.0781 -0.1535
  869loPI   C2B13574   8.916  15.845   5.802 -0.1524  0.0234 -0.2796
  869loPI   C3B13575   8.895  15.639   6.150  0.1165 -0.2571 -0.1329
  869loPI   C4B13576   8.827  15.174   6.425  0.1350 -0.0316  0.0753
  870loPI    C113577   9.658  15.757   4.636  0.0315 -0.1284 -0.0401
  870loPI    C213578   9.831  15.986   4.357 -0.1497 -0.0370 -0.0792
  870loPI    C313579   9.527  15.746   4.258 -0.0497 -0.1940 -0.0102
  870loPI   PO413580   9.582  15.804   4.873  0.0964 -0.1410 -0.0296
  870loPI   GL113581   9.439  15.774   5.342 -0.2217 -0.0629  0.3892
  870loPI   GL213582   9.341  15.482   5.231  0.1661 -0.1496  0.0892
  870loPI   C1A13583   9.377  15.709   5.715  0.0231  0.0196 -0.1660
  870loPI   C2A13584   9.578  15.453   6.039 -0.1689  0.1102 -0.0258
  870loPI   C3A13585   9.830  15.597   6.267  0.1427 -0.2514  0.1283
  870loPI   C4A13586   9.792  15.994   6.431 -0.2281 -0.1503  0.0187
  870loPI   C5A13587   9.544  16.014   6.725 -0.1264  0.4369 -0.3215
  870loPI   C6A13588   9.272  15.876   7.119 -0.1250  0.0307 -0.0515
  870loPI   C1B13589   9.075  15.294   5.539  0.0353  0.0872 -0.0697
  870loPI   C2B13590   9.163  15.160   5.833 -0.0326  0.2200 -0.0072
  870loPI   C3B13591   9.360  15.073   6.251  0.1945  0.0935 -0.1194
  870loPI   C4B13592   9.769  15.172   6.497  0.0446 -0.5160  0.0539
  871loPI    C113593   2.867  12.299   4.739 -0.2951 -0.0230  0.2168
  871loPI    C213594   3.081  12.546   4.509 -0.0116 -0.1761  0.3116
  871loPI    C313595   3.012  12.170   4.390 -0.1605 -0.1516  0.3187
  871loPI   PO413596   2.638  12.449   4.808  0.2323  0.2295  0.2092
  871loPI   GL113597   2.427  12.373   5.204  0.3174  0.1394  0.0043
  871loPI   GL213598   2.756  12.343   5.297  0.0676 -0.2225 -0.2479
  871loPI   C1A13599   2.462  12.413   5.716 -0.0569  0.3436 -0.1499
  871loPI   C2A13600   2.563  12.599   6.090 -0.1553 -0.4005 -0.0525
  871loPI   C3A13601   2.648  12.663   6.602  0.1646 -0.1816 -0.1933
  871loPI   C4A13602   2.704  12.641   7.088 -0.0853 -0.2389 -0.0379
  871loPI   C5A13603   2.622  12.726   7.480 -0.2339 -0.4369  0.0965
  871loPI   C6A13604   2.493  12.871   7.883  0.3184 -0.2447  0.1705
  871loPI   C1B13605   2.988  12.442   5.736  0.2035  0.0066 -0.2248
  871loPI   C2B13606   2.893  12.061   5.992 -0.2445 -0.1020  0.1020
  871loPI   C3B13607   2.867  11.950   6.384  0.1367 -0.1124  0.1086
  871loPI   C4B13608   2.732  12.022   6.775 -0.0491  0.0767 -0.3070
  872loPI    C113609   0.460   6.184   4.545 -0.3192 -0.5883  0.0088
  872loPI    C213610   0.091   6.291   4.656 -0.2333 -0.1302 -0.1253
  872loPI    C313611   0.218   6.367   4.285  0.1236  0.0645  0.0312
  872loPI   PO413612   0.560   6.165   4.784 -0.1994  0.1685  0.0747
  872loPI   GL113613   0.759   6.253   5.106  0.1910 -0.1295  0.1782
  872loPI   GL213614   0.751   6.534   5.155 -0.0681  0.0086  0.1458
  872loPI   C1A13615   0.639   5.892   5.438 -0.2441  0.2702 -0.1217
  872loPI   C2A13616   0.589   5.705   5.816 -0.0199  0.3109  0.0985
  872loPI   C3A13617   0.310   5.518   6.061 -0.1774 -0.4236 -0.1334
  872loPI   C4A13618   0.192   5.461   6.477 -0.0390  0.3259  0.2232
  872loPI   C5A13619   0.019   5.652   6.752 -0.0220  0.1440 -0.0314
  872loPI   C6A13620  -0.003   5.893   7.152  0.1089 -0.0907 -0.2886
  872loPI   C1B13621   0.738   6.454   5.613  0.0660 -0.1099 -0.3135
  872loPI   C2B13622   0.739   6.539   5.988  0.2909  0.0596 -0.0583
  872loPI   C3B13623   0.907   6.765   6.298 -0.1907  0.0318  0.4161
  872loPI   C4B13624   1.163   6.684   6.609 -0.2678 -0.1376  0.0105
  873loPI    C113625  16.028   4.296   4.593  0.1084 -0.0239 -0.1293
  873loPI    C213626  15.702   4.177   4.394 -0.0001  0.1238 -0.0421
  873loPI    C313627  15.903   4.501   4.273  0.0762  0.0718 -0.0557
  873loPI   PO413628  15.941   4.311   4.883 -0.3905  0.2370 -0.1317
  873loPI   GL113629  16.210   4.280   5.251  0.1077  0.0539 -0.0203
  873loPI   GL213630  16.040   4.580   5.300  0.0865  0.0551  0.1371
  873loPI   C1A13631  16.385   4.263   5.582  0.1802  0.1271  0.2037
  873loPI   C2A13632  16.543   4.080   5.965  0.1607  0.0907  0.0606
  873loPI   C3A13633  16.463   3.997   6.332  0.0669 -0.1665  0.1421
  873loPI   C4A13634  16.339   4.068   6.735  0.3010  0.4067 -0.0362
  873loPI   C5A13635  16.314   3.964   7.248  0.0548  0.0447 -0.3191
  873loPI   C6A13636  16.209   3.540   7.340 -0.1021 -0.1384 -0.1864
  873loPI   C1B13637  15.874   4.306   5.648  0.5561 -0.1656 -0.1048
  873loPI   C2B13638  15.933   4.101   6.041  0.0367 -0.0902  0.1270
  873loPI   C3B13639  15.825   3.797   6.363 -0.0662 -0.0936 -0.0432
  873loPI   C4B13640  15.556   3.497   6.589 -0.1759  0.1338  0.1191
  874loPI    C113641  12.784  10.836   4.471  0.2239  0.3446  0.1048
  874loPI    C213642  12.564  10.884   4.802  0.2646 -0.0533  0.1954
  874loPI    C313643  12.386  10.865   4.445  0.1674 -0.1909  0.2506
  874loPI   PO413644  12.964  10.992   4.567 -0.0637 -0.0711  0.2810
  874loPI   GL113645  12.908  11.208   5.012 -0.0312 -0.1684  0.3238
  874loPI   GL213646  12.654  11.157   5.165 -0.1338  0.0973 -0.2899
  874loPI   C1A13647  13.106  11.608   5.166 -0.0052 -0.1815 -0.1845
  874loPI   C2A13648  13.073  11.713   5.555 -0.0039  0.2315  0.0357
  874loPI   C3A13649  12.774  11.882   5.873  0.1686  0.0274  0.1672
  874loPI   C4A13650  12.755  11.947   6.296  0.0485  0.3328 -0.0377
  874loPI   C5A13651  12.641  11.787   6.603 -0.1447  0.2053 -0.2508
  874loPI   C6A13652  12.586  11.498   7.028  0.0834  0.3631 -0.3139
  874loPI   C1B13653  12.850  11.008   5.539 -0.1924  0.0060  0.1217
  874loPI   C2B13654  12.497  10.886   5.817 -0.5874  0.3359 -0.1047
  874loPI   C3B13655  12.416  10.493   5.987 -0.1101  0.4155  0.0585
  874loPI   C4B13656  12.521  10.349   6.497  0.0014 -0.0811  0.1613
  875loPI    C113657   8.259  16.982   4.689 -0.0122 -0.1331  0.0476
  875loPI    C213658   7.977  16.810   4.464 -0.0287 -0.0326 -0.0085
  875loPI    C313659   8.340  16.879   4.311  0.0595 -0.2570  0.0960
  875loPI   PO413660   8.131  16.913   5.002  0.2453  0.0609 -0.1775
  875loPI   GL113661   8.389  16.958   5.243 -0.0798 -0.2748 -0.2068
  875loPI   GL213662   8.491  17.269   5.013  0.0600 -0.3477  0.0492
  875loPI   C1A13663   8.415  16.866   5.737 -0.1773  0.1824  0.1237
  875loPI   C2A13664   8.656  16.605   6.058  0.2197  0.0177  0.1897
  875loPI   C3A13665   8.707  16.580   6.476 -0.1680  0.1600  0.1654
  875loPI   C4A13666   8.636  16.676   6.851 -0.2288  0.1229 -0.2147
  875loPI   C5A13667   8.462  16.511   7.186 -0.2272  0.0048 -0.0987
  875loPI   C6A13668   8.359  16.487   7.559  0.0106 -0.2176  0.3905
  875loPI   C1B13669   8.478  17.646   5.321 -0.0324 -0.2015 -0.0165
  875loPI   C2B13670   8.716  18.063   5.459  0.0435 -0.3268 -0.1811
  875loPI   C3B13671   8.562  18.418   5.687 -0.0400  0.0772 -0.2680
  875loPI   C4B13672   8.442  18.697   6.061  0.0333  0.0283 -0.3953
  876loPI    C113673  14.014   2.988   4.624 -0.1053  0.0754  0.0929
  876loPI    C213674  13.624   2.967   4.710 -0.0815 -0.2085  0.1420
  876loPI    C313675  13.837   3.284   4.826 -0.3220  0.0066  0.0071
  876loPI   PO413676  14.101   2.748   4.813 -0.0514 -0.3425 -0.1401
  876loPI   GL113677  13.846   2.574   5.226 -0.2924 -0.1885 -0.2871
  876loPI   GL213678  13.597   2.758   5.166  0.0666  0.0460 -0.2311
  876loPI   C1A13679  14.062   2.759   5.506 -0.1519  0.0335  0.3391
  876loPI   C2A13680  14.433   2.491   5.668  0.0487 -0.1433  0.1533
  876loPI   C3A13681  14.694   2.234   5.949 -0.0814 -0.3667 -0.2365
  876loPI   C4A13682  14.972   1.999   6.137  0.1523 -0.3112  0.0323
  876loPI   C5A13683  14.845   1.624   6.367 -0.1756 -0.3544 -0.2108
  876loPI   C6A13684  14.698   1.251   6.596  0.1604  0.1679  0.5056
  876loPI   C1B13685  13.766   3.107   5.254  0.0378  0.2529  0.3157
  876loPI   C2B13686  13.998   3.248   5.617 -0.0614 -0.2169 -0.0884
  876loPI   C3B13687  14.267   3.098   5.888  0.0807 -0.1383  0.1978
  876loPI   C4B13688  14.491   2.811   6.102 -0.3405  0.0838  0.0128
  877loPI    C113689  15.301  12.394   4.485  0.0826  0.1961 -0.0010
  877loPI    C213690  15.318  12.792   4.454  0.0026  0.2054  0.0717
  877loPI    C313691  15.267  12.568   4.127 -0.1795  0.2674  0.0566
  877loPI   PO413692  15.509  12.363   4.689 -0.1785  0.0781 -0.1585
  877loPI   GL113693  15.687  12.697   4.872 -0.0459 -0.1355  0.1315
  877loPI   GL213694  15.483  12.935   5.067 -0.0351 -0.2265  0.0106
  877loPI   C1A13695  15.953  12.584   5.159  0.0528 -0.0153  0.1362
  877loPI   C2A13696  16.131  12.544   5.569  0.0855 -0.0092  0.0272
  877loPI   C3A13697  16.081  12.568   6.096  0.3504  0.1537 -0.1451
  877loPI   C4A13698  16.173  12.592   6.502  0.1136 -0.2824 -0.3495
  877loPI   C5A13699  16.114  12.656   7.111 -0.0182 -0.0947  0.0396
  877loPI   C6A13700  16.054  12.987   7.280  0.0553 -0.2032  0.0858
  877loPI   C1B13701  15.475  13.191   5.440 -0.1820 -0.4078 -0.1961
  877loPI   C2B13702  15.399  13.263   5.939 -0.1613 -0.2188 -0.1665
  877loPI   C3B13703  15.262  13.146   6.265  0.0025  0.0549 -0.2464
  877loPI   C4B13704  15.075  12.826   6.522 -0.0156 -0.3788  0.1963
  878loPI    C113705  10.320   8.649   4.660  0.2123  0.1855  0.2681
  878loPI    C213706  10.392   8.997   4.478 -0.0145  0.1889  0.1823
  878loPI    C313707  10.062   8.789   4.389  0.0559  0.0134  0.3256
  878loPI   PO413708  10.562   8.636   4.799 -0.2253  0.2756  0.1506
  878loPI   GL113709  10.687   8.577   5.230  0.3161  0.0137 -0.0551
  878loPI   GL213710  10.668   8.402   5.435  0.0229 -0.2365  0.0940
  878loPI   C1A13711  11.061   8.679   5.537 -0.0545 -0.2353 -0.0692
  878loPI   C2A13712  11.045   8.496   5.855 -0.1364  0.0990  0.0673
  878loPI   C3A13713  11.324   8.770   6.143 -0.1580  0.0633 -0.1320
  878loPI   C4A13714  11.446   8.801   6.582 -0.1400  0.1369 -0.1245
  878loPI   C5A13715  11.644   8.587   6.931  0.1769  0.3748 -0.1626
  878loPI   C6A13716  11.859   8.249   7.007  0.1264 -0.3477  0.0822
  878loPI   C1B13717  10.509   8.374   5.758  0.2463 -0.1259 -0.0643
  878loPI   C2B13718  10.495   8.344   6.224  0.0862 -0.0023 -0.1266
  878loPI   C3B13719  10.648   8.386   6.635 -0.2184 -0.0478 -0.0900
  878loPI   C4B13720  10.568   8.416   7.046 -0.0191  0.2516 -0.2036
  879loPI    C113721  15.218   2.114   4.561 -0.2738 -0.0474 -0.1971
  879loPI    C213722  15.340   2.480   4.665  0.0329 -0.1937 -0.0277
  879loPI    C313723  15.247   2.401   4.284 -0.1682  0.0938 -0.0417
  879loPI   PO413724  15.237   2.023   4.865  0.0136 -0.0726 -0.1079
  879loPI   GL113725  15.037   1.999   5.146 -0.2211 -0.0357  0.0404
  879loPI   GL213726  15.384   2.011   5.360  0.1657 -0.0891  0.1129
  879loPI   C1A13727  14.947   1.874   5.568  0.1594  0.2538  0.0188
  879loPI   C2A13728  15.175   1.635   5.759  0.1244 -0.2652  0.1081
  879loPI   C3A13729  15.474   1.550   6.049  0.1533  0.1137 -0.1346
  879loPI   C4A13730  15.853   1.559   6.377 -0.0245  0.1773 -0.1380
  879loPI   C5A13731  16.297   1.393   6.596  0.1159  0.0556 -0.4101
  879loPI   C6A13732  16.614   1.373   6.864 -0.0048  0.1682 -0.0727
  879loPI   C1B13733  15.717   1.829   5.593  0.0578  0.0701 -0.1544
  879loPI   C2B13734  15.903   1.896   6.061  0.2106  0.1143  0.1969
  879loPI   C3B13735  16.077   1.988   6.539  0.1867  0.0208  0.1940
  879loPI   C4B13736  16.215   1.742   6.938 -0.1647  0.1387  0.0300
  880loPI    C113737   7.232   9.121   5.197 -0.0763  0.1433 -0.0480
  880loPI    C213738   7.467   9.311   4.935 -0.1470  0.1042 -0.1401
  880loPI    C313739   7.414   8.916   4.906  0.1720  0.0326  0.1806
  880loPI   PO413740   7.134   9.297   5.280  0.3722  0.1765  0.1535
  880loPI   GL113741   7.055   9.495   5.665  0.2686 -0.4395 -0.1403
  880loPI   GL213742   6.892   9.310   5.717 -0.0915  0.0003  0.0616
  880loPI   C1A13743   7.002   9.424   6.212  0.1622 -0.1491  0.0307
  880loPI   C2A13744   7.179   9.434   6.648 -0.0992  0.0955 -0.3595
  880loPI   C3A13745   7.236   9.398   7.058  0.0365  0.1492 -0.2183
  880loPI   C4A13746   7.383   9.500   7.393  0.3322  0.1543 -0.2083
  880loPI   C5A13747   7.682   9.523   7.654 -0.1799 -0.1939 -0.1352
  880loPI   C6A13748   8.171   9.674   7.721  0.1001  0.1194  0.1557
  880loPI   C1B13749   6.575   9.226   6.004 -0.0389  0.1231 -0.2533
  880loPI   C2B13750   6.475   9.166   6.421 -0.4121 -0.1563 -0.3154
  880loPI   C3B13751   6.364   9.152   6.794  0.0775  0.1757 -0.0335
  880loPI   C4B13752   6.301   9.106   7.168  0.1629  0.2997 -0.0957
  881loPI    C113753   5.049   3.035   4.515 -0.0491  0.0991 -0.0760
  881loPI    C213754   4.929   3.410   4.584  0.1732  0.1828 -0.1364
  881loPI    C313755   4.797   3.214   4.261 -0.1106  0.1318  0.0074
  881loPI   PO413756   5.054   2.913   4.800 -0.0033 -0.0250 -0.1963
  881loPI   GL113757   5.362   2.814   5.010  0.1118 -0.0573 -0.0702
  881loPI   GL213758   5.182   2.922   5.273  0.4896  0.4568 -0.1723
  881loPI   C1A13759   5.584   2.575   5.238  0.1389  0.2576  0.0589
  881loPI   C2A13760   5.555   2.572   5.605  0.0521 -0.0577 -0.3068
  881loPI   C3A13761   5.623   2.862   6.050  0.3036 -0.0593  0.0491
  881loPI   C4A13762   5.513   3.032   6.431 -0.2319 -0.1390  0.0059
  881loPI   C5A13763   5.630   3.096   6.838  0.0809  0.1024  0.1858
  881loPI   C6A13764   5.577   2.923   7.316 -0.1291 -0.3619  0.2229
  881loPI   C1B13765   5.147   2.795   5.680 -0.3694  0.1772  0.1261
  881loPI   C2B13766   5.136   2.903   6.154  0.3319 -0.0359 -0.0379
  881loPI   C3B13767   5.074   2.998   6.624 -0.3159  0.1407 -0.0541
  881loPI   C4B13768   5.068   3.015   7.050 -0.0571 -0.0216  0.2215
  882loPI    C113769   4.282   4.185   4.876  0.1520 -0.0587  0.0780
  882loPI    C213770   4.580   3.925   4.818 -0.0151 -0.2070 -0.1312
  882loPI    C313771   4.282   3.951   4.552  0.0726  0.3026 -0.1897
  882loPI   PO413772   4.389   4.386   4.934  0.1792  0.2506  0.0267
  882loPI   GL113773   4.167   4.485   5.293 -0.1213  0.0972 -0.2506
  882loPI   GL213774   3.894   4.687   5.370  0.1304  0.1992 -0.0363
  882loPI   C1A13775   4.367   4.367   5.735 -0.1368 -0.0197  0.0426
  882loPI   C2A13776   4.308   4.346   6.117  0.0697  0.2534  0.1331
  882loPI   C3A13777   4.240   4.389   6.516  0.1195  0.1664  0.2333
  882loPI   C4A13778   4.311   4.462   6.984  0.1260  0.0259 -0.0099
  882loPI   C5A13779   4.000   4.708   7.331 -0.1815  0.0096  0.0841
  882loPI   C6A13780   4.151   4.743   7.671 -0.1761 -0.3291 -0.1927
  882loPI   C1B13781   3.971   4.730   5.795 -0.3589 -0.2737  0.3082
  882loPI   C2B13782   4.303   4.930   5.970 -0.0035  0.0994 -0.1208
  882loPI   C3B13783   4.431   5.123   6.356  0.1606 -0.2627 -0.0495
  882loPI   C4B13784   4.738   5.211   6.729  0.2707 -0.3915  0.3213
  883loPI    C113785  17.067   9.097   4.782 -0.1451  0.1875  0.0764
  883loPI    C213786  16.682   9.035   4.693 -0.1318  0.0608  0.1046
  883loPI    C313787  16.960   9.016   4.406 -0.0995 -0.2569  0.1537
  883loPI   PO413788  17.059   9.165   5.030  0.1337  0.4567  0.1756
  883loPI   GL113789  17.162   9.093   5.508 -0.1661 -0.3046 -0.4557
  883loPI   GL213790  17.324   8.876   5.592 -0.1918  0.0275  0.0306
  883loPI   C1A13791  16.919   9.395   5.848 -0.2041  0.0797  0.0132
  883loPI   C2A13792  16.947   9.745   6.134  0.1017  0.0332 -0.1658
  883loPI   C3A13793  17.138   9.860   6.560  0.1085 -0.1106  0.1251
  883loPI   C4A13794  17.272   9.593   6.923  0.0567 -0.1822 -0.1223
  883loPI   C5A13795  17.086   9.603   7.240 -0.0885 -0.1881  0.0783
  883loPI   C6A13796  16.757   9.537   7.566 -0.0462 -0.1395  0.1792
  883loPI   C1B13797  17.580   9.259   5.843  0.0005  0.2590  0.0767
  883loPI   C2B13798  17.799   9.467   6.202  0.1036  0.1218 -0.1832
  883loPI   C3B13799  17.687   9.706   6.564  0.1158  0.3467 -0.0066
  883loPI   C4B13800  17.931  10.013   6.733  0.1248 -0.2253  0.0954
  884loPI    C113801  19.223   2.977   4.197  0.0862 -0.2161 -0.1723
  884loPI    C213802  18.927   2.952   3.929  0.0359  0.0848 -0.1480
  884loPI    C313803  19.191   3.252   3.908  0.1401  0.0074  0.0308
  884loPI   PO413804  19.161   3.022   4.396  0.0013 -0.0576  0.0131
  884loPI   GL113805  19.214   2.947   4.790  0.2832 -0.0974  0.0592
  884loPI   GL213806  19.518   2.880   4.788 -0.1070  0.1223  0.0680
  884loPI   C1A13807  19.099   2.639   5.175 -0.3002 -0.0488  0.1991
  884loPI   C2A13808  19.227   2.768   5.494 -0.0295 -0.0021 -0.0940
  884loPI   C3A13809  19.273   2.622   5.941 -0.3817 -0.0720 -0.1762
  884loPI   C4A13810  19.430   2.770   6.305 -0.2896 -0.0060 -0.0001
  884loPI   C5A13811  19.533   2.823   6.745  0.2261  0.2232 -0.4720
  884loPI   C6A13812  19.602   3.190   6.988 -0.3263 -0.1867  0.0349
  884loPI   C1B13813  19.709   2.846   5.276  0.4425  0.0993 -0.1592
  884loPI   C2B13814  19.787   2.934   5.696  0.2041  0.2442 -0.1424
  884loPI   C3B13815  19.928   2.914   6.132 -0.2227 -0.0699 -0.3473
  884loPI   C4B13816  20.277   3.007   6.233 -0.0368 -0.0251  0.2518
  885loPI    C113817   2.046  13.547   4.468 -0.2460 -0.1974 -0.3089
  885loPI    C213818   2.329  13.264   4.479  0.2015  0.2457  0.0118
  885loPI    C313819   2.180  13.384   4.128  0.2256 -0.1687 -0.1451
  885loPI   PO413820   2.083  13.614   4.798 -0.0944  0.3155 -0.0867
  885loPI   GL113821   1.958  13.654   5.188  0.0124  0.0061  0.3042
  885loPI   GL213822   1.629  13.660   5.220 -0.1867  0.2053  0.2687
  885loPI   C1A13823   2.078  13.609   5.585 -0.3346 -0.0225  0.1419
  885loPI   C2A13824   2.088  13.597   6.016 -0.0768  0.0187  0.3221
  885loPI   C3A13825   2.256  13.553   6.431 -0.2016  0.0508  0.2004
  885loPI   C4A13826   2.048  13.322   6.803 -0.1982 -0.2055  0.5399
  885loPI   C5A13827   1.598  13.455   6.994 -0.0048  0.2779 -0.0482
  885loPI   C6A13828   1.126  13.448   7.094 -0.0635  0.0278 -0.0509
  885loPI   C1B13829   1.659  13.896   5.524 -0.2118 -0.4259 -0.1753
  885loPI   C2B13830   1.690  13.914   6.044  0.4141 -0.0224 -0.2316
  885loPI   C3B13831   1.527  14.075   6.484  0.0028  0.0190  0.1313
  885loPI   C4B13832   1.441  14.018   6.926 -0.1763  0.0547  0.0171
  886loPI    C113833   3.390  13.592   4.798 -0.2298 -0.0151  0.4748
  886loPI    C213834   3.253  13.942   4.661 -0.0343 -0.0785  0.1060
  886loPI    C313835   3.029  13.612   4.628 -0.1120 -0.0375  0.2184
  886loPI   PO413836   3.519  13.717   5.055 -0.4051  0.0244 -0.1674
  886loPI   GL113837   3.379  13.796   5.443 -0.1135  0.0056  0.0854
  886loPI   GL213838   3.066  13.754   5.610 -0.0638  0.0618 -0.0738
  886loPI   C1A13839   3.508  13.837   5.870 -0.0797  0.0201 -0.1280
  886loPI   C2A13840   3.672  13.566   6.228 -0.2246  0.2084  0.2145
  886loPI   C3A13841   3.836  13.431   6.620  0.1032  0.0048  0.0976
  886loPI   C4A13842   3.602  13.184   6.784 -0.2666 -0.2284 -0.1107
  886loPI   C5A13843   3.546  12.872   7.051  0.1036  0.4701  0.2290
  886loPI   C6A13844   3.138  12.762   7.298 -0.0596 -0.1479  0.1993
  886loPI   C1B13845   2.888  13.892   5.982 -0.0393 -0.1498  0.0184
  886loPI   C2B13846   2.963  13.898   6.406 -0.0460  0.0561 -0.3726
  886loPI   C3B13847   3.158  14.006   6.890  0.1303  0.2433  0.1662
  886loPI   C4B13848   3.095  14.109   7.309 -0.0964  0.0323  0.3079
  887loPI    C113849  17.633   1.210   4.376  0.2685  0.0040  0.1012
  887loPI    C213850  17.874   0.944   4.198  0.0254 -0.1972  0.0673
  887loPI    C313851  17.800   1.295   4.022  0.0451 -0.2625 -0.0730
  887loPI   PO413852  17.539   1.107   4.508 -0.0468 -0.0437 -0.1430
  887loPI   GL113853  17.509   1.152   4.918  0.0970  0.4445  0.0369
  887loPI   GL213854  17.725   1.438   4.936 -0.0621  0.1454  0.0415
  887loPI   C1A13855  17.414   1.425   5.367 -0.0719  0.2321  0.0474
  887loPI   C2A13856  17.250   1.479   5.679  0.1746 -0.0553 -0.2390
  887loPI   C3A13857  17.445   1.500   6.088 -0.1746  0.1510  0.0829
  887loPI   C4A13858  17.478   1.650   6.469 -0.5296 -0.0151 -0.2861
  887loPI   C5A13859  17.455   1.889   6.873  0.0093 -0.0304  0.3369
  887loPI   C6A13860  17.281   1.803   7.197 -0.0574  0.0439  0.0831
  887loPI   C1B13861  17.840   1.638   5.300  0.1228 -0.0798 -0.1973
  887loPI   C2B13862  17.834   1.635   5.700  0.2335  0.0772  0.0851
  887loPI   C3B13863  17.898   1.720   6.150 -0.0808  0.2399  0.0288
  887loPI   C4B13864  18.025   1.590   6.536 -0.0180 -0.0959 -0.0588
  888loPI    C113865   7.958  14.723   5.137 -0.1487 -0.0821 -0.0763
  888loPI    C213866   8.145  15.071   5.201 -0.3186 -0.0153  0.0667
  888loPI    C313867   8.159  14.900   4.840  0.2259 -0.1382  0.1376
  888loPI   PO413868   7.975  14.584   5.253  0.0549  0.0012 -0.0415
  888loPI   GL113869   7.811  14.591   5.631 -0.1497  0.2553  0.1569
  888loPI   GL213870   7.632  14.353   5.462  0.1025 -0.1523 -0.0503
  888loPI   C1A13871   7.933  14.276   5.917  0.1746  0.0047 -0.0562
  888loPI   C2A13872   7.810  13.937   6.188 -0.0053 -0.0633 -0.0843
  888loPI   C3A13873   7.929  13.970   6.602  0.0762  0.4940 -0.1130
  888loPI   C4A13874   8.102  13.892   7.128  0.3808 -0.0314  0.0822
  888loPI   C5A13875   8.356  13.731   7.497  0.0384 -0.1537  0.1884
  888loPI   C6A13876   8.785  13.723   7.599  0.0721 -0.1165  0.0434
  888loPI   C1B13877   7.388  14.451   5.878  0.0344 -0.1054  0.2294
  888loPI   C2B13878   7.281  14.797   6.099  0.1180  0.0831 -0.1865
  888loPI   C3B13879   7.042  14.859   6.455  0.1634 -0.1384 -0.1226
  888loPI   C4B13880   6.742  14.843   6.812  0.2845 -0.0052  0.2641
  889loPI    C113881   2.134   1.634   4.713  0.0138  0.1271 -0.0897
  889loPI    C213882   2.096   1.799   4.351  0.2750 -0.0767 -0.2130
  889loPI    C313883   2.415   1.884   4.577  0.0759  0.1086  0.0038
  889loPI   PO413884   1.928   1.565   4.790  0.0504 -0.1758  0.2875
  889loPI   GL113885   1.771   1.458   5.203 -0.3177  0.1308  0.0519
  889loPI   GL213886   1.512   1.669   5.258  0.2434 -0.4475  0.1725
  889loPI   C1A13887   1.771   1.214   5.607 -0.1167  0.1662 -0.0053
  889loPI   C2A13888   1.528   1.193   5.965  0.0934  0.0916  0.1369
  889loPI   C3A13889   1.344   0.982   6.339 -0.4066  0.2297  0.0486
  889loPI   C4A13890   1.065   0.667   6.552 -0.1450 -0.0095  0.1298
  889loPI   C5A13891   0.742   0.394   6.699 -0.0813  0.0163 -0.2383
  889loPI   C6A13892   0.904  -0.063   6.738  0.3590  0.1721  0.1962
  889loPI   C1B13893   1.299   1.610   5.723 -0.1908 -0.1156 -0.1133
  889loPI   C2B13894   1.123   1.618   6.155  0.1045 -0.1164  0.0721
  889loPI   C3B13895   1.343   1.501   6.475  0.0214 -0.0686  0.2438
  889loPI   C4B13896   1.520   1.314   6.823 -0.0722 -0.3339 -0.0397
  890loPI    C113897  13.313   2.680   4.289 -0.1250  0.1781 -0.0645
  890loPI    C213898  13.420   2.443   3.986 -0.0375 -0.0268  0.1241
  890loPI    C313899  13.136   2.719   3.933  0.0324 -0.0070 -0.1648
  890loPI   PO413900  13.302   2.496   4.502 -0.3389 -0.0171 -0.1129
  890loPI   GL113901  13.242   2.627   4.896  0.0058  0.1143 -0.2003
  890loPI   GL213902  13.059   2.859   4.917  0.0879  0.2774 -0.0417
  890loPI   C1A13903  13.119   2.609   5.338  0.1164 -0.0667 -0.0349
  890loPI   C2A13904  13.079   2.591   5.843  0.2589 -0.0878 -0.1922
  890loPI   C3A13905  12.952   2.488   6.240 -0.1257 -0.0973 -0.1153
  890loPI   C4A13906  13.241   2.197   6.456 -0.0293 -0.2469  0.0042
  890loPI   C5A13907  13.460   1.954   6.647 -0.2878 -0.1646  0.0573
  890loPI   C6A13908  13.492   1.629   6.850  0.2175  0.0893 -0.3612
  890loPI   C1B13909  13.240   3.102   5.229  0.2167 -0.2283  0.2615
  890loPI   C2B13910  13.343   2.955   5.634  0.0390  0.4421 -0.2892
  890loPI   C3B13911  13.677   2.821   5.775 -0.0084 -0.1520  0.0095
  890loPI   C4B13912  13.990   2.678   6.005 -0.1152 -0.0507 -0.1755
  891loPI    C113913  14.217  17.793   3.998  0.2187  0.0297 -0.0641
  891loPI    C213914  14.354  17.703   3.633  0.1750  0.0052 -0.0743
  891loPI    C313915  14.119  18.023   3.685  0.2404  0.0501 -0.0560
  891loPI   PO413916  14.406  17.809   4.204  0.2372  0.1087  0.1983
  891loPI   GL113917  14.399  17.879   4.587 -0.0833 -0.0958  0.1158
  891loPI   GL213918  14.662  18.042   4.568  0.4526 -0.2497 -0.2262
  891loPI   C1A13919  14.082  17.828   4.985 -0.2130 -0.1624 -0.0929
  891loPI   C2A13920  13.894  17.909   5.405 -0.0820 -0.1629  0.0984
  891loPI   C3A13921  13.852  18.113   5.830 -0.1815  0.1338  0.0951
  891loPI   C4A13922  13.908  18.379   6.135  0.1725 -0.0207  0.1223
  891loPI   C5A13923  13.788  18.687   6.528 -0.0036  0.0385  0.1228
  891loPI   C6A13924  13.473  18.839   6.603  0.0200  0.0405  0.1327
  891loPI   C1B13925  14.577  17.953   5.015 -0.1351  0.1256 -0.0640
  891loPI   C2B13926  14.727  17.798   5.510  0.0686  0.2254  0.0242
  891loPI   C3B13927  14.747  17.602   5.884 -0.0039 -0.1586  0.2539
  891loPI   C4B13928  14.596  17.337   6.248  0.0205 -0.0651  0.0695
  892loPI    C113929  12.849  19.165   3.920  0.0023 -0.0347  0.2104
  892loPI    C213930  12.799  18.908   4.223  0.1270 -0.1048  0.1725
  892loPI    C313931  12.841  18.771   3.849 -0.0154 -0.0191  0.1243
  892loPI   PO413932  13.010  19.414   4.061 -0.1534 -0.3372  0.2127
  892loPI   GL113933  12.893  19.327   4.466 -0.1427 -0.1483 -0.2457
  892loPI   GL213934  12.903  19.528   4.720 -0.0868  0.1921 -0.0594
  892loPI   C1A13935  13.028  19.001   4.710  0.1477  0.2386 -0.0879
  892loPI   C2A13936  12.957  18.915   5.170  0.4322 -0.0085 -0.1549
  892loPI   C3A13937  12.734  19.108   5.524 -0.0649 -0.1175 -0.1110
  892loPI   C4A13938  12.710  19.078   5.970 -0.0783 -0.0256 -0.2052
  892loPI   C5A13939  12.575  18.992   6.347 -0.1036 -0.0262 -0.0482
  892loPI   C6A13940  12.896  18.782   6.651  0.0050 -0.0936  0.1011
  892loPI   C1B13941  12.826  19.474   5.085 -0.1796  0.3468 -0.0455
  892loPI   C2B13942  12.487  19.485   5.332  0.3227  0.1356  0.0579
  892loPI   C3B13943  12.492  19.575   5.765 -0.0187 -0.0933 -0.0372
  892loPI   C4B13944  12.324  19.527   6.163 -0.1446 -0.1253  0.2802
  893loPI    C113945   0.547  12.630   4.413  0.3250  0.1782 -0.4751
  893loPI    C213946   0.539  12.325   4.154 -0.1067 -0.0941 -0.1552
  893loPI    C313947   0.273  12.622   4.121 -0.2059 -0.1633  0.0121
  893loPI   PO413948   0.650  12.470   4.623 -0.1372  0.0300  0.0942
  893loPI   GL113949   0.787  12.571   5.029 -0.6478  0.0335  0.1303
  893loPI   GL213950   0.894  12.730   5.090  0.2509  0.0603  0.1353
  893loPI   C1A13951   0.496  12.810   5.404  0.4603  0.0036  0.0722
  893loPI   C2A13952   0.529  13.025   5.784 -0.0800 -0.2183  0.1588
  893loPI   C3A13953   0.427  13.324   5.989  0.1820 -0.0031  0.0845
  893loPI   C4A13954   0.330  13.498   6.390 -0.0438 -0.1189  0.0364
  893loPI   C5A13955   0.321  13.709   6.819 -0.1278  0.1135 -0.0831
  893loPI   C6A13956   0.286  14.018   7.161 -0.1773  0.0130  0.1637
  893loPI   C1B13957   1.106  12.807   5.397  0.2026  0.1592  0.0488
  893loPI   C2B13958   1.010  12.893   5.813 -0.1242 -0.1021  0.1155
  893loPI   C3B13959   1.171  13.021   6.179  0.0497 -0.0978 -0.1125
  893loPI   C4B13960   1.201  13.207   6.559 -0.0433 -0.2642  0.0786
  894loPI    C113961   6.756  16.270   4.563 -0.0267  0.0424 -0.2391
  894loPI    C213962   6.579  15.915   4.616  0.0039  0.0789  0.1329
  894loPI    C313963   6.362  16.233   4.508 -0.0662  0.0043  0.0532
  894loPI   PO413964   6.890  16.337   4.777  0.0152 -0.3087 -0.1721
  894loPI   GL113965   7.050  16.134   5.105  0.0411  0.1063 -0.3135
  894loPI   GL213966   6.778  16.301   5.305  0.1309  0.0180 -0.4466
  894loPI   C1A13967   7.229  16.504   5.353 -0.0104  0.0223  0.0467
  894loPI   C2A13968   7.377  16.834   5.682 -0.1150  0.0870 -0.1094
  894loPI   C3A13969   7.574  17.088   5.914  0.1016  0.1738  0.0238
  894loPI   C4A13970   7.862  17.279   6.230 -0.2341  0.0401  0.1727
  894loPI   C5A13971   7.872  17.318   6.690 -0.2744  0.0583  0.0884
  894loPI   C6A13972   7.933  17.218   7.112 -0.2841  0.2264  0.0238
  894loPI   C1B13973   6.879  16.482   5.724  0.1184  0.2924 -0.3056
  894loPI   C2B13974   7.067  16.527   6.003  0.0796  0.0118 -0.1532
  894loPI   C3B13975   7.152  16.677   6.411 -0.1155 -0.1853  0.0085
  894loPI   C4B13976   7.094  16.475   6.775 -0.1438  0.0332  0.1474
  895loPI    C113977  11.184  14.092   4.786 -0.0430  0.0279  0.0833
  895loPI    C213978  11.368  13.944   4.463  0.0505 -0.1215  0.2035
  895loPI    C313979  11.410  14.330   4.557 -0.1502 -0.0269 -0.0814
  895loPI   PO413980  11.238  13.892   5.059 -0.1182 -0.1591  0.0306
  895loPI   GL113981  11.429  13.904   5.492  0.1643  0.0854  0.0681
  895loPI   GL213982  11.777  14.116   5.354 -0.1680  0.2291 -0.5137
  895loPI   C1A13983  11.653  13.814   5.831  0.0045 -0.2742  0.0906
  895loPI   C2A13984  12.034  13.917   5.951 -0.2264 -0.2643 -0.0318
  895loPI   C3A13985  12.079  14.235   6.284 -0.0854  0.0008 -0.0795
  895loPI   C4A13986  12.045  14.401   6.686  0.4503  0.1990 -0.2127
  895loPI   C5A13987  12.205  14.773   6.979  0.0095 -0.2285 -0.1412
  895loPI   C6A13988  12.382  15.205   7.015  0.1570  0.0689  0.3603
  895loPI   C1B13989  12.078  14.166   5.567 -0.1198 -0.0510  0.3274
  895loPI   C2B13990  12.346  14.340   5.878  0.1959 -0.4027 -0.2074
  895loPI   C3B13991  12.647  14.596   5.959  0.0266 -0.1408 -0.3621
  895loPI   C4B13992  12.867  14.702   5.685 -0.1015 -0.1242  0.0130
  896loPI    C113993  19.350  14.728   4.367 -0.1539  0.0111  0.1819
  896loPI    C213994  19.162  14.623   4.031  0.0492  0.0740  0.0467
  896loPI    C313995  19.561  14.618   4.046  0.0462  0.2660  0.2230
  896loPI   PO413996  19.152  14.660   4.506  0.0026  0.1014 -0.2059
  896loPI   GL113997  18.801  14.938   4.750 -0.0415 -0.1583  0.0004
  896loPI   GL213998  18.920  14.626   4.971  0.0289 -0.1361 -0.0456
  896loPI   C1A13999  18.852  15.024   5.270  0.0117  0.3064  0.1017
  896loPI   C2A14000  18.557  14.918   5.669 -0.2751 -0.1734 -0.2028
  896loPI   C3A14001  18.769  15.129   5.957 -0.2623 -0.1824  0.1824
  896loPI   C4A14002  18.709  15.336   6.242  0.1804 -0.1911 -0.2176
  896loPI   C5A14003  18.603  15.441   6.632 -0.3345  0.1841  0.0593
  896loPI   C6A14004  18.553  15.521   7.098  0.2496  0.1643  0.0977
  896loPI   C1B14005  19.310  14.643   5.223 -0.0639  0.1497 -0.0247
  896loPI   C2B14006  19.369  14.388   5.612 -0.1019 -0.0429 -0.2210
  896loPI   C3B14007  19.354  14.314   6.082 -0.0345 -0.2324  0.2769
  896loPI   C4B14008  19.124  14.338   6.548  0.3505  0.1665 -0.0014
  897loPI    C114009  10.783   7.038   5.004  0.0754  0.2299 -0.0678
  897loPI    C214010  10.391   7.110   4.973  0.0353 -0.0675 -0.2942
  897loPI    C314011  10.637   7.208   4.673  0.1587  0.2495 -0.0948
  897loPI   PO414012  10.795   7.061   5.283 -0.0469  0.2242  0.2094
  897loPI   GL114013  10.887   7.200   5.632 -0.0515 -0.4993  0.1327
  897loPI   GL214014  10.936   7.462   5.645  0.1861 -0.1103  0.0219
  897loPI   C1A14015  10.671   7.073   5.947 -0.0818 -0.0306 -0.1487
  897loPI   C2A14016  10.700   7.007   6.384 -0.2338  0.3423  0.0703
  897loPI   C3A14017  10.765   6.926   6.739 -0.0512  0.0188  0.0524
  897loPI   C4A14018  10.581   6.870   7.201 -0.2297 -0.1839 -0.0418
  897loPI   C5A14019  10.338   6.520   7.298 -0.1322  0.0891  0.1495
  897loPI   C6A14020  10.026   6.269   7.336 -0.0135 -0.1787  0.1083
  897loPI   C1B14021  11.034   7.563   6.046  0.0225 -0.0606 -0.0448
  897loPI   C2B14022  11.023   7.465   6.516  0.1324 -0.4050  0.2202
  897loPI   C3B14023  10.654   7.503   6.869 -0.0975  0.0807  0.1527
  897loPI   C4B14024  10.450   7.406   7.223  0.1916  0.4278 -0.3884
  898loPI    C114025  14.155   5.595   4.638  0.0821 -0.1280  0.0829
  898loPI    C214026  13.998   5.245   4.753  0.0883 -0.1778 -0.0585
  898loPI    C314027  13.860   5.429   4.425 -0.0708  0.0657  0.1406
  898loPI   PO414028  14.229   5.658   4.868 -0.2925 -0.3432 -0.1213
  898loPI   GL114029  14.239   5.942   5.236  0.0519 -0.1545  0.0477
  898loPI   GL214030  14.592   6.028   5.334 -0.2551  0.1696  0.2022
  898loPI   C1A14031  14.201   5.836   5.643 -0.0742  0.2507  0.2040
  898loPI   C2A14032  14.376   5.771   6.035 -0.0843 -0.0830 -0.1049
  898loPI   C3A14033  14.375   5.932   6.389  0.1571 -0.2070 -0.0775
  898loPI   C4A14034  14.428   6.226   6.752 -0.0015 -0.5024  0.1242
  898loPI   C5A14035  14.247   6.511   7.100  0.1220 -0.2805  0.0805
  898loPI   C6A14036  13.977   6.814   7.365 -0.4138 -0.1584 -0.1513
  898loPI   C1B14037  14.596   6.206   5.723 -0.0268  0.0681  0.0394
  898loPI   C2B14038  14.741   6.229   6.152  0.1617  0.3464 -0.0942
  898loPI   C3B14039  14.856   6.310   6.481 -0.1913  0.0340 -0.0680
  898loPI   C4B14040  15.051   6.305   6.887 -0.1446  0.0421  0.1215
  899loPI    C114041  14.015  11.920   4.609  0.0141 -0.3073  0.2136
  899loPI    C214042  14.084  11.588   4.396 -0.0398 -0.1153 -0.1091
  899loPI    C314043  13.724  11.762   4.384 -0.0711 -0.1517  0.2131
  899loPI   PO414044  14.011  11.895   4.945 -0.2008 -0.0803 -0.1222
  899loPI   GL114045  14.083  11.661   5.286 -0.0705  0.2000  0.4041
  899loPI   GL214046  13.760  11.532   5.283 -0.3529 -0.0256  0.2328
  899loPI   C1A14047  14.238  11.567   5.776 -0.4990 -0.1306  0.0513
  899loPI   C2A14048  14.400  11.587   6.174  0.0190 -0.0527 -0.1301
  899loPI   C3A14049  14.657  11.525   6.601  0.1461 -0.1088  0.1715
  899loPI   C4A14050  15.052  11.576   6.801  0.0647 -0.1916  0.1071
  899loPI   C5A14051  15.465  11.518   6.946  0.1774  0.0232  0.3097
  899loPI   C6A14052  15.784  11.265   7.061  0.2628 -0.0500 -0.2121
  899loPI   C1B14053  13.804  11.316   5.751  0.0466  0.0626 -0.1553
  899loPI   C2B14054  13.807  11.449   6.249 -0.2182  0.4274 -0.4514
  899loPI   C3B14055  13.621  11.676   6.673  0.0766 -0.0803  0.1749
  899loPI   C4B14056  13.168  11.662   6.808  0.0246  0.2728  0.2916
  900loPI    C114057   3.764   8.960   4.919 -0.0779  0.1227 -0.2258
  900loPI    C214058   3.409   9.120   4.826 -0.1736  0.0310 -0.0252
  900loPI    C314059   3.727   9.356   4.879 -0.2693  0.1387  0.0743
  900loPI   PO414060   3.771   8.764   5.145  0.1919  0.1026 -0.0397
  900loPI   GL114061   3.530   8.448   5.349 -0.6048 -0.0332  0.0534
  900loPI   GL214062   3.647   8.576   5.606  0.1782  0.1114  0.1527
  900loPI   C1A14063   3.247   8.302   5.657 -0.1890 -0.1334  0.1837
  900loPI   C2A14064   3.313   7.986   5.987  0.0132 -0.0327 -0.1334
  900loPI   C3A14065   3.163   7.652   6.123 -0.1567 -0.1111 -0.1107
  900loPI   C4A14066   3.143   7.489   6.580  0.0017  0.1342 -0.1701
  900loPI   C5A14067   3.224   7.465   7.019  0.2760 -0.0051 -0.0395
  900loPI   C6A14068   3.372   7.731   7.395  0.0637 -0.2585 -0.1202
  900loPI   C1B14069   3.576   8.386   6.027 -0.2123 -0.0461 -0.1612
  900loPI   C2B14070   3.380   8.366   6.372 -0.0773 -0.2121 -0.1528
  900loPI   C3B14071   3.086   8.683   6.472 -0.2471 -0.2758  0.2650
  900loPI   C4B14072   3.082   9.030   6.550  0.1174 -0.2716  0.3267
  901loPI    C114073   5.759   6.237   4.550  0.0678 -0.3117  0.5445
  901loPI    C214074   5.369   6.202   4.471  0.1492  0.0808 -0.0995
  901loPI    C314075   5.615   5.893   4.405  0.0094 -0.0357 -0.0814
  901loPI   PO414076   5.770   6.367   4.801 -0.4286 -0.1612  0.1633
  901loPI   GL114077   5.719   6.342   5.169  0.1591  0.0009  0.0411
  901loPI   GL214078   5.504   6.650   5.141 -0.2476 -0.0753 -0.2273
  901loPI   C1A14079   5.744   6.200   5.620  0.1453  0.1848 -0.0613
  901loPI   C2A14080   5.645   6.218   6.076  0.2773 -0.2043 -0.1024
  901loPI   C3A14081   5.665   6.529   6.450  0.0734  0.1060 -0.1196
  901loPI   C4A14082   5.714   6.783   6.886 -0.0194 -0.0517 -0.0267
  901loPI   C5A14083   6.080   6.942   7.096  0.2053  0.0112  0.2267
  901loPI   C6A14084   6.210   7.034   7.485  0.4685  0.1029  0.3798
  901loPI   C1B14085   5.267   6.570   5.428  0.0861 -0.1550 -0.0769
  901loPI   C2B14086   5.300   6.637   5.957 -0.0645 -0.0777 -0.3736
  901loPI   C3B14087   5.547   6.998   6.088  0.2822 -0.0144 -0.1122
  901loPI   C4B14088   5.929   7.241   6.243  0.1389  0.0897  0.0016
  902loPI    C114089   6.428   4.185   4.281  0.1226 -0.0099 -0.3988
  902loPI    C214090   6.101   4.240   4.057 -0.0406  0.0838 -0.1423
  902loPI    C314091   6.279   3.882   4.067 -0.1298  0.0347 -0.2899
  902loPI   PO414092   6.376   4.192   4.577  0.1531 -0.0415 -0.0875
  902loPI   GL114093   6.560   4.180   4.909 -0.2233 -0.0754 -0.1679
  902loPI   GL214094   6.182   4.040   5.029  0.1347 -0.0102 -0.0235
  902loPI   C1A14095   6.555   4.127   5.323  0.1459 -0.1668  0.1287
  902loPI   C2A14096   6.443   4.122   5.691 -0.0174  0.0627  0.1715
  902loPI   C3A14097   6.216   4.282   6.044 -0.2421 -0.0089 -0.0181
  902loPI   C4A14098   6.240   4.609   6.347 -0.1586  0.0878 -0.1418
  902loPI   C5A14099   6.183   4.615   6.884  0.0470 -0.2287 -0.1833
  902loPI   C6A14100   6.078   4.645   7.261 -0.1171 -0.1614 -0.2858
  902loPI   C1B14101   6.019   3.981   5.399 -0.1373 -0.1639 -0.1266
  902loPI   C2B14102   5.873   3.886   5.816 -0.1034 -0.1086 -0.0656
  902loPI   C3B14103   5.978   3.913   6.262  0.1725  0.0202 -0.0649
  902loPI   C4B14104   6.072   4.185   6.569 -0.1967  0.1427  0.0152
  903loPI    C114105   3.254  16.020   4.400  0.0091 -0.0560  0.2089
  903loPI    C214106   3.592  15.943   4.200  0.0809  0.0631  0.2833
  903loPI    C314107   3.282  15.692   4.173  0.0405  0.1470 -0.0864
  903loPI   PO414108   3.381  16.073   4.700  0.0749  0.2160 -0.3004
  903loPI   GL114109   3.365  16.024   5.119  0.0788 -0.0051 -0.1175
  903loPI   GL214110   3.207  16.381   5.335  0.1148  0.2113  0.1244
  903loPI   C1A14111   3.223  15.932   5.556 -0.1353 -0.4266  0.3374
  903loPI   C2A14112   3.245  15.723   5.898  0.2622 -0.2467 -0.1651
  903loPI   C3A14113   2.865  15.495   6.043  0.2684  0.1109  0.2326
  903loPI   C4A14114   2.335  15.407   6.086  0.4280 -0.0961  0.0650
  903loPI   C5A14115   1.963  15.475   6.339  0.1276 -0.2840 -0.0517
  903loPI   C6A14116   1.624  15.560   6.604 -0.1824  0.0131 -0.2969
  903loPI   C1B14117   3.114  16.369   5.726  0.4645  0.1211 -0.0876
  903loPI   C2B14118   2.922  16.163   6.117  0.0646 -0.1312 -0.0754
  903loPI   C3B14119   3.035  15.741   6.462 -0.0531  0.0053  0.0761
  903loPI   C4B14120   3.232  15.553   6.856  0.0811 -0.0256 -0.1731
  904loPI    C114121  19.171  15.453   4.003 -0.1075 -0.0761 -0.0395
  904loPI    C214122  18.824  15.333   3.844 -0.0940  0.0385 -0.1571
  904loPI    C314123  19.148  15.100   3.817 -0.1806 -0.1055  0.0248
  904loPI   PO414124  19.088  15.575   4.229 -0.2398  0.0243  0.0488
  904loPI   GL114125  19.095  15.703   4.654  0.1188 -0.1897 -0.0635
  904loPI   GL214126  18.895  15.467   4.724  0.3260 -0.4512  0.0502
  904loPI   C1A14127  19.146  15.813   5.068 -0.1997 -0.0430  0.2515
  904loPI   C2A14128  18.891  16.016   5.459 -0.1054 -0.2049 -0.1612
  904loPI   C3A14129  18.602  16.193   5.777 -0.1549 -0.1277  0.1380
  904loPI   C4A14130  18.537  16.221   6.143  0.0752 -0.5700  0.1186
  904loPI   C5A14131  18.619  16.489   6.544  0.2557 -0.0205  0.2331
  904loPI   C6A14132  18.827  16.595   6.817 -0.0351 -0.2392  0.0671
  904loPI   C1B14133  18.689  15.513   5.210  0.0260 -0.0109 -0.0369
  904loPI   C2B14134  18.641  15.503   5.600  0.0325 -0.1413 -0.2006
  904loPI   C3B14135  18.700  15.730   5.864 -0.1193  0.0805  0.0665
  904loPI   C4B14136  18.864  15.853   6.280  0.0253  0.1843  0.2523
  905loPI    C114137   7.797   9.905   4.811 -0.1904 -0.1517 -0.0318
  905loPI    C214138   7.583  10.166   4.598 -0.0597 -0.0242 -0.0086
  905loPI    C314139   7.776   9.869   4.413  0.4168  0.3448 -0.1250
  905loPI   PO414140   7.662   9.821   4.984 -0.1219  0.3676 -0.3576
  905loPI   GL114141   7.530   9.601   5.490 -0.2137  0.2352  0.1927
  905loPI   GL214142   7.590   9.242   5.497  0.0298 -0.0072 -0.6118
  905loPI   C1A14143   7.592   9.716   5.906  0.2384 -0.2122 -0.4044
  905loPI   C2A14144   7.597   9.640   6.405 -0.0878 -0.1605 -0.1494
  905loPI   C3A14145   7.712   9.474   6.877 -0.1031 -0.1202 -0.2572
  905loPI   C4A14146   7.853   9.306   7.221 -0.2881  0.0548 -0.2068
  905loPI   C5A14147   8.102   8.954   7.295 -0.3697  0.0206 -0.1488
  905loPI   C6A14148   8.224   8.576   7.513  0.0981  0.1730 -0.0072
  905loPI   C1B14149   7.442   9.217   5.928 -0.0122  0.2430  0.2658
  905loPI   C2B14150   7.401   9.099   6.378  0.1636 -0.2103 -0.2309
  905loPI   C3B14151   7.463   9.038   6.800 -0.1609 -0.2505 -0.1030
  905loPI   C4B14152   7.481   9.020   7.256  0.0585  0.0783 -0.0592
  906loPI    C114153  16.988  14.065   4.633 -0.2817  0.1073  0.0861
  906loPI    C214154  17.287  14.285   4.484 -0.0388 -0.0497  0.3309
  906loPI    C314155  17.207  13.925   4.328 -0.1420  0.0179  0.2257
  906loPI   PO414156  16.767  14.388   4.679 -0.4980 -0.0254  0.4489
  906loPI   GL114157  16.736  14.694   5.044  0.1118 -0.3063 -0.1303
  906loPI   GL214158  17.013  14.469   5.137  0.0122  0.0474  0.2635
  906loPI   C1A14159  16.834  14.836   5.465 -0.4378 -0.1874 -0.2638
  906loPI   C2A14160  16.773  14.745   5.922 -0.1825 -0.3032 -0.3337
  906loPI   C3A14161  16.773  14.505   6.283 -0.2652  0.3672  0.1616
  906loPI   C4A14162  16.573  14.291   6.614  0.1776  0.3416  0.1193
  906loPI   C5A14163  16.170  14.373   6.989 -0.1615  0.0368 -0.2633
  906loPI   C6A14164  16.024  14.761   7.209  0.2545 -0.2896 -0.0670
  906loPI   C1B14165  16.735  14.306   5.376  0.0086  0.1139  0.1280
  906loPI   C2B14166  16.499  14.053   5.558 -0.2662  0.2272 -0.0867
  906loPI   C3B14167  16.302  13.871   5.974 -0.0577 -0.1733  0.0540
  906loPI   C4B14168  16.317  13.964   6.322  0.0393 -0.0951 -0.0690
  907loPI    C114169   1.610  12.104   4.459  0.0738  0.1865  0.2372
  907loPI    C214170   1.935  11.897   4.566 -0.1252 -0.2718 -0.0140
  907loPI    C314171   1.888  12.014   4.186 -0.0426  0.1976  0.1139
  907loPI   PO414172   1.578  12.307   4.638 -0.0310  0.1429 -0.3808
  907loPI   GL114173   1.487  12.489   5.057  0.1005  0.0414 -0.0146
  907loPI   GL214174   1.576  12.809   5.184  0.1902 -0.1498 -0.0148
  907loPI   C1A14175   1.293  12.284   5.448 -0.2511 -0.1319 -0.2255
  907loPI   C2A14176   1.133  12.378   5.831  0.0693  0.1125  0.0065
  907loPI   C3A14177   1.079  12.525   6.218 -0.0870 -0.0429 -0.1201
  907loPI   C4A14178   0.869  12.614   6.650 -0.2504  0.3560  0.0750
  907loPI   C5A14179   0.728  12.523   7.061  0.1486 -0.3772 -0.0032
  907loPI   C6A14180   0.424  12.899   7.215  0.0693  0.1170 -0.0129
  907loPI   C1B14181   1.482  12.799   5.682  0.0736 -0.3396  0.2397
  907loPI   C2B14182   1.598  12.836   6.047  0.0007 -0.2206  0.3552
  907loPI   C3B14183   1.478  12.606   6.440  0.0866 -0.2778  0.1253
  907loPI   C4B14184   1.172  12.243   6.656  0.1337  0.3773  0.0375
  908loPI    C114185  10.193  16.804   4.544 -0.0689  0.0728  0.0281
  908loPI    C214186  10.513  16.638   4.369 -0.1627 -0.0532 -0.0257
  908loPI    C314187  10.222  16.798   4.145 -0.1318  0.0734  0.0233
  908loPI   PO414188  10.152  16.611   4.749 -0.0056  0.1490  0.1239
  908loPI   GL114189   9.895  16.629   5.078  0.1052  0.0400  0.1259
  908loPI   GL214190   9.891  16.381   5.292  0.0983  0.1609 -0.2630
  908loPI   C1A14191   9.693  16.788   5.510  0.2084  0.4298 -0.0241
  908loPI   C2A14192   9.645  16.985   5.897 -0.1926 -0.2062 -0.0761
  908loPI   C3A14193   9.528  16.988   6.285 -0.1289 -0.2954 -0.1643
  908loPI   C4A14194   9.510  17.031   6.722  0.1965 -0.0004  0.3246
  908loPI   C5A14195   9.588  16.877   7.202  0.3908 -0.0968  0.0633
  908loPI   C6A14196   9.454  16.664   7.570  0.2413 -0.1459 -0.0166
  908loPI   C1B14197  10.043  16.497   5.696 -0.0847  0.1656  0.1442
  908loPI   C2B14198  10.052  16.452   6.097  0.0049 -0.1570  0.1944
  908loPI   C3B14199  10.128  16.357   6.491  0.5333 -0.0257  0.0945
  908loPI   C4B14200  10.009  16.206   6.880  0.0216 -0.0043  0.1572
  909loPI    C114201   2.659   0.871   4.843  0.0559 -0.0495  0.1704
  909loPI    C214202   2.466   0.995   4.515  0.0898 -0.1428  0.1149
  909loPI    C314203   2.849   1.096   4.572  0.0182  0.0655  0.2387
  909loPI   PO414204   2.580   0.683   4.882 -0.0834  0.1902 -0.0006
  909loPI   GL114205   2.410   0.709   5.215  0.0295  0.2184 -0.0497
  909loPI   GL214206   2.218   0.868   5.395 -0.1382  0.2217  0.0520
  909loPI   C1A14207   2.657   0.505   5.622 -0.3444 -0.1669 -0.0814
  909loPI   C2A14208   2.648   0.387   5.978  0.0819  0.0140  0.1437
  909loPI   C3A14209   2.580   0.237   6.381 -0.1277  0.3350 -0.2207
  909loPI   C4A14210   2.480   0.203   6.779  0.1522  0.0556  0.4198
  909loPI   C5A14211   2.286  -0.112   7.067 -0.0236  0.1887  0.1066
  909loPI   C6A14212   1.847  -0.197   7.257 -0.2259  0.1190 -0.0802
  909loPI   C1B14213   2.402   0.836   5.814 -0.2103  0.1242 -0.2663
  909loPI   C2B14214   2.557   0.912   6.219 -0.3848 -0.0160 -0.1942
  909loPI   C3B14215   2.487   0.928   6.727  0.0880  0.3360 -0.3429
  909loPI   C4B14216   2.783   0.757   7.060 -0.0295  0.0872 -0.1068
  910loPI    C114217  17.811  11.984   4.301  0.1847  0.0413 -0.3590
  910loPI    C214218  17.861  11.601   4.197  0.0721 -0.0268 -0.1667
  910loPI    C314219  17.802  11.878   3.915 -0.1564 -0.1973 -0.2903
  910loPI   PO414220  17.971  12.023   4.463  0.0719 -0.0648  0.0643
  910loPI   GL114221  17.970  12.049   4.895  0.0847 -0.1248 -0.0045
  910loPI   GL214222  17.879  12.393   4.997 -0.1830  0.1417 -0.5045
  910loPI   C1A14223  17.990  12.042   5.384  0.0979 -0.1901 -0.0588
  910loPI   C2A14224  17.940  12.237   5.819  0.2239  0.1507  0.0122
  910loPI   C3A14225  17.618  12.146   6.124 -0.0967  0.0361 -0.0828
  910loPI   C4A14226  17.289  11.852   6.191  0.1716  0.0377 -0.2086
  910loPI   C5A14227  17.258  11.606   5.808  0.5400 -0.0723  0.2407
  910loPI   C6A14228  17.520  11.310   5.568  0.0280 -0.3293 -0.1427
  910loPI   C1B14229  17.859  12.599   5.296  0.2331  0.2700 -0.3442
  910loPI   C2B14230  17.653  12.569   5.563  0.0012  0.0466  0.2785
  910loPI   C3B14231  17.304  12.324   5.787 -0.1401  0.0183  0.4201
  910loPI   C4B14232  17.112  12.296   6.183 -0.0215  0.2453  0.2078
  911loPI    C114233   5.260  19.266   4.387  0.1223 -0.1004  0.0353
  911loPI    C214234   5.564  19.263   4.646  0.2790  0.0086 -0.1444
  911loPI    C314235   5.344  19.595   4.599 -0.0732 -0.1649  0.2163
  911loPI   PO414236   5.085  19.128   4.504  0.4302  0.0237 -0.0010
  911loPI   GL114237   5.193  18.924   4.956  0.1131  0.1977  0.1262
  911loPI   GL214238   5.216  19.186   5.086  0.2372 -0.1355  0.1225
  911loPI   C1A14239   5.280  18.862   5.474  0.0414  0.0091  0.0481
  911loPI   C2A14240   5.364  18.971   5.881  0.3483 -0.4553  0.0693
  911loPI   C3A14241   5.311  19.055   6.251  0.2311  0.0096  0.2684
  911loPI   C4A14242   5.384  18.859   6.677  0.1017 -0.2635 -0.0888
  911loPI   C5A14243   5.217  18.965   6.997 -0.2153  0.1119  0.1638
  911loPI   C6A14244   4.891  19.302   7.211 -0.3133 -0.1334 -0.2701
  911loPI   C1B14245   5.416  19.431   5.380  0.1528  0.0280 -0.3322
  911loPI   C2B14246   5.174  19.369   5.771 -0.0921  0.2431  0.1200
  911loPI   C3B14247   4.960  19.413   6.231  0.1414 -0.4327  0.1316
  911loPI   C4B14248   5.100  19.309   6.624  0.0301 -0.0160  0.1707
  912loPI    C114249   8.607   6.530   4.562 -0.0913 -0.0355  0.0617
  912loPI    C214250   8.599   6.634   4.176  0.0632  0.2733  0.1384
  912loPI    C314251   8.950   6.590   4.364 -0.0008 -0.2526  0.1491
  912loPI   PO414252   8.511   6.665   4.712 -0.3591  0.1689  0.0385
  912loPI   GL114253   8.578   6.709   5.131  0.2097 -0.1031  0.0350
  912loPI   GL214254   8.708   6.962   5.219 -0.0244  0.0579 -0.2125
  912loPI   C1A14255   8.732   6.416   5.487 -0.0308 -0.0258 -0.2271
  912loPI   C2A14256   8.707   6.161   5.737 -0.1783 -0.2304  0.0746
  912loPI   C3A14257   8.633   5.907   6.003  0.0642 -0.0279 -0.0619
  912loPI   C4A14258   8.633   5.906   6.394 -0.1043 -0.2826  0.0809
  912loPI   C5A14259   8.721   6.281   6.757 -0.2884 -0.1138 -0.2627
  912loPI   C6A14260   8.616   6.760   6.702  0.2667  0.1550 -0.0491
  912loPI   C1B14261   8.650   6.889   5.645  0.0417  0.1346  0.2791
  912loPI   C2B14262   8.757   6.673   5.925  0.3159  0.1026  0.2994
  912loPI   C3B14263   8.884   6.699   6.303 -0.0675  0.2890  0.1204
  912loPI   C4B14264   9.145   6.879   6.676 -0.0476  0.0396 -0.0279
  913loPI    C114265   4.666  18.245   4.779 -0.0069 -0.0807 -0.0005
  913loPI    C214266   4.553  17.876   4.883 -0.0666 -0.0429  0.0699
  913loPI    C314267   4.672  17.950   4.509  0.0683 -0.1613  0.0881
  913loPI   PO414268   4.707  18.429   4.896 -0.2500  0.1989 -0.1017
  913loPI   GL114269   4.758  18.587   5.180 -0.0109  0.0343  0.0667
  913loPI   GL214270   5.012  18.513   5.389  0.2703  0.1459  0.0515
  913loPI   C1A14271   4.547  18.617   5.511 -0.1799  0.1120 -0.0673
  913loPI   C2A14272   4.485  18.571   5.963 -0.1467  0.0561 -0.1574
  913loPI   C3A14273   4.528  18.474   6.405 -0.1586  0.0834 -0.2017
  913loPI   C4A14274   4.380  18.249   6.737  0.1304 -0.2222  0.0846
  913loPI   C5A14275   4.053  18.082   6.961  0.0132  0.0976  0.0787
  913loPI   C6A14276   3.726  18.024   7.236  0.0888 -0.1637 -0.0928
  913loPI   C1B14277   5.060  18.519   5.852  0.0009 -0.2643 -0.1464
  913loPI   C2B14278   5.138  18.624   6.311 -0.4094  0.1688 -0.1850
  913loPI   C3B14279   5.009  18.453   6.683 -0.0466 -0.4225  0.0375
  913loPI   C4B14280   4.872  18.363   7.174 -0.2380  0.0417 -0.3519
  914loPI    C114281   0.977   5.135   4.395  0.2037  0.2524 -0.0509
  914loPI    C214282   1.028   4.924   4.731 -0.1311  0.3344  0.0547
  914loPI    C314283   1.231   4.826   4.401 -0.1140 -0.0117  0.1643
  914loPI   PO414284   0.941   5.414   4.538 -0.3367  0.0004 -0.3555
  914loPI   GL114285   1.004   5.427   4.961 -0.1953 -0.1000 -0.1731
  914loPI   GL214286   1.100   5.723   4.900 -0.0258  0.1747  0.2215
  914loPI   C1A14287   0.758   5.452   5.350  0.0529 -0.1971 -0.0246
  914loPI   C2A14288   0.526   5.160   5.783  0.0019 -0.0016 -0.1060
  914loPI   C3A14289   0.411   5.016   6.205 -0.3258  0.1655  0.3570
  914loPI   C4A14290   0.427   5.085   6.665 -0.1874 -0.0496  0.1212
  914loPI   C5A14291   0.509   5.531   6.876 -0.1419  0.0615 -0.0055
  914loPI   C6A14292   0.514   5.800   7.180 -0.2775  0.1935 -0.0903
  914loPI   C1B14293   1.212   5.652   5.385  0.0841  0.0695 -0.1816
  914loPI   C2B14294   1.096   5.540   5.789  0.0618 -0.0736 -0.1462
  914loPI   C3B14295   0.853   5.359   6.109 -0.2348 -0.0687 -0.0907
  914loPI   C4B14296   0.791   5.338   6.500  0.0448 -0.1333 -0.0334
  915loPI    C114297  17.313   9.561   4.870  0.2386  0.2866  0.1480
  915loPI    C214298  17.711   9.548   4.833  0.2086  0.0950 -0.1362
  915loPI    C314299  17.492   9.744   4.563  0.0872 -0.0856 -0.1704
  915loPI   PO414300  17.284   9.594   5.095  0.2365 -0.1955  0.0386
  915loPI   GL114301  17.027   9.756   5.365  0.4583  0.0748 -0.1561
  915loPI   GL214302  16.660   9.619   5.418 -0.1010 -0.5104  0.1910
  915loPI   C1A14303  17.251   9.748   5.718 -0.0246  0.1150 -0.3051
  915loPI   C2A14304  17.439   9.827   6.123  0.3838  0.1284  0.2900
  915loPI   C3A14305  17.634  10.177   6.343  0.2250 -0.1638  0.2441
  915loPI   C4A14306  18.082  10.418   6.418  0.0367 -0.1909  0.1463
  915loPI   C5A14307  18.416  10.483   6.134 -0.1553  0.1778 -0.2003
  915loPI   C6A14308  18.754  10.433   5.840 -0.3916 -0.1004 -0.2451
  915loPI   C1B14309  16.685   9.777   5.771  0.1879 -0.1699  0.1069
  915loPI   C2B14310  16.456   9.773   6.076  0.4028  0.1027  0.0914
  915loPI   C3B14311  16.286   9.518   6.383 -0.2048 -0.2605 -0.1406
  915loPI   C4B14312  16.398   9.297   6.746  0.2977  0.0060  0.2581
  916loPI    C114313   0.223  18.313   4.197 -0.0472 -0.0973  0.0900
  916loPI    C214314   0.263  17.972   4.401 -0.2491 -0.2250 -0.0805
  916loPI    C314315   0.521  18.061   4.108 -0.2284 -0.2570 -0.0721
  916loPI   PO414316   0.141  18.457   4.345  0.1497 -0.0831  0.1243
  916loPI   GL114317   0.151  18.325   4.755  0.0368 -0.2017  0.5488
  916loPI   GL214318   0.351  18.565   4.935  0.1344  0.0757 -0.0299
  916loPI   C1A14319   0.123  18.043   5.060 -0.1056 -0.0000  0.0450
  916loPI   C2A14320   0.205  18.015   5.462 -0.2283  0.0544 -0.2131
  916loPI   C3A14321   0.557  18.078   5.727  0.1664  0.0571  0.3484
  916loPI   C4A14322   0.572  18.060   6.201 -0.0157  0.1589 -0.1452
  916loPI   C5A14323   0.720  17.793   6.635 -0.2179  0.2024  0.1084
  916loPI   C6A14324   0.906  17.802   7.089  0.0342  0.2404  0.0378
  916loPI   C1B14325   0.288  18.588   5.346 -0.1053  0.0246  0.1176
  916loPI   C2B14326   0.222  18.463   5.759  0.1361  0.3730  0.0324
  916loPI   C3B14327   0.052  18.691   6.175 -0.0506 -0.3072  0.0511
  916loPI   C4B14328   0.139  18.849   6.589 -0.2021  0.3481  0.0610
  917loPI    C114329   5.574   2.882   4.516 -0.2166  0.2258 -0.1152
  917loPI    C214330   5.603   2.539   4.719  0.0687  0.3339  0.0316
  917loPI    C314331   5.341   2.572   4.419  0.0092  0.0032  0.0436
  917loPI   PO414332   5.617   3.059   4.699  0.1124  0.1723  0.0860
  917loPI   GL114333   5.803   3.050   5.032  0.3038  0.3436  0.4174
  917loPI   GL214334   5.645   3.181   5.249  0.4638 -0.0989 -0.0303
  917loPI   C1A14335   6.137   3.112   5.373  0.6032  0.0122  0.0373
  917loPI   C2A14336   6.178   3.057   5.780 -0.0833  0.0470  0.0756
  917loPI   C3A14337   6.159   2.979   6.206 -0.0340 -0.0490  0.0556
  917loPI   C4A14338   6.093   3.092   6.507  0.2043 -0.1510 -0.1974
  917loPI   C5A14339   6.082   2.946   6.943 -0.0869 -0.0289  0.2013
  917loPI   C6A14340   6.040   2.734   7.283  0.1211  0.1977  0.0083
  917loPI   C1B14341   5.675   3.220   5.646  0.1302  0.2767  0.0918
  917loPI   C2B14342   5.798   3.418   6.080  0.0831  0.2311  0.1643
  917loPI   C3B14343   5.802   3.506   6.454  0.3248 -0.0908  0.0737
  917loPI   C4B14344   6.225   3.566   6.650 -0.0470 -0.0983  0.0798
  918loPI    C114345   4.017  15.663   5.232 -0.1612 -0.1984  0.1724
  918loPI    C214346   3.939  15.406   4.935 -0.0271 -0.0056 -0.0331
  918loPI    C314347   3.640  15.609   5.108 -0.0793  0.0720 -0.2126
  918loPI   PO414348   4.293  15.579   5.288  0.1083  0.2503 -0.1234
  918loPI   GL114349   4.462  15.397   5.742  0.0653 -0.1089  0.2159
  918loPI   GL214350   4.456  15.705   5.788  0.1695  0.2185 -0.2102
  918loPI   C1A14351   4.673  15.525   6.225 -0.0058  0.0910  0.4981
  918loPI   C2A14352   4.713  15.491   6.686 -0.0563 -0.0609 -0.4346
  918loPI   C3A14353   4.493  15.338   7.032 -0.1452 -0.1227  0.0673
  918loPI   C4A14354   4.194  15.457   7.314  0.1100 -0.1320  0.1857
  918loPI   C5A14355   4.044  15.943   7.304  0.2115  0.0302  0.1836
  918loPI   C6A14356   4.067  16.291   7.372  0.0030  0.0016 -0.0435
  918loPI   C1B14357   4.318  15.902   6.157 -0.3245  0.2589 -0.6261
  918loPI   C2B14358   4.091  15.921   6.509 -0.3834 -0.1217 -0.1798
  918loPI   C3B14359   4.206  16.229   6.834  0.0466 -0.1850 -0.2061
  918loPI   C4B14360   4.553  16.138   7.217  0.3054 -0.0500  0.0970
  919loPI    C114361   7.935   4.737   4.595  0.0590 -0.0279 -0.0110
  919loPI    C214362   7.775   5.078   4.730  0.0174 -0.0618  0.0252
  919loPI    C314363   7.588   4.869   4.445 -0.1085 -0.2074  0.2116
  919loPI   PO414364   7.986   4.578   4.809  0.2271 -0.2236  0.0302
  919loPI   GL114365   8.017   4.376   5.075  0.1561 -0.2171 -0.2315
  919loPI   GL214366   8.027   4.101   5.171  0.1029  0.0318  0.0975
  919loPI   C1A14367   8.022   4.571   5.428  0.1458 -0.0528 -0.0458
  919loPI   C2A14368   8.020   4.613   5.851 -0.1416  0.1009 -0.1221
  919loPI   C3A14369   8.030   4.484   6.272 -0.2854 -0.1445  0.0676
  919loPI   C4A14370   8.122   4.444   6.733 -0.0643 -0.0334  0.1333
  919loPI   C5A14371   7.993   4.184   7.092  0.0526 -0.2508  0.1793
  919loPI   C6A14372   7.874   4.282   7.534 -0.1175 -0.0212  0.1006
  919loPI   C1B14373   7.934   4.019   5.499  0.1837 -0.3387  0.1251
  919loPI   C2B14374   7.923   4.118   5.852 -0.1082 -0.1847  0.2631
  919loPI   C3B14375   7.877   3.972   6.217  0.1387 -0.1524  0.1437
  919loPI   C4B14376   8.049   3.950   6.660  0.0694 -0.1903 -0.1570
  920loPI    C114377   9.549  17.836   4.285  0.1799 -0.5023 -0.1077
  920loPI    C214378   9.318  17.936   3.974  0.0566  0.2970  0.2173
  920loPI    C314379   9.218  17.626   4.206 -0.0695 -0.0536 -0.2880
  920loPI   PO414380   9.608  18.079   4.468 -0.2833  0.2938  0.1416
  920loPI   GL114381   9.455  18.150   4.869  0.1236  0.1062  0.0856
  920loPI   GL214382   9.652  18.527   4.944  0.1348 -0.0007 -0.0672
  920loPI   C1A14383   9.365  18.329   5.324 -0.0081  0.1944  0.0967
  920loPI   C2A14384   9.035  18.341   5.673 -0.2354  0.0549  0.0558
  920loPI   C3A14385   8.864  18.168   6.027 -0.2134  0.1290  0.0837
  920loPI   C4A14386   8.762  18.181   6.467 -0.0529  0.0158 -0.2225
  920loPI   C5A14387   8.602  18.056   6.884 -0.0040  0.0161 -0.1382
  920loPI   C6A14388   8.345  17.670   6.975  0.4621 -0.0068  0.1747
  920loPI   C1B14389   9.868  18.688   5.345  0.0973  0.3402  0.0547
  920loPI   C2B14390   9.914  18.692   5.796  0.1479 -0.1381 -0.0398
  920loPI   C3B14391   9.916  18.496   6.181  0.0189  0.2568 -0.1446
  920loPI   C4B14392   9.681  18.325   6.509 -0.0694 -0.3317 -0.1581
  921loPI    C114393  19.314  11.133   4.668 -0.0048  0.0482 -0.0422
  921loPI    C214394  19.121  10.848   4.464  0.0432 -0.1116  0.1332
  921loPI    C314395  19.453  11.013   4.312  0.0163 -0.1500  0.0318
  921loPI   PO414396  19.281  11.045   4.901 -0.0843  0.1024  0.2488
  921loPI   GL114397  19.598  11.256   5.244 -0.1705  0.0538 -0.2772
  921loPI   GL214398  19.217  11.276   5.369 -0.2249  0.3838 -0.3764
  921loPI   C1A14399  19.661  11.358   5.629  0.0986 -0.1049  0.0892
  921loPI   C2A14400  19.460  11.447   5.951  0.0029 -0.0156  0.1490
  921loPI   C3A14401  19.433  11.533   6.311  0.0048 -0.1323 -0.1609
  921loPI   C4A14402  19.460  11.658   6.631  0.0328 -0.1296 -0.2441
  921loPI   C5A14403  19.574  11.839   7.047  0.0870 -0.0717  0.1629
  921loPI   C6A14404  19.420  12.228   7.122  0.2251 -0.0133 -0.0180
  921loPI   C1B14405  19.300  11.023   5.727 -0.0765 -0.1425 -0.0927
  921loPI   C2B14406  19.381  10.997   6.140  0.0148 -0.1425  0.1331
  921loPI   C3B14407  19.243  10.878   6.505 -0.1866  0.3136 -0.1001
  921loPI   C4B14408  19.002  10.624   6.831 -0.2126 -0.1087 -0.3676
  922loPI    C114409   6.630   4.831   4.526  0.0551  0.1134  0.0430
  922loPI    C214410   6.787   4.513   4.340  0.1561  0.0702  0.1994
  922loPI    C314411   6.559   4.772   4.137 -0.0328 -0.1705  0.0998
  922loPI   PO414412   6.493   4.644   4.737  0.2220  0.0750 -0.1826
  922loPI   GL114413   6.377   4.771   5.116 -0.0373  0.1860 -0.2430
  922loPI   GL214414   6.311   4.578   5.248  0.0888  0.0507 -0.0626
  922loPI   C1A14415   6.394   4.888   5.585  0.1733 -0.1334  0.2672
  922loPI   C2A14416   6.379   5.011   6.075 -0.3348 -0.0372  0.1320
  922loPI   C3A14417   6.624   4.958   6.407 -0.0475 -0.1181  0.2121
  922loPI   C4A14418   6.881   4.963   6.724 -0.1018  0.1460 -0.1656
  922loPI   C5A14419   7.037   5.223   7.034  0.1514 -0.0598  0.2033
  922loPI   C6A14420   7.189   4.982   7.382 -0.4013 -0.2739 -0.4088
  922loPI   C1B14421   6.028   4.455   5.582 -0.0594 -0.1844 -0.0532
  922loPI   C2B14422   5.746   4.418   5.860 -0.1883 -0.0149 -0.1883
  922loPI   C3B14423   5.582   4.314   6.267 -0.1857  0.0574  0.4750
  922loPI   C4B14424   5.185   4.310   6.561  0.4547 -0.0464  0.2199
  923loPI    C114425   8.888   8.509   4.868  0.0881 -0.0614  0.0265
  923loPI    C214426   9.251   8.401   4.997  0.1099  0.0135  0.0279
  923loPI    C314427   9.204   8.541   4.625  0.0627 -0.1106 -0.0131
  923loPI   PO414428   8.778   8.356   4.982 -0.0535 -0.3212  0.2032
  923loPI   GL114429   8.658   8.081   5.411 -0.0728 -0.2369 -0.3301
  923loPI   GL214430   8.922   7.846   5.574 -0.0084  0.0106 -0.4048
  923loPI   C1A14431   8.723   8.302   5.757 -0.1460 -0.0885 -0.0657
  923loPI   C2A14432   8.712   8.173   6.160  0.0216 -0.0247  0.0426
  923loPI   C3A14433   8.722   8.215   6.648  0.0064 -0.1950  0.1904
  923loPI   C4A14434   8.693   7.931   6.935  0.1462  0.3217  0.2553
  923loPI   C5A14435   8.377   7.722   7.124 -0.1122  0.2039  0.2749
  923loPI   C6A14436   8.449   7.586   7.544  0.0866  0.4202  0.1911
  923loPI   C1B14437   8.608   7.726   5.969 -0.2799 -0.2637  0.2120
  923loPI   C2B14438   8.556   7.588   6.414  0.1645  0.2592  0.0479
  923loPI   C3B14439   8.080   7.707   6.716  0.3238  0.3747  0.2922
  923loPI   C4B14440   7.710   8.009   6.777  0.0919 -0.0881 -0.0885
  924loPI    C114441  17.612  19.209   4.379  0.0552  0.0894 -0.1195
  924loPI    C214442  17.968  19.128   4.217  0.0594 -0.0155 -0.0593
  924loPI    C314443  17.639  18.950   4.075  0.0818 -0.2231  0.1428
  924loPI   PO414444  17.638  19.131   4.614 -0.3839  0.1551  0.2206
  924loPI   GL114445  17.480  18.842   4.888 -0.4212 -0.1088 -0.0594
  924loPI   GL214446  17.700  18.591   4.944  0.2709  0.0325  0.1037
  924loPI   C1A14447  17.172  18.886   5.125 -0.3149  0.1365 -0.0372
  924loPI   C2A14448  16.926  18.840   5.495 -0.1208 -0.0937  0.2747
  924loPI   C3A14449  16.871  19.113   5.920  0.1030 -0.0053  0.1758
  924loPI   C4A14450  16.899  19.132   6.409 -0.0898  0.0283  0.0585
  924loPI   C5A14451  16.814  18.969   6.728  0.2100 -0.4584  0.0570
  924loPI   C6A14452  16.807  18.796   7.173  0.0790 -0.0805  0.0343
  924loPI   C1B14453  17.848  18.816   5.428 -0.0793  0.0454 -0.1495
  924loPI   C2B14454  18.061  19.093   5.518 -0.0930  0.0608 -0.0155
  924loPI   C3B14455  18.234  19.192   5.956 -0.1987  0.0415  0.0225
  924loPI   C4B14456  18.539  19.468   6.161  0.1129 -0.2969 -0.2991
  925loPI    C114457  15.507   7.365   4.440 -0.1524  0.0872  0.0773
  925loPI    C214458  15.208   7.448   4.189 -0.0774 -0.0437 -0.0567
  925loPI    C314459  15.535   7.677   4.192 -0.0384 -0.0977 -0.1460
  925loPI   PO414460  15.340   7.363   4.724 -0.0790  0.0976 -0.1708
  925loPI   GL114461  15.160   7.358   5.134  0.0078  0.2873  0.2050
  925loPI   GL214462  15.231   7.093   5.350  0.4810 -0.0326  0.2537
  925loPI   C1A14463  14.948   7.559   5.415 -0.1012 -0.4225 -0.0882
  925loPI   C2A14464  14.745   7.687   5.784  0.0402  0.0446  0.2618
  925loPI   C3A14465  14.701   7.806   6.188  0.1564 -0.0545 -0.1515
  925loPI   C4A14466  14.677   7.854   6.618  0.1492 -0.1469 -0.0959
  925loPI   C5A14467  14.689   8.157   6.977  0.2885 -0.0902 -0.0527
  925loPI   C6A14468  14.815   7.893   7.305  0.1322  0.2045  0.0923
  925loPI   C1B14469  14.906   7.123   5.665  0.1052 -0.0793  0.1543
  925loPI   C2B14470  14.986   7.323   6.067 -0.0003 -0.1999 -0.2095
  925loPI   C3B14471  14.933   7.338   6.513  0.0057 -0.0872 -0.2314
  925loPI   C4B14472  14.991   7.646   6.940 -0.1408  0.3717 -0.1764
  926loPI    C114473   6.899   6.746   4.651 -0.2219 -0.2397  0.0363
  926loPI    C214474   6.763   6.536   4.338 -0.0122  0.1248 -0.3096
  926loPI    C314475   7.156   6.554   4.411 -0.0450  0.2164 -0.1502
  926loPI   PO414476   6.648   6.732   4.809 -0.2172 -0.0682 -0.2768
  926loPI   GL114477   6.576   6.660   5.148 -0.1487  0.2004  0.0395
  926loPI   GL214478   6.935   6.591   5.247  0.2320 -0.1883  0.1390
  926loPI   C1A14479   6.638   6.289   5.397  0.0299 -0.1158  0.0947
  926loPI   C2A14480   6.656   6.192   5.742 -0.0618 -0.2404  0.1405
  926loPI   C3A14481   6.890   6.286   6.079  0.0247 -0.1202  0.1393
  926loPI   C4A14482   7.137   6.230   6.415 -0.0594  0.0889 -0.2119
  926loPI   C5A14483   7.296   6.042   6.810 -0.0463  0.1242  0.3441
  926loPI   C6A14484   7.182   6.027   7.162  0.3334 -0.3435  0.0246
  926loPI   C1B14485   7.000   6.645   5.757  0.0722 -0.2000 -0.1190
  926loPI   C2B14486   7.260   6.585   6.105  0.0616  0.0264  0.1823
  926loPI   C3B14487   7.238   6.686   6.488 -0.0299 -0.1467 -0.0236
  926loPI   C4B14488   7.051   6.538   6.925 -0.0265  0.1544  0.2217
  927loPI    C114489  18.600   7.732   5.001 -0.0143  0.0800  0.0569
  927loPI    C214490  18.683   7.588   4.637  0.1225 -0.1195  0.1646
  927loPI    C314491  18.505   7.945   4.676  0.0730 -0.1136 -0.0974
  927loPI   PO414492  18.449   7.524   5.147 -0.2532  0.0352  0.1509
  927loPI   GL114493  18.178   7.546   5.491  0.0049 -0.0047  0.2991
  927loPI   GL214494  17.853   7.311   5.582  0.0354 -0.2823 -0.0252
  927loPI   C1A14495  18.223   7.323   5.861  0.2671 -0.2644  0.1056
  927loPI   C2A14496  18.288   7.168   6.282  0.0252 -0.2076 -0.1306
  927loPI   C3A14497  18.262   7.359   6.667 -0.2682 -0.1958  0.0071
  927loPI   C4A14498  18.205   7.216   7.099 -0.2188  0.3536  0.1412
  927loPI   C5A14499  18.194   6.772   7.243  0.1934  0.1785 -0.0942
  927loPI   C6A14500  18.294   6.311   7.291  0.1184 -0.0762  0.1997
  927loPI   C1B14501  17.727   7.175   5.886 -0.3358  0.1198 -0.0215
  927loPI   C2B14502  17.730   7.227   6.312 -0.0161  0.1036 -0.2336
  927loPI   C3B14503  17.892   7.008   6.639  0.3396 -0.3257  0.0176
  927loPI   C4B14504  17.925   6.617   6.889  0.4430  0.0951 -0.0233
  928loPI    C114505   9.446   6.875   4.971  0.1152 -0.1282  0.2798
  928loPI    C214506   9.112   6.655   4.987  0.0110  0.0079  0.0421
  928loPI    C314507   9.300   6.707   4.638  0.2116  0.0368  0.1529
  928loPI   PO414508   9.530   6.772   5.198 -0.1287  0.2475  0.3122
  928loPI   GL114509   9.368   6.602   5.536 -0.3696 -0.2255  0.1301
  928loPI   GL214510   9.103   6.765   5.494 -0.2498 -0.1114  0.2203
  928loPI   C1A14511   9.142   6.360   5.891 -0.2429  0.1499 -0.2931
  928loPI   C2A14512   9.029   6.184   6.205  0.0985  0.1898  0.0821
  928loPI   C3A14513   9.285   6.027   6.613 -0.1137  0.2925 -0.2748
  928loPI   C4A14514   9.646   5.956   6.858 -0.2008  0.2313 -0.0092
  928loPI   C5A14515   9.592   6.092   7.252  0.3523  0.3131 -0.1827
  928loPI   C6A14516   9.715   6.184   7.676 -0.0083  0.0022 -0.2073
  928loPI   C1B14517   9.132   7.003   5.857  0.4354 -0.1237  0.1095
  928loPI   C2B14518   9.330   6.927   6.241 -0.1392  0.0062 -0.0754
  928loPI   C3B14519   9.363   6.485   6.354 -0.1538 -0.6060 -0.0819
  928loPI   C4B14520   9.722   6.185   6.435  0.0394 -0.0356  0.1048
  929loPI    C114521  14.037  14.183   4.648 -0.0288  0.1496  0.0529
  929loPI    C214522  13.736  13.923   4.689  0.0991 -0.0159 -0.0455
  929loPI    C314523  13.868  14.020   4.324  0.1003  0.1323 -0.0064
  929loPI   PO414524  13.978  14.349   4.839  0.2562 -0.2603 -0.1972
  929loPI   GL114525  14.231  14.575   5.248 -0.0081  0.3319  0.3668
  929loPI   GL214526  14.058  14.756   5.207  0.1427  0.1422 -0.1476
  929loPI   C1A14527  14.586  14.856   5.375  0.1324  0.1094 -0.2423
  929loPI   C2A14528  14.509  15.186   5.613  0.3277 -0.0825  0.1149
  929loPI   C3A14529  14.213  15.254   5.819  0.0294 -0.2861 -0.1174
  929loPI   C4A14530  13.891  15.496   5.995  0.3586  0.0206 -0.0239
  929loPI   C5A14531  13.738  15.673   6.434 -0.0847 -0.4036 -0.0477
  929loPI   C6A14532  13.469  15.916   6.620 -0.0764 -0.0752 -0.1016
  929loPI   C1B14533  14.089  14.780   5.671 -0.6039  0.0775  0.1764
  929loPI   C2B14534  13.840  14.936   6.038 -0.1158  0.0358 -0.1090
  929loPI   C3B14535  13.308  14.919   5.957  0.0878  0.1997  0.1788
  929loPI   C4B14536  13.025  15.146   5.878 -0.2911 -0.0296  0.0690
  930loPI    C114537   2.089  11.645   4.956 -0.0934 -0.0075 -0.1811
  930loPI    C214538   2.435  11.459   4.883  0.0014  0.0911  0.0095
  930loPI    C314539   2.112  11.372   4.664  0.1628  0.0481 -0.2154
  930loPI   PO414540   2.046  11.675   5.135 -0.1961 -0.2006 -0.0879
  930loPI   GL114541   1.756  11.758   5.340  0.4478  0.0089 -0.1299
  930loPI   GL214542   1.545  11.613   5.353  0.0029  0.1262 -0.0500
  930loPI   C1A14543   1.859  11.762   5.742  0.2493  0.2213  0.1023
  930loPI   C2A14544   1.897  11.657   6.208 -0.1953 -0.2044 -0.3055
  930loPI   C3A14545   2.040  11.797   6.576  0.3404 -0.1198  0.0587
  930loPI   C4A14546   2.411  11.687   6.933  0.2041  0.1880 -0.0176
  930loPI   C5A14547   2.615  11.877   7.250 -0.2127  0.2526  0.1909
  930loPI   C6A14548   2.815  12.233   7.362 -0.1768  0.1287  0.2295
  930loPI   C1B14549   1.356  11.841   5.715 -0.1715 -0.2416  0.3053
  930loPI   C2B14550   1.290  11.968   6.201  0.0142  0.3090 -0.3117
  930loPI   C3B14551   1.533  11.862   6.575  0.0088 -0.1016 -0.1165
  930loPI   C4B14552   1.440  11.917   6.951  0.0322 -0.0716  0.1844
  931loPI    C114553   7.191  18.232   4.719 -0.1787  0.2309 -0.0107
  931loPI    C214554   7.349  18.582   4.606  0.1196  0.0607 -0.1313
  931loPI    C314555   7.436  18.248   4.403 -0.0564 -0.1057  0.0630
  931loPI   PO414556   7.250  18.205   5.063  0.0567 -0.4095 -0.2317
  931loPI   GL114557   6.935  18.132   5.357 -0.3772  0.3487  0.0401
  931loPI   GL214558   7.173  17.898   5.458  0.1291  0.1454  0.1648
  931loPI   C1A14559   6.981  18.429   5.737  0.0518  0.2270  0.0723
  931loPI   C2A14560   7.173  18.458   6.103  0.1580 -0.3500 -0.0555
  931loPI   C3A14561   7.224  18.468   6.446 -0.2890 -0.2744  0.0848
  931loPI   C4A14562   7.089  18.341   6.830 -0.1998  0.1082 -0.2297
  931loPI   C5A14563   7.134  18.354   7.180 -0.3497  0.1078  0.1060
  931loPI   C6A14564   7.120  18.149   7.591  0.1371 -0.0355 -0.1839
  931loPI   C1B14565   7.245  17.939   5.859  0.1296 -0.3103 -0.0623
  931loPI   C2B14566   7.340  17.982   6.286  0.2750  0.2350 -0.1147
  931loPI   C3B14567   7.640  17.793   6.573 -0.0489  0.1150 -0.1991
  931loPI   C4B14568   7.824  17.766   7.004  0.0467 -0.3889 -0.0951
  932loPI    C114569   6.434  11.389   5.215  0.0775 -0.1222  0.1383
  932loPI    C214570   6.240  11.736   5.165  0.2532  0.0142  0.3809
  932loPI    C314571   6.314  11.501   4.850 -0.3116 -0.0473  0.2846
  932loPI   PO414572   6.487  11.332   5.519 -0.3566  0.0718  0.5367
  932loPI   GL114573   6.190  11.331   5.744  0.1179 -0.1075  0.1293
  932loPI   GL214574   5.894  11.189   5.843 -0.1784 -0.1203 -0.2426
  932loPI   C1A14575   6.419  11.280   6.140  0.0239  0.1395 -0.3326
  932loPI   C2A14576   6.508  11.254   6.617  0.0654  0.2099  0.1304
  932loPI   C3A14577   6.418  11.332   6.955 -0.1325 -0.1720 -0.1591
  932loPI   C4A14578   6.421  11.743   7.086  0.1217  0.2204  0.1380
  932loPI   C5A14579   6.590  12.190   7.260 -0.0274  0.1977 -0.2381
  932loPI   C6A14580   6.325  12.544   7.401  0.1381  0.0973  0.2325
  932loPI   C1B14581   5.977  11.129   6.219 -0.3132  0.1057  0.0164
  932loPI   C2B14582   6.033  11.147   6.593  0.2606  0.2500 -0.1478
  932loPI   C3B14583   6.051  10.920   6.999 -0.4852 -0.4809  0.2455
  932loPI   C4B14584   5.765  10.651   7.349  0.2177  0.0211 -0.1639
  933loPI    C114585  12.549  16.531   4.042 -0.0149 -0.2068  0.2707
  933loPI    C214586  12.500  16.172   3.873  0.0389 -0.1187  0.0658
  933loPI    C314587  12.813  16.400   3.773 -0.3295  0.2523 -0.2854
  933loPI   PO414588  12.576  16.575   4.323 -0.0680 -0.3461 -0.0013
  933loPI   GL114589  12.464  16.728   4.630 -0.0992 -0.0511 -0.0042
  933loPI   GL214590  12.361  16.591   4.903  0.1860  0.1782 -0.1179
  933loPI   C1A14591  12.761  17.065   4.876  0.1363 -0.0068 -0.0286
  933loPI   C2A14592  12.708  17.499   5.073  0.0271  0.2463  0.1184
  933loPI   C3A14593  12.465  17.633   5.411 -0.1614 -0.2266 -0.0348
  933loPI   C4A14594  12.408  17.528   5.815  0.0982 -0.2510 -0.1934
  933loPI   C5A14595  12.808  17.234   5.929  0.2295 -0.2584  0.0344
  933loPI   C6A14596  12.933  16.837   5.981 -0.1440 -0.1577 -0.0892
  933loPI   C1B14597  12.079  16.580   5.333  0.0052  0.1252  0.1011
  933loPI   C2B14598  12.338  16.390   5.740  0.1150 -0.2487  0.0611
  933loPI   C3B14599  12.530  16.513   6.081 -0.1907 -0.0555 -0.3463
  933loPI   C4B14600  12.531  16.929   6.324  0.3565  0.1262  0.1626
  934loPI    C114601   3.723   6.606   4.479 -0.1433 -0.0122  0.0698
  934loPI    C214602   3.956   6.540   4.160 -0.1389 -0.0337  0.0776
  934loPI    C314603   3.922   6.261   4.446 -0.0870  0.0142  0.1308
  934loPI   PO414604   3.758   6.916   4.585  0.3454 -0.0091  0.0782
  934loPI   GL114605   3.699   7.092   5.001 -0.2587 -0.2393  0.1518
  934loPI   GL214606   3.865   7.345   5.140 -0.1519 -0.2604 -0.0051
  934loPI   C1A14607   3.657   6.985   5.503 -0.0506  0.0545 -0.0236
  934loPI   C2A14608   3.617   7.091   6.002  0.0578  0.1729 -0.0092
  934loPI   C3A14609   3.555   7.232   6.419  0.3401  0.1888 -0.1096
  934loPI   C4A14610   3.697   7.463   6.846 -0.3959  0.0441 -0.0269
  934loPI   C5A14611   3.868   7.845   7.165 -0.2620  0.2542 -0.0160
  934loPI   C6A14612   3.771   7.979   7.605  0.2319  0.1705  0.1687
  934loPI   C1B14613   4.045   7.394   5.434  0.1800 -0.0008 -0.1457
  934loPI   C2B14614   4.044   7.177   5.808 -0.2481 -0.2767  0.2508
  934loPI   C3B14615   4.108   7.006   6.184  0.1014  0.4089  0.0040
  934loPI   C4B14616   4.238   6.632   6.270 -0.0745  0.3271  0.0391
  935loPI    C114617  16.689   2.333   4.571 -0.1443  0.2990  0.2561
  935loPI    C214618  16.680   2.660   4.341 -0.0394  0.0355 -0.1309
  935loPI    C314619  16.424   2.360   4.273 -0.1531  0.0437  0.2393
  935loPI   PO414620  16.601   2.431   4.824  0.1538 -0.1381 -0.2318
  935loPI   GL114621  16.742   2.499   5.243 -0.0119  0.2756  0.4196
  935loPI   GL214622  16.966   2.405   5.285 -0.2066 -0.0869 -0.0293
  935loPI   C1A14623  16.538   2.186   5.451  0.1758  0.2386 -0.0647
  935loPI   C2A14624  16.543   2.188   5.868  0.0634  0.4102 -0.3128
  935loPI   C3A14625  16.573   2.188   6.315 -0.1644  0.0015 -0.2812
  935loPI   C4A14626  16.425   2.260   6.738  0.0901 -0.1655  0.2381
  935loPI   C5A14627  16.645   2.236   7.175  0.1878  0.4752 -0.1153
  935loPI   C6A14628  16.896   2.058   7.441  0.0539  0.1989  0.0158
  935loPI   C1B14629  17.045   2.271   5.713  0.1908  0.2930  0.1400
  935loPI   C2B14630  17.025   2.140   6.040 -0.2482 -0.2429  0.0015
  935loPI   C3B14631  17.047   2.096   6.452  0.0101  0.4179  0.1400
  935loPI   C4B14632  16.915   2.304   6.671  0.1710 -0.3703  0.0751
  936loPI    C114633  17.355  11.342   4.413  0.0910 -0.1258  0.0415
  936loPI    C214634  17.719  11.217   4.522  0.1157 -0.0788  0.0132
  936loPI    C314635  17.582  11.138   4.154  0.2329  0.1932 -0.0916
  936loPI   PO414636  17.247  11.279   4.652 -0.1854 -0.1582  0.0784
  936loPI   GL114637  17.280  11.409   5.023  0.2701  0.2198 -0.1323
  936loPI   GL214638  17.383  11.635   5.166  0.0679 -0.2073 -0.0553
  936loPI   C1A14639  16.967  11.492   5.359  0.3456  0.3530 -0.2710
  936loPI   C2A14640  16.753  11.644   5.789  0.0710 -0.2967 -0.0068
  936loPI   C3A14641  16.948  11.444   6.203  0.0253 -0.2724  0.0844
  936loPI   C4A14642  16.961  11.217   6.611  0.1080 -0.1092  0.1087
  936loPI   C5A14643  16.849  11.486   7.059 -0.1727  0.1425  0.0948
  936loPI   C6A14644  16.805  11.888   7.190  0.0773  0.0386  0.1096
  936loPI   C1B14645  17.734  11.607   5.197 -0.1664  0.0574 -0.0628
  936loPI   C2B14646  17.953  11.578   5.477  0.0296 -0.2295  0.0350
  936loPI   C3B14647  18.281  11.471   5.787  0.1041  0.0671  0.0070
  936loPI   C4B14648  18.513  11.439   6.162  0.0008  0.0701 -0.1038
  937loPI    C114649   7.952  18.205   4.421 -0.0081  0.1172  0.0249
  937loPI    C214650   8.033  17.817   4.367  0.2423  0.1839 -0.0963
  937loPI    C314651   7.759  17.997   4.139 -0.2065 -0.0248  0.2616
  937loPI   PO414652   8.184  18.403   4.535 -0.5646 -0.1073  0.0215
  937loPI   GL114653   8.201  18.517   4.913 -0.0959 -0.3278 -0.1244
  937loPI   GL214654   8.299  18.832   5.086 -0.0925 -0.0998  0.1648
  937loPI   C1A14655   8.279  18.397   5.311 -0.0551  0.2746  0.0354
  937loPI   C2A14656   8.021  18.387   5.759  0.2278  0.0669  0.0112
  937loPI   C3A14657   8.144  18.298   6.130  0.1086 -0.3007 -0.1891
  937loPI   C4A14658   8.315  18.466   6.534 -0.2111  0.0075 -0.0100
  937loPI   C5A14659   8.292  18.479   7.106  0.1997 -0.3270  0.1802
  937loPI   C6A14660   7.977  18.601   7.237  0.2790  0.1227  0.1125
  937loPI   C1B14661   8.268  18.827   5.539  0.0930 -0.1687  0.0757
  937loPI   C2B14662   8.147  19.135   5.956 -0.1719  0.1643 -0.1354
  937loPI   C3B14663   7.820  19.290   6.269  0.0080 -0.0838  0.3059
  937loPI   C4B14664   7.833  19.257   6.652 -0.2891  0.0573 -0.0685
  938loPI    C114665  14.981  11.934   4.557  0.1496 -0.1976  0.1040
  938loPI    C214666  15.303  11.960   4.321  0.0380  0.2153 -0.0116
  938loPI    C314667  14.938  11.933   4.159 -0.0203  0.2303  0.1162
  938loPI   PO414668  15.008  12.146   4.761 -0.0100 -0.3258  0.0160
  938loPI   GL114669  15.253  12.154   5.070  0.0603  0.2652  0.0595
  938loPI   GL214670  15.508  12.431   5.200 -0.0132 -0.2796  0.0860
  938loPI   C1A14671  15.188  12.282   5.520 -0.0655 -0.3136 -0.1989
  938loPI   C2A14672  14.862  12.461   5.824 -0.2618  0.0881 -0.0270
  938loPI   C3A14673  14.758  12.595   6.230 -0.2629 -0.0587  0.2753
  938loPI   C4A14674  14.741  12.524   6.692 -0.2096 -0.0174 -0.4883
  938loPI   C5A14675  14.724  12.398   7.133 -0.0335 -0.0345 -0.2467
  938loPI   C6A14676  14.779  12.140   7.388 -0.1724 -0.1349 -0.2708
  938loPI   C1B14677  15.534  12.716   5.507  0.0531 -0.2995 -0.1037
  938loPI   C2B14678  15.704  12.830   5.858  0.1272  0.1007  0.2778
  938loPI   C3B14679  15.592  12.726   6.350 -0.1158  0.2053 -0.0351
  938loPI   C4B14680  15.725  12.873   6.680  0.0663  0.0596  0.0054
  939loPI    C114681   1.781   7.897   5.062  0.1268  0.3027 -0.0350
  939loPI    C214682   2.178   7.859   5.028  0.0480 -0.1298 -0.6413
  939loPI    C314683   1.941   7.541   4.974 -0.3775  0.0559  0.0108
  939loPI   PO414684   1.732   8.077   5.166 -0.2498 -0.0933 -0.4237
  939loPI   GL114685   1.979   8.148   5.516  0.0557 -0.0086 -0.0639
  939loPI   GL214686   1.995   8.442   5.578 -0.3126  0.0408  0.0445
  939loPI   C1A14687   1.835   8.018   5.857  0.3888  0.2675 -0.2911
  939loPI   C2A14688   1.923   8.054   6.342 -0.3218  0.0724 -0.4255
  939loPI   C3A14689   1.819   8.263   6.689  0.1436 -0.1827  0.1312
  939loPI   C4A14690   1.549   8.280   7.091  0.1584 -0.1743 -0.1923
  939loPI   C5A14691   1.323   8.010   7.313 -0.0120 -0.0047 -0.1463
  939loPI   C6A14692   0.897   7.855   7.587  0.3372  0.2369 -0.0004
  939loPI   C1B14693   2.245   8.300   5.924  0.0857 -0.0302 -0.1087
  939loPI   C2B14694   2.500   8.206   6.213  0.3013 -0.1090  0.2245
  939loPI   C3B14695   2.363   8.097   6.625  0.0330 -0.0155 -0.1528
  939loPI   C4B14696   2.419   8.039   6.972 -0.2332  0.0121  0.0521
  940loPI    C114697  11.103   7.834   4.764  0.0631 -0.1172 -0.1803
  940loPI    C214698  10.745   7.701   4.642 -0.0551  0.1289 -0.1090
  940loPI    C314699  11.007   7.845   4.376 -0.0934  0.1469 -0.1371
  940loPI   PO414700  11.050   7.888   4.987  0.0526  0.1668  0.3576
  940loPI   GL114701  11.282   8.053   5.297 -0.2693 -0.0932  0.2041
  940loPI   GL214702  11.114   8.152   5.472  0.2574 -0.2256  0.1885
  940loPI   C1A14703  11.331   7.941   5.870 -0.1248  0.0058  0.1761
  940loPI   C2A14704  11.547   8.164   6.230  0.1149  0.5223  0.0746
  940loPI   C3A14705  11.725   8.380   6.491  0.3243  0.0549 -0.1446
  940loPI   C4A14706  12.132   8.476   6.650  0.1998  0.2140  0.2083
  940loPI   C5A14707  12.234   8.785   6.956  0.2618  0.3536 -0.2383
  940loPI   C6A14708  12.518   8.944   7.095 -0.0266 -0.0249  0.2704
  940loPI   C1B14709  11.511   8.438   5.655  0.1244 -0.0714  0.0242
  940loPI   C2B14710  11.781   8.579   6.013  0.1590 -0.2150 -0.0913
  940loPI   C3B14711  11.981   8.835   6.283  0.1426  0.1431  0.0399
  940loPI   C4B14712  12.271   9.018   6.501 -0.3342  0.0339  0.0173
  941loPI    C114713  17.248   0.178   4.470  0.0384  0.2276 -0.0422
  941loPI    C214714  17.050   0.417   4.722 -0.0634  0.1413 -0.0395
  941loPI    C314715  16.992   0.450   4.328 -0.0246  0.1683 -0.0430
  941loPI   PO414716  17.475   0.189   4.540  0.2057  0.2408  0.0085
  941loPI   GL114717  17.501  -0.008   4.907 -0.0391 -0.0136 -0.1811
  941loPI   GL214718  17.358   0.236   5.066  0.2857  0.2433 -0.3743
  941loPI   C1A14719  17.520  -0.333   5.284  0.0876  0.1344 -0.0309
  941loPI   C2A14720  17.354  -0.499   5.570 -0.0666 -0.1456  0.2526
  941loPI   C3A14721  17.319  -0.568   5.947  0.0085 -0.1186  0.0357
  941loPI   C4A14722  17.477  -0.693   6.219 -0.1165  0.0719  0.3769
  941loPI   C5A14723  17.545  -1.026   6.407 -0.1254  0.2096  0.0479
  941loPI   C6A14724  17.850  -1.259   6.650 -0.1054  0.2318  0.2982
  941loPI   C1B14725  17.058   0.429   5.240 -0.1321  0.0698 -0.2546
  941loPI   C2B14726  17.105   0.385   5.578 -0.2773  0.0146 -0.0122
  941loPI   C3B14727  17.253   0.455   5.946  0.0982 -0.0027  0.3076
  941loPI   C4B14728  17.419   0.558   6.295  0.1888 -0.1102 -0.1294
  942loPI    C114729   3.867  16.060   4.929 -0.1022 -0.0012  0.0501
  942loPI    C214730   4.073  15.809   4.695 -0.0289  0.0750  0.0325
  942loPI    C314731   3.870  16.112   4.532 -0.1036  0.0375  0.0552
  942loPI   PO414732   4.060  16.197   5.100  0.1458  0.3048  0.1199
  942loPI   GL114733   4.287  16.037   5.437  0.1672 -0.0229 -0.0293
  942loPI   GL214734   4.458  16.193   5.468  0.1515 -0.1961 -0.3329
  942loPI   C1A14735   4.084  16.232   5.790  0.1718 -0.1295  0.1366
  942loPI   C2A14736   3.926  16.252   6.127  0.0811 -0.1847  0.1044
  942loPI   C3A14737   3.745  16.362   6.561 -0.1830  0.3931 -0.0603
  942loPI   C4A14738   3.844  16.589   6.931 -0.4404 -0.0764 -0.3257
  942loPI   C5A14739   4.062  16.927   7.099  0.1032 -0.1386 -0.2205
  942loPI   C6A14740   4.168  17.181   7.389 -0.0236  0.0839 -0.0326
  942loPI   C1B14741   4.614  16.264   5.822  0.1376 -0.2127  0.0656
  942loPI   C2B14742   4.825  16.080   6.258 -0.1758 -0.1240 -0.3962
  942loPI   C3B14743   4.639  15.990   6.604  0.0758  0.3754 -0.2724
  942loPI   C4B14744   4.353  15.758   6.928 -0.1220 -0.1669  0.2428
  943loPI    C114745   8.690   1.774   4.566 -0.1615 -0.1962  0.0926
  943loPI    C214746   8.589   1.508   4.285 -0.2495 -0.1075  0.0393
  943loPI    C314747   8.445   1.881   4.267  0.1366  0.0409 -0.0725
  943loPI   PO414748   9.027   1.686   4.628 -0.0039  0.1451 -0.2344
  943loPI   GL114749   9.100   1.928   4.982 -0.0722 -0.1213 -0.0894
  943loPI   GL214750   8.772   1.788   5.091 -0.2140  0.0017  0.0533
  943loPI   C1A14751   9.138   2.060   5.384  0.0195 -0.3891 -0.2171
  943loPI   C2A14752   9.393   1.981   5.753  0.1518 -0.4174  0.2177
  943loPI   C3A14753   9.562   1.817   6.066  0.1900 -0.0165 -0.1653
  943loPI   C4A14754   9.989   1.552   6.118  0.2019 -0.0116  0.1673
  943loPI   C5A14755  10.142   1.289   6.489  0.1030 -0.0083  0.1720
  943loPI   C6A14756   9.825   1.186   6.784 -0.0312 -0.0618  0.1389
  943loPI   C1B14757   9.107   1.541   5.411  0.1566 -0.0539 -0.1342
  943loPI   C2B14758   9.143   1.559   5.892  0.1602 -0.0193 -0.0606
  943loPI   C3B14759   9.051   1.555   6.289  0.2839  0.0778 -0.0385
  943loPI   C4B14760   8.937   1.497   6.657  0.0433  0.1406 -0.2658
  944loPI    C114761  17.501  18.497   3.942 -0.0091  0.1080  0.2977
  944loPI    C214762  17.288  18.314   3.658  0.1581  0.0105  0.2339
  944loPI    C314763  17.133  18.626   3.854  0.0920  0.1644 -0.0572
  944loPI   PO414764  17.600  18.268   4.105  0.0012 -0.0546 -0.0510
  944loPI   GL114765  17.431  18.230   4.566 -0.0774 -0.1385 -0.0684
  944loPI   GL214766  17.270  18.416   4.831  0.0472 -0.1898  0.0596
  944loPI   C1A14767  17.734  18.119   4.909 -0.4213  0.0957  0.1289
  944loPI   C2A14768  17.960  18.313   5.274  0.0200 -0.0792 -0.3014
  944loPI   C3A14769  17.914  18.295   5.720 -0.2319 -0.0691  0.0362
  944loPI   C4A14770  17.892  18.659   5.984  0.0584  0.1940  0.1498
  944loPI   C5A14771  18.002  18.859   6.355 -0.2798 -0.0760 -0.3368
  944loPI   C6A14772  18.284  18.751   6.725 -0.1884  0.2578 -0.1574
  944loPI   C1B14773  17.377  18.292   5.225 -0.2289 -0.0774 -0.0078
  944loPI   C2B14774  17.441  18.510   5.531 -0.2131 -0.0868 -0.0341
  944loPI   C3B14775  17.327  18.420   5.878  0.1160 -0.2385  0.0412
  944loPI   C4B14776  17.120  18.108   6.115  0.2059 -0.2042 -0.1251
  945loPI    C114777   3.543  18.246   4.294  0.0093 -0.0392 -0.0171
  945loPI    C214778   3.675  17.873   4.351  0.2911  0.0195 -0.2576
  945loPI    C314779   3.364  17.940   4.109  0.0318 -0.0863  0.0387
  945loPI   PO414780   3.421  18.366   4.470  0.1525 -0.1990  0.1338
  945loPI   GL114781   3.297  18.544   4.811  0.0287 -0.3833  0.0574
  945loPI   GL214782   3.496  18.554   5.091  0.2063 -0.2320 -0.1568
  945loPI   C1A14783   3.087  18.830   5.146  0.0322 -0.1173 -0.0798
  945loPI   C2A14784   3.050  18.756   5.626 -0.0480  0.0038 -0.1779
  945loPI   C3A14785   2.879  18.621   6.107 -0.0034 -0.1786  0.0653
  945loPI   C4A14786   2.579  18.385   6.382 -0.1469  0.2334 -0.2644
  945loPI   C5A14787   2.148  18.467   6.481  0.0181 -0.1635  0.0159
  945loPI   C6A14788   1.932  18.531   6.146  0.2368  0.1473  0.2007
  945loPI   C1B14789   3.440  18.397   5.476  0.0367  0.0477 -0.4302
  945loPI   C2B14790   3.471  18.359   5.913  0.1792  0.0935  0.1381
  945loPI   C3B14791   3.470  18.248   6.304 -0.2370 -0.0248  0.0757
  945loPI   C4B14792   3.590  18.067   6.679  0.1247 -0.1555  0.0066
  946loPI    C114793  13.590  17.288   3.937  0.1300  0.4021 -0.5120
  946loPI    C214794  13.989  17.278   3.957  0.1104 -0.3710 -0.1384
  946loPI    C314795  13.775  17.399   4.273  0.0384  0.1453 -0.3741
  946loPI   PO414796  13.391  17.020   4.008  0.0791 -0.2875  0.1971
  946loPI   GL114797  13.462  16.844   4.457 -0.1617  0.0108  0.0584
  946loPI   GL214798  13.338  16.681   4.772  0.0244  0.1553 -0.1890
  946loPI   C1A14799  13.440  17.218   4.612 -0.1261  0.1435 -0.2326
  946loPI   C2A14800  13.220  17.196   5.045 -0.0380 -0.2180  0.2168
  946loPI   C3A14801  13.189  17.399   5.389 -0.1263  0.2437  0.3152
  946loPI   C4A14802  12.942  17.621   5.637 -0.0468  0.1975 -0.1015
  946loPI   C5A14803  12.823  17.741   6.067 -0.2982  0.2708 -0.0757
  946loPI   C6A14804  12.582  17.880   6.465  0.0925 -0.3160  0.0063
  946loPI   C1B14805  13.077  16.727   5.060  0.0086  0.3134 -0.0058
  946loPI   C2B14806  13.037  16.847   5.389  0.1429 -0.0629  0.2060
  946loPI   C3B14807  12.710  17.169   5.434  0.0680 -0.0291 -0.2954
  946loPI   C4B14808  12.337  17.021   5.713 -0.3026 -0.0530 -0.2698
  947loPI    C114809  11.270  11.476   4.837  0.1390  0.1059  0.1342
  947loPI    C214810  11.040  11.711   5.064 -0.0019  0.1608 -0.0618
  947loPI    C314811  11.061  11.773   4.670  0.0881 -0.0538 -0.0926
  947loPI   PO414812  11.465  11.491   5.014 -0.0613 -0.1275  0.1894
  947loPI   GL114813  11.411  11.600   5.415  0.1606 -0.3285 -0.0564
  947loPI   GL214814  11.468  11.930   5.307 -0.0144  0.2828 -0.0971
  947loPI   C1A14815  11.615  11.519   5.789 -0.1388 -0.3179  0.1292
  947loPI   C2A14816  11.769  11.501   6.201  0.1863 -0.1075 -0.0057
  947loPI   C3A14817  11.879  11.386   6.523  0.2274 -0.2660 -0.0401
  947loPI   C4A14818  12.085  11.237   6.873  0.0978  0.0450  0.1464
  947loPI   C5A14819  12.065  11.187   7.330  0.4715  0.2868  0.0737
  947loPI   C6A14820  12.044  10.866   7.707  0.2944 -0.0588  0.1140
  947loPI   C1B14821  11.331  12.051   5.655 -0.1445  0.0193 -0.0331
  947loPI   C2B14822  11.401  12.079   6.190 -0.2692  0.0230 -0.1577
  947loPI   C3B14823  11.561  12.201   6.589 -0.0731 -0.1737 -0.1053
  947loPI   C4B14824  11.909  12.563   6.692 -0.0468 -0.0707  0.1226
  948loPI    C114825  14.465   7.086   4.484 -0.4035 -0.0677 -0.1186
  948loPI    C214826  14.558   6.748   4.291  0.0962  0.0461 -0.0899
  948loPI    C314827  14.480   7.081   4.084 -0.1539 -0.0244 -0.1116
  948loPI   PO414828  14.688   7.034   4.729  0.4565  0.3667  0.0187
  948loPI   GL114829  14.739   7.108   5.168 -0.0636  0.0849  0.1216
  948loPI   GL214830  14.624   7.434   5.084  0.0824 -0.0351  0.1639
  948loPI   C1A14831  14.442   7.148   5.560  0.0576 -0.1582  0.4130
  948loPI   C2A14832  14.457   7.305   6.013 -0.3323  0.1269  0.0506
  948loPI   C3A14833  14.446   7.264   6.450 -0.0162 -0.0844  0.0116
  948loPI   C4A14834  14.512   7.423   6.802  0.2210  0.0304 -0.1851
  948loPI   C5A14835  14.338   7.767   7.154 -0.0200 -0.1578  0.1405
  948loPI   C6A14836  14.257   7.964   7.503 -0.0051 -0.2395  0.1035
  948loPI   C1B14837  14.361   7.661   5.455  0.5737 -0.0986 -0.0735
  948loPI   C2B14838  14.152   7.606   5.879 -0.1897  0.0200 -0.1432
  948loPI   C3B14839  13.995   7.518   6.249  0.1236  0.3804  0.0599
  948loPI   C4B14840  14.045   7.668   6.625 -0.2271  0.0823  0.0664
  949loPI    C114841  16.638  14.992   4.432 -0.0590  0.3215 -0.1637
  949loPI    C214842  16.808  14.671   4.265  0.0267  0.2773  0.0068
  949loPI    C314843  16.487  14.838   4.095 -0.1383 -0.0171  0.0227
  949loPI   PO414844  16.598  14.981   4.631  0.2437 -0.1540 -0.0526
  949loPI   GL114845  16.706  15.225   4.943  0.0259  0.0458  0.1516
  949loPI   GL214846  16.724  15.367   4.882  0.2549  0.1674 -0.1567
  949loPI   C1A14847  16.561  15.216   5.377 -0.2397  0.1134 -0.0166
  949loPI   C2A14848  16.662  15.345   5.811 -0.0355  0.0425 -0.2676
  949loPI   C3A14849  16.652  15.601   6.243  0.1438 -0.0732 -0.0056
  949loPI   C4A14850  16.495  16.035   6.311  0.1099  0.0600  0.0024
  949loPI   C5A14851  16.680  16.487   6.498  0.0397  0.0179  0.0784
  949loPI   C6A14852  17.012  16.673   6.536 -0.0823 -0.2396 -0.0425
  949loPI   C1B14853  16.750  15.667   5.261  0.1069  0.1258  0.0757
  949loPI   C2B14854  16.551  15.875   5.607 -0.1455  0.1167 -0.3321
  949loPI   C3B14855  16.247  16.205   5.806 -0.3799  0.0778  0.0854
  949loPI   C4B14856  16.348  16.480   6.122 -0.0805 -0.0316  0.4207
  950loPI    C114857  15.029   0.628   4.164  0.0064 -0.1779 -0.0775
  950loPI    C214858  15.199   0.280   4.063  0.0748 -0.1168 -0.1732
  950loPI    C314859  15.421   0.613   4.086  0.0779 -0.1425  0.2560
  950loPI   PO414860  14.841   0.525   4.271 -0.0497  0.1570 -0.0615
  950loPI   GL114861  14.731   0.344   4.722 -0.2890 -0.0764  0.2309
  950loPI   GL214862  14.640   0.113   4.790  0.1449  0.0528 -0.1360
  950loPI   C1A14863  15.163   0.402   4.979  0.3029  0.0210  0.0064
  950loPI   C2A14864  15.545   0.578   5.250 -0.0384 -0.2289 -0.0767
  950loPI   C3A14865  15.531   0.798   5.681  0.2502  0.0474 -0.1273
  950loPI   C4A14866  15.640   1.019   6.101  0.0558  0.1522  0.0316
  950loPI   C5A14867  15.866   1.086   6.547 -0.1862 -0.0752  0.3039
  950loPI   C6A14868  15.823   1.413   6.818 -0.0280 -0.0610 -0.2986
  950loPI   C1B14869  14.994  -0.032   5.067  0.0887  0.1018  0.2888
  950loPI   C2B14870  15.217   0.041   5.443  0.0476 -0.2354 -0.0676
  950loPI   C3B14871  15.050   0.244   5.815 -0.0832  0.0967  0.1110
  950loPI   C4B14872  15.267   0.611   6.015 -0.1160  0.0596  0.1036
  951loPI    C114873   6.232   0.723   4.908  0.1266  0.0411 -0.1281
  951loPI    C214874   5.943   0.521   4.720  0.0208 -0.2031  0.2848
  951loPI    C314875   6.311   0.534   4.565 -0.0534 -0.4335  0.0836
  951loPI   PO414876   6.061   1.030   4.984  0.0856 -0.0009  0.0714
  951loPI   GL114877   5.763   0.822   5.169 -0.1910 -0.0178 -0.1250
  951loPI   GL214878   5.479   0.851   5.103 -0.1805 -0.1916  0.1453
  951loPI   C1A14879   5.736   0.938   5.536 -0.2082 -0.0726 -0.1300
  951loPI   C2A14880   5.892   0.902   5.905  0.0101  0.3493  0.0134
  951loPI   C3A14881   5.872   0.913   6.428 -0.0754 -0.0346  0.2671
  951loPI   C4A14882   5.967   0.810   6.889 -0.0259 -0.0459  0.0243
  951loPI   C5A14883   5.619   0.576   7.111 -0.2222 -0.1207  0.0111
  951loPI   C6A14884   5.752   0.178   7.278 -0.1542 -0.0271 -0.2141
  951loPI   C1B14885   5.410   0.555   5.468  0.3920 -0.0439  0.1589
  951loPI   C2B14886   5.452   0.265   5.785 -0.0825 -0.1846 -0.0354
  951loPI   C3B14887   5.518  -0.022   6.174 -0.1446  0.0450  0.2592
  951loPI   C4B14888   5.569  -0.140   6.620  0.0310 -0.0830  0.2351
  952loPI    C114889   8.288   9.779   4.692 -0.0252 -0.0509 -0.0720
  952loPI    C214890   8.192  10.121   4.506  0.0628  0.0169  0.0067
  952loPI    C314891   8.431   9.855   4.326 -0.1643 -0.0933 -0.1359
  952loPI   PO414892   8.381   9.846   4.909  0.2694  0.0971 -0.4932
  952loPI   GL114893   8.221   9.972   5.356 -0.2510 -0.0085 -0.0303
  952loPI   GL214894   7.948  10.017   5.480  0.0376 -0.1189  0.2757
  952loPI   C1A14895   8.377  10.126   5.738 -0.4228 -0.2051  0.3108
  952loPI   C2A14896   8.453  10.209   6.200 -0.0566 -0.4155  0.0314
  952loPI   C3A14897   8.509  10.322   6.593 -0.1908  0.1936 -0.1886
  952loPI   C4A14898   8.329  10.520   6.916  0.1040  0.1105  0.0721
  952loPI   C5A14899   8.128  10.190   7.180 -0.2272 -0.0304  0.1577
  952loPI   C6A14900   8.362  10.032   7.447 -0.2445 -0.1177  0.1477
  952loPI   C1B14901   8.007   9.916   5.895 -0.1787 -0.0078  0.0086
  952loPI   C2B14902   7.992   9.934   6.359 -0.0149  0.3557 -0.1463
  952loPI   C3B14903   8.027   9.913   6.790  0.1413  0.0634  0.1272
  952loPI   C4B14904   7.945   9.763   7.203  0.1920  0.1193 -0.3060
  953loPI    C114905   3.583   3.660   4.930 -0.0538 -0.0563 -0.2005
  953loPI    C214906   3.805   3.819   4.637 -0.0639 -0.0133 -0.1850
  953loPI    C314907   3.838   3.430   4.726  0.1496  0.0337 -0.0514
  953loPI   PO414908   3.665   3.798   5.108  0.2488 -0.0323 -0.1553
  953loPI   GL114909   4.019   3.946   5.290 -0.0576  0.0263 -0.1255
  953loPI   GL214910   4.351   4.006   5.345  0.0704  0.1612  0.0573
  953loPI   C1A14911   4.002   4.049   5.748  0.1317  0.0766  0.3869
  953loPI   C2A14912   3.804   4.267   6.004 -0.2826  0.2204  0.1193
  953loPI   C3A14913   3.577   4.431   6.383 -0.1650 -0.0155  0.1450
  953loPI   C4A14914   3.278   4.547   6.631  0.1556 -0.2445 -0.0125
  953loPI   C5A14915   3.003   4.384   6.976  0.2435 -0.0698 -0.0216
  953loPI   C6A14916   3.016   4.116   7.329 -0.0892  0.1381  0.0075
  953loPI   C1B14917   4.521   3.887   5.742  0.2692 -0.0253  0.2385
  953loPI   C2B14918   4.426   3.836   6.208 -0.1427  0.0173  0.0554
  953loPI   C3B14919   3.986   3.901   6.392  0.4805  0.0114  0.0513
  953loPI   C4B14920   3.636   3.844   6.168  0.0743 -0.1699 -0.1945
  954loPI    C114921   4.728  14.774   4.631  0.1007 -0.1538 -0.0057
  954loPI    C214922   4.525  15.092   4.499  0.1877 -0.1660 -0.1721
  954loPI    C314923   4.418  14.725   4.382 -0.0631 -0.2194  0.2090
  954loPI   PO414924   4.755  14.871   4.935 -0.2221 -0.1641 -0.1876
  954loPI   GL114925   4.788  14.590   5.289  0.2703  0.4553  0.1766
  954loPI   GL214926   5.135  14.676   5.372  0.0404 -0.5749  0.3851
  954loPI   C1A14927   4.516  14.719   5.584 -0.1079 -0.0319  0.2472
  954loPI   C2A14928   4.621  14.978   6.027 -0.0559  0.1073 -0.4179
  954loPI   C3A14929   4.661  15.021   6.429 -0.1185 -0.0273  0.1206
  954loPI   C4A14930   4.838  15.031   6.822  0.2443  0.2841  0.0527
  954loPI   C5A14931   5.104  14.907   7.040 -0.1970  0.0769  0.2903
  954loPI   C6A14932   5.428  14.815   7.305  0.4431  0.0896  0.3561
  954loPI   C1B14933   5.067  14.630   5.766  0.2896  0.0290 -0.1404
  954loPI   C2B14934   5.127  14.805   6.191 -0.2174  0.1034  0.3635
  954loPI   C3B14935   5.254  14.651   6.596 -0.1331 -0.1001  0.1466
  954loPI   C4B14936   5.756  14.623   6.887  0.1205  0.1055  0.0809
  955loPI    C114937   7.224  15.221   4.987  0.1578 -0.0826 -0.0612
  955loPI    C214938   7.109  14.949   4.717 -0.1435  0.0911 -0.1123
  955loPI    C314939   7.218  15.316   4.598  0.1152  0.0424 -0.0306
  955loPI   PO414940   7.053  15.150   5.259 -0.1451 -0.1473  0.2506
  955loPI   GL114941   7.051  15.303   5.670 -0.0486  0.1001  0.0019
  955loPI   GL214942   7.281  15.456   5.569  0.1188 -0.3900  0.0742
  955loPI   C1A14943   7.157  15.366   6.042  0.1744 -0.2848  0.1513
  955loPI   C2A14944   7.276  15.266   6.491  0.3478 -0.0706  0.0811
  955loPI   C3A14945   7.280  15.079   6.922 -0.2209 -0.1384  0.1765
  955loPI   C4A14946   7.725  15.070   7.019 -0.1718  0.1926 -0.2547
  955loPI   C5A14947   8.071  15.292   7.050  0.0413 -0.2538 -0.2646
  955loPI   C6A14948   8.534  15.475   7.194 -0.0312 -0.0677 -0.0681
  955loPI   C1B14949   7.582  15.651   5.834 -0.2725 -0.1676  0.0400
  955loPI   C2B14950   7.581  15.762   6.242 -0.2865  0.2409  0.1922
  955loPI   C3B14951   7.402  16.025   6.596  0.1318 -0.0652  0.0076
  955loPI   C4B14952   7.304  16.034   7.022  0.2604  0.0284 -0.1343
  956loPI    C114953  13.666  16.461   4.211  0.3068  0.1512 -0.0802
  956loPI    C214954  13.854  16.788   4.080  0.2455  0.2180 -0.0027
  956loPI    C314955  13.711  16.521   3.818  0.0694  0.3804 -0.0754
  956loPI   PO414956  13.824  16.400   4.473 -0.2933  0.3862  0.2095
  956loPI   GL114957  13.773  16.448   4.857 -0.1162 -0.2067  0.0362
  956loPI   GL214958  13.674  16.173   4.993 -0.0257  0.0520  0.0271
  956loPI   C1A14959  13.741  16.886   4.974  0.1157 -0.1855 -0.3005
  956loPI   C2A14960  13.528  16.979   5.348 -0.3510  0.2150  0.1116
  956loPI   C3A14961  13.298  17.088   5.706 -0.0085 -0.2295 -0.1250
  956loPI   C4A14962  13.282  17.405   5.991  0.2074  0.1928  0.0539
  956loPI   C5A14963  13.362  17.566   6.434  0.0646  0.0595  0.1332
  956loPI   C6A14964  13.469  17.758   6.817  0.1023 -0.0034 -0.1974
  956loPI   C1B14965  13.885  16.122   5.435  0.0185 -0.4812 -0.0470
  956loPI   C2B14966  13.951  16.209   5.849  0.0774  0.0373 -0.1718
  956loPI   C3B14967  13.983  16.091   6.230  0.1257 -0.3052  0.2796
  956loPI   C4B14968  14.206  15.980   6.567  0.0405 -0.0113 -0.0846
  957loPI    C114969   3.207   7.053   4.632 -0.0042 -0.2619 -0.0204
  957loPI    C214970   3.283   7.213   4.274  0.1995 -0.0502  0.1148
  957loPI    C314971   3.298   6.816   4.323 -0.0586 -0.0975 -0.1638
  957loPI   PO414972   3.310   7.307   4.753 -0.1135  0.0536  0.0878
  957loPI   GL114973   3.206   7.304   5.190 -0.2227 -0.1255 -0.1748
  957loPI   GL214974   3.122   6.940   5.208  0.0949  0.0939 -0.2454
  957loPI   C1A14975   3.195   7.217   5.664 -0.1023  0.3502  0.1232
  957loPI   C2A14976   3.126   7.134   6.058 -0.0195  0.1641  0.2054
  957loPI   C3A14977   2.872   7.024   6.496  0.1967 -0.1253  0.0096
  957loPI   C4A14978   2.719   7.016   6.879  0.0030 -0.1424 -0.2520
  957loPI   C5A14979   2.420   7.173   7.112 -0.2218  0.2395 -0.1712
  957loPI   C6A14980   2.104   6.976   7.299 -0.0231  0.0498  0.3035
  957loPI   C1B14981   3.295   6.624   5.529  0.4456 -0.0586  0.2756
  957loPI   C2B14982   3.292   6.692   5.928 -0.3384  0.3404  0.1247
  957loPI   C3B14983   3.229   6.733   6.393 -0.1424 -0.0613  0.1715
  957loPI   C4B14984   3.302   6.970   6.843  0.0459  0.1780 -0.1130
  958loPI    C114985  12.171   3.857   4.360  0.0279 -0.0938  0.0607
  958loPI    C214986  12.376   3.583   4.153  0.0287  0.0859 -0.1819
  958loPI    C314987  12.027   3.719   4.014 -0.0231  0.1319 -0.0101
  958loPI   PO414988  12.080   3.838   4.616 -0.0251  0.2362 -0.0186
  958loPI   GL114989  12.231   3.706   5.007 -0.1359 -0.2291 -0.0452
  958loPI   GL214990  11.970   3.477   5.084 -0.3943  0.2414  0.2668
  958loPI   C1A14991  12.243   3.862   5.368 -0.2447 -0.1354  0.0966
  958loPI   C2A14992  12.089   3.778   5.830  0.2627  0.0248  0.3424
  958loPI   C3A14993  11.865   3.849   6.155 -0.0916  0.0578  0.0595
  958loPI   C4A14994  11.685   3.873   6.462 -0.0178 -0.1596 -0.1724
  958loPI   C5A14995  11.562   3.747   6.852 -0.0774 -0.1769 -0.0359
  958loPI   C6A14996  11.525   3.329   7.149  0.4016  0.2950  0.3561
  958loPI   C1B14997  12.011   3.375   5.561  0.0245  0.1866 -0.0553
  958loPI   C2B14998  11.900   3.326   6.075  0.0663 -0.1990  0.2747
  958loPI   C3B14999  11.493   3.426   6.290 -0.0450 -0.0412  0.0383
  958loPI   C4B15000  11.111   3.539   6.591  0.0637 -0.1330 -0.3039
  959loPI    C115001  16.783   8.663   4.998 -0.2382 -0.0678 -0.1543
  959loPI    C215002  16.739   8.302   4.832 -0.1021 -0.1620  0.0118
  959loPI    C315003  17.022   8.551   4.697 -0.0281 -0.2169  0.0647
  959loPI   PO415004  16.760   8.600   5.232  0.1720  0.1944 -0.3625
  959loPI   GL115005  16.860   8.703   5.528  0.2888  0.0261 -0.1422
  959loPI   GL215006  16.767   8.354   5.636 -0.2742 -0.1080 -0.2274
  959loPI   C1A15007  16.914   8.875   5.885  0.0731 -0.0687 -0.3113
  959loPI   C2A15008  17.150   8.940   6.232 -0.2624 -0.0788 -0.1844
  959loPI   C3A15009  17.267   8.916   6.729 -0.1629  0.4344  0.0857
  959loPI   C4A15010  17.276   8.495   6.996  0.1410  0.1899 -0.0230
  959loPI   C5A15011  17.171   8.135   7.223  0.2618  0.2322 -0.1641
  959loPI   C6A15012  17.065   7.908   7.588 -0.2045  0.0243 -0.2675
  959loPI   C1B15013  16.810   8.133   6.031 -0.3830 -0.0138  0.1210
  959loPI   C2B15014  16.903   8.255   6.383  0.0892  0.3151  0.2639
  959loPI   C3B15015  16.753   8.455   6.877 -0.3352  0.0650 -0.1144
  959loPI   C4B15016  16.432   8.646   7.115 -0.1072 -0.1840 -0.1053
  960loPI    C115017   4.944  13.034   5.057 -0.2055  0.1959 -0.1413
  960loPI    C215018   4.810  12.801   4.760 -0.2540  0.2654 -0.1744
  960loPI    C315019   5.187  12.936   4.755 -0.0715 -0.2087  0.0902
  960loPI   PO415020   4.663  13.175   5.108 -0.3885 -0.0884 -0.2295
  960loPI   GL115021   4.459  13.262   5.565 -0.0666  0.0120 -0.0181
  960loPI   GL215022   4.309  13.038   5.579 -0.1093  0.3450 -0.2393
  960loPI   C1A15023   4.420  13.317   5.963  0.2184  0.3650 -0.1487
  960loPI   C2A15024   4.527  13.090   6.338 -0.0345 -0.1641  0.1040
  960loPI   C3A15025   4.741  13.121   6.702  0.0367 -0.0039 -0.3663
  960loPI   C4A15026   4.961  13.014   7.042  0.2142 -0.1437 -0.0805
  960loPI   C5A15027   4.972  13.212   7.414  0.1429 -0.3115 -0.3378
  960loPI   C6A15028   5.134  13.037   7.941 -0.1498 -0.1457  0.0859
  960loPI   C1B15029   4.454  12.806   5.879 -0.1389 -0.0864  0.1087
  960loPI   C2B15030   4.213  12.461   6.053 -0.2691 -0.2601  0.0121
  960loPI   C3B15031   4.219  12.208   6.570 -0.1708  0.0962 -0.2981
  960loPI   C4B15032   4.562  12.175   6.894 -0.1472  0.0827  0.2776
  961loPI    C115033  15.388   1.375   4.385 -0.0776 -0.0956 -0.1732
  961loPI    C215034  15.356   1.567   4.734  0.1919 -0.0670 -0.1622
  961loPI    C315035  15.584   1.719   4.442 -0.0492 -0.0791 -0.3607
  961loPI   PO415036  15.493   1.143   4.485 -0.0172  0.0984  0.0312
  961loPI   GL115037  15.468   0.975   4.970 -0.2479 -0.1738 -0.3633
  961loPI   GL215038  15.712   1.173   4.999 -0.0150 -0.1232  0.0929
  961loPI   C1A15039  15.126   0.894   5.159  0.0403  0.0820 -0.0928
  961loPI   C2A15040  15.039   0.621   5.510  0.0651 -0.0675 -0.1500
  961loPI   C3A15041  14.812   0.728   5.816  0.0040  0.0357 -0.1393
  961loPI   C4A15042  14.685   0.847   6.227  0.0443  0.0061  0.0359
  961loPI   C5A15043  15.021   0.862   6.543  0.0062 -0.3728 -0.0932
  961loPI   C6A15044  15.015   1.011   6.943  0.0526 -0.0003 -0.2313
  961loPI   C1B15045  15.790   1.079   5.385 -0.0794 -0.3023  0.5153
  961loPI   C2B15046  16.062   0.878   5.775 -0.0513 -0.0583 -0.0369
  961loPI   C3B15047  15.854   0.584   5.986  0.2907  0.1971 -0.2742
  961loPI   C4B15048  15.709   0.551   6.336 -0.1681  0.1566 -0.0896
  962loPI    C115049   3.192   5.522   4.576  0.2091  0.0625  0.1496
  962loPI    C215050   3.075   5.266   4.291 -0.0707  0.1685  0.1670
  962loPI    C315051   3.440   5.233   4.451 -0.0259 -0.0852  0.0175
  962loPI   PO415052   3.003   5.488   4.815 -0.0399 -0.0142  0.0080
  962loPI   GL115053   2.928   5.658   5.260 -0.0032 -0.0955  0.3026
  962loPI   GL215054   3.191   5.537   5.327 -0.1490  0.1260 -0.2329
  962loPI   C1A15055   2.832   5.371   5.648  0.3208 -0.2684 -0.4096
  962loPI   C2A15056   2.719   5.080   5.925  0.0332 -0.2860  0.2789
  962loPI   C3A15057   2.570   5.056   6.308  0.4126 -0.0929  0.0248
  962loPI   C4A15058   2.916   4.959   6.727 -0.2067 -0.1231  0.2827
  962loPI   C5A15059   3.236   4.838   7.024  0.0956 -0.0827 -0.1237
  962loPI   C6A15060   3.470   4.509   7.253  0.1323 -0.0449  0.0537
  962loPI   C1B15061   3.151   5.777   5.808 -0.2516 -0.0163  0.0956
  962loPI   C2B15062   3.151   5.826   6.304  0.2896  0.0749 -0.0330
  962loPI   C3B15063   3.222   5.553   6.745  0.2648  0.0064  0.0661
  962loPI   C4B15064   3.484   5.316   6.985 -0.0095 -0.1524 -0.1091
  963loPI    C115065  10.722  13.905   4.589 -0.0496  0.0313  0.2364
  963loPI    C215066  10.502  14.039   4.284  0.1730  0.1024  0.1048
  963loPI    C315067  10.601  13.652   4.303  0.2747  0.1231  0.0122
  963loPI   PO415068  10.517  14.045   4.780 -0.3500  0.0482  0.1357
  963loPI   GL115069  10.583  14.279   5.196 -0.0171 -0.0438 -0.0780
  963loPI   GL215070  10.850  14.276   5.435  0.0211  0.0160  0.0578
  963loPI   C1A15071  10.437  14.287   5.638  0.2036 -0.1775  0.1927
  963loPI   C2A15072  10.485  14.192   6.073 -0.0976 -0.0182  0.2626
  963loPI   C3A15073  10.613  14.449   6.476 -0.1925 -0.0630  0.3707
  963loPI   C4A15074  10.277  14.522   6.798  0.2408  0.1242 -0.0652
  963loPI   C5A15075   9.964  14.557   7.205 -0.0204 -0.2195 -0.0555
  963loPI   C6A15076   9.572  14.488   7.533  0.0274 -0.0828  0.2607
  963loPI   C1B15077  10.835  13.909   5.718  0.1938 -0.0283  0.1806
  963loPI   C2B15078  10.781  13.772   6.131 -0.0557 -0.3755 -0.1431
  963loPI   C3B15079  10.863  13.833   6.619 -0.1764 -0.2903  0.2644
  963loPI   C4B15080  10.813  13.696   7.039 -0.0344  0.2831  0.0985
  964loPI    C115081  16.194  12.779   4.222  0.1827  0.1393 -0.0383
  964loPI    C215082  15.933  12.552   4.423  0.4371 -0.1191  0.0063
  964loPI    C315083  15.811  12.762   4.105  0.0372  0.2693  0.4008
  964loPI   PO415084  16.359  12.840   4.400 -0.1035 -0.2990  0.0921
  964loPI   GL115085  16.234  12.852   4.819  0.3982 -0.0679  0.0747
  964loPI   GL215086  16.071  13.032   4.984 -0.3400 -0.1669  0.1885
  964loPI   C1A15087  16.485  12.888   5.209 -0.3334 -0.3522  0.2991
  964loPI   C2A15088  16.424  12.954   5.691  0.0218  0.1119  0.2846
  964loPI   C3A15089  16.289  13.006   6.038 -0.3102 -0.4778  0.0251
  964loPI   C4A15090  16.035  13.051   6.304 -0.0174 -0.3277  0.2567
  964loPI   C5A15091  15.736  13.341   6.459  0.1319 -0.0237 -0.0358
  964loPI   C6A15092  15.348  13.574   6.432 -0.1687 -0.0364 -0.1342
  964loPI   C1B15093  15.981  13.028   5.478 -0.2080  0.1194 -0.2251
  964loPI   C2B15094  15.862  13.326   5.822 -0.0593 -0.1777 -0.2106
  964loPI   C3B15095  15.932  13.624   6.115  0.0536 -0.1104  0.3318
  964loPI   C4B15096  15.941  13.798   6.599  0.0996 -0.3249  0.3117
  965loPI    C115097  12.048  15.003   4.123 -0.2560  0.1392 -0.0263
  965loPI    C215098  11.931  15.379   4.049  0.0413  0.2505  0.0543
  965loPI    C315099  12.249  15.227   3.859  0.0293  0.0995  0.1529
  965loPI   PO415100  11.881  15.072   4.477  0.1603 -0.4511  0.3704
  965loPI   GL115101  12.147  15.274   4.906 -0.3493  0.5349  0.0325
  965loPI   GL215102  12.281  15.184   5.285 -0.5292 -0.0951  0.1685
  965loPI   C1A15103  11.975  15.520   5.356 -0.1979  0.0541 -0.0564
  965loPI   C2A15104  12.014  15.446   5.790  0.0246  0.0289 -0.1297
  965loPI   C3A15105  12.245  15.139   6.058 -0.0477  0.0838 -0.2162
  965loPI   C4A15106  12.607  15.113   6.287 -0.0530 -0.1636 -0.1198
  965loPI   C5A15107  13.108  14.972   6.401 -0.0775  0.0406  0.0951
  965loPI   C6A15108  13.585  15.217   6.577  0.0087  0.0321 -0.0952
  965loPI   C1B15109  12.532  15.449   5.724 -0.1529  0.3341  0.3085
  965loPI   C2B15110  12.417  15.586   6.197  0.0650  0.2843  0.0617
  965loPI   C3B15111  12.566  15.619   6.654  0.1996 -0.4025 -0.0482
  965loPI   C4B15112  12.559  15.714   7.079 -0.1214  0.3863  0.0061
  966loPI    C115113   5.386  13.311   5.181 -0.2013  0.1798 -0.0406
  966loPI    C215114   5.562  13.416   4.837 -0.1864  0.0665 -0.0678
  966loPI    C315115   5.166  13.450   4.876 -0.2178 -0.1499 -0.1829
  966loPI   PO415116   5.550  13.447   5.394 -0.0210 -0.0113  0.0058
  966loPI   GL115117   5.234  13.360   5.734  0.0156 -0.1910  0.4586
  966loPI   GL215118   5.019  13.120   5.539  0.0042  0.1772 -0.1567
  966loPI   C1A15119   5.291  13.327   6.187 -0.2093  0.2069  0.0409
  966loPI   C2A15120   5.137  13.002   6.427  0.0800  0.1660  0.0787
  966loPI   C3A15121   5.049  12.704   6.634  0.1102 -0.3617 -0.0885
  966loPI   C4A15122   5.025  12.495   7.031 -0.0230  0.2769 -0.1142
  966loPI   C5A15123   4.954  12.700   7.460 -0.0358  0.0754 -0.0440
  966loPI   C6A15124   4.656  12.746   7.852  0.3718 -0.1190  0.1939
  966loPI   C1B15125   4.869  13.030   5.950  0.1844  0.1468 -0.0482
  966loPI   C2B15126   4.719  12.635   6.243  0.3440 -0.1634  0.0677
  966loPI   C3B15127   4.465  12.595   6.591 -0.2209  0.0192  0.1681
  966loPI   C4B15128   4.413  12.712   7.016 -0.0728  0.1777  0.2209
  967loPI    C115129   1.556  11.175   4.921  0.2137  0.1737  0.1734
  967loPI    C215130   1.620  11.291   4.543 -0.1211  0.3200  0.1587
  967loPI    C315131   1.412  10.958   4.618  0.1241  0.1770  0.2133
  967loPI   PO415132   1.721  11.265   5.053 -0.1352 -0.1473 -0.1247
  967loPI   GL115133   1.923  11.261   5.441 -0.0674 -0.2129 -0.0650
  967loPI   GL215134   1.612  11.150   5.547  0.3833 -0.4127  0.1847
  967loPI   C1A15135   2.170  11.361   5.827 -0.0199 -0.3769 -0.2140
  967loPI   C2A15136   2.182  11.243   6.265  0.2269 -0.2237 -0.1014
  967loPI   C3A15137   2.076  11.317   6.684 -0.2851  0.1399 -0.0414
  967loPI   C4A15138   1.959  11.433   7.032 -0.0373 -0.2154  0.0823
  967loPI   C5A15139   1.726  11.677   7.315 -0.1331 -0.0395 -0.0272
  967loPI   C6A15140   1.445  11.995   7.521 -0.0911  0.1004 -0.0344
  967loPI   C1B15141   1.679  11.290   5.944  0.1555  0.0826 -0.1070
  967loPI   C2B15142   1.711  11.143   6.400  0.0772 -0.1172 -0.0474
  967loPI   C3B15143   1.797  10.888   6.743 -0.1244 -0.2622  0.1810
  967loPI   C4B15144   1.716  10.720   7.060 -0.2785  0.0729  0.2346
  968loPI    C115145   3.376   4.491   4.648 -0.1631 -0.0988  0.2928
  968loPI    C215146   3.378   4.094   4.697 -0.1397 -0.1622 -0.1787
  968loPI    C315147   3.139   4.261   4.423 -0.0231  0.1350 -0.1032
  968loPI   PO415148   3.335   4.545   4.940 -0.1368  0.0446 -0.1197
  968loPI   GL115149   3.303   4.176   5.202  0.1891  0.0096  0.2745
  968loPI   GL215150   3.545   4.127   5.506 -0.2094  0.1200  0.3565
  968loPI   C1A15151   3.041   4.323   5.541  0.4459 -0.0975  0.2558
  968loPI   C2A15152   3.020   4.589   5.961  0.1533 -0.3132  0.0299
  968loPI   C3A15153   2.809   4.606   6.366  0.1196  0.1169  0.0081
  968loPI   C4A15154   2.577   4.637   6.713  0.3289 -0.1332 -0.0284
  968loPI   C5A15155   2.496   4.404   7.050  0.0665 -0.2317  0.2247
  968loPI   C6A15156   2.552   4.043   7.297 -0.0952  0.0726 -0.0715
  968loPI   C1B15157   3.325   4.134   5.907  0.1151  0.2739  0.0628
  968loPI   C2B15158   3.107   4.142   6.337  0.4769  0.0233  0.0723
  968loPI   C3B15159   3.206   3.958   6.784 -0.0135  0.0016 -0.1826
  968loPI   C4B15160   3.536   4.087   7.038 -0.2254 -0.1589 -0.0044
  969loPI    C115161  10.302   7.615   4.866 -0.0789 -0.1284  0.0469
  969loPI    C215162   9.997   7.425   4.690 -0.2203  0.0455  0.1022
  969loPI    C315163  10.160   7.747   4.516 -0.2032  0.0747  0.1718
  969loPI   PO415164  10.223   7.573   5.140  0.1769  0.1609 -0.1626
  969loPI   GL115165  10.422   7.451   5.514 -0.1231  0.0575 -0.0440
  969loPI   GL215166  10.333   7.105   5.428 -0.1216  0.3307 -0.0262
  969loPI   C1A15167  10.526   7.642   5.919 -0.3065  0.0758 -0.1672
  969loPI   C2A15168  10.578   7.769   6.407 -0.0704  0.0445  0.0154
  969loPI   C3A15169  10.878   7.919   6.706  0.0372  0.1871 -0.0893
  969loPI   C4A15170  11.077   8.146   7.095 -0.1243  0.1043 -0.4010
  969loPI   C5A15171  11.129   8.526   7.367 -0.3946  0.0119  0.0103
  969loPI   C6A15172  11.112   8.963   7.558 -0.2077 -0.1527  0.0435
  969loPI   C1B15173  10.157   7.243   5.916 -0.0277 -0.3566  0.1017
  969loPI   C2B15174   9.824   7.334   6.310  0.0363 -0.0587 -0.1677
  969loPI   C3B15175   9.672   7.724   6.557 -0.2850  0.1165  0.3564
  969loPI   C4B15176   9.847   7.836   6.932  0.2433  0.0527  0.3179
  970loPI    C115177   1.343  16.826   4.454  0.2603 -0.1883 -0.1480
  970loPI    C215178   1.302  16.823   4.056 -0.2747  0.1420 -0.1056
  970loPI    C315179   1.077  16.582   4.283  0.1644 -0.1866 -0.0033
  970loPI   PO415180   1.321  17.045   4.512 -0.3968 -0.0365  0.1310
  970loPI   GL115181   1.182  17.182   4.952 -0.0647  0.0150 -0.0714
  970loPI   GL215182   0.921  17.021   4.897 -0.1691 -0.1285 -0.0958
  970loPI   C1A15183   1.165  17.259   5.410 -0.1026 -0.0691 -0.4377
  970loPI   C2A15184   1.104  17.329   5.844  0.0488  0.3025 -0.3244
  970loPI   C3A15185   1.265  17.323   6.139 -0.1280 -0.0723  0.3067
  970loPI   C4A15186   1.310  17.041   6.512 -0.1674 -0.0085  0.0281
  970loPI   C5A15187   1.375  16.930   6.940 -0.2074  0.2149  0.2577
  970loPI   C6A15188   1.605  16.760   7.256 -0.0781  0.2222 -0.4773
  970loPI   C1B15189   0.692  17.179   5.204 -0.1890  0.2198 -0.0852
  970loPI   C2B15190   0.624  17.014   5.546  0.1820  0.2657 -0.0349
  970loPI   C3B15191   0.788  17.041   6.007  0.0405  0.1481 -0.4189
  970loPI   C4B15192   0.850  16.849   6.323 -0.2230  0.0624 -0.4537
  971loPI    C115193   2.988   4.792   4.394  0.1350 -0.1376  0.0668
  971loPI    C215194   2.899   4.532   4.103  0.1843  0.0575 -0.1260
  971loPI    C315195   2.780   4.912   4.074  0.1977  0.0813  0.1069
  971loPI   PO415196   2.853   4.622   4.593  0.1771 -0.0327 -0.0281
  971loPI   GL115197   2.897   4.656   5.074 -0.0192  0.0834 -0.1977
  971loPI   GL215198   2.624   4.438   5.142  0.1317 -0.0616 -0.0844
  971loPI   C1A15199   2.951   4.886   5.510 -0.0345 -0.3687  0.1108
  971loPI   C2A15200   3.265   5.067   5.748  0.2967  0.2795  0.0022
  971loPI   C3A15201   3.323   5.341   5.983 -0.3902 -0.1286 -0.0292
  971loPI   C4A15202   3.528   5.298   6.366  0.2111  0.2996 -0.4509
  971loPI   C5A15203   3.639   4.922   6.766  0.1703 -0.1109 -0.1670
  971loPI   C6A15204   3.871   4.492   6.890 -0.0759 -0.0550 -0.0152
  971loPI   C1B15205   2.610   4.588   5.553  0.0865  0.3166 -0.2439
  971loPI   C2B15206   2.588   4.453   5.934  0.0892  0.0570  0.0259
  971loPI   C3B15207   2.361   4.436   6.355 -0.1149  0.1174 -0.2268
  971loPI   C4B15208   2.106   4.332   6.676 -0.1296 -0.0203 -0.3415
  972loPI    C115209  17.982   8.446   4.915 -0.0772  0.0158  0.1040
  972loPI    C215210  17.861   8.612   4.572 -0.2599  0.0738  0.1953
  972loPI    C315211  18.115   8.303   4.566  0.0454  0.3225  0.0220
  972loPI   PO415212  17.804   8.655   5.075 -0.2332  0.0680  0.0162
  972loPI   GL115213  17.836   8.611   5.505  0.0929 -0.1564 -0.4457
  972loPI   GL215214  18.154   8.473   5.457  0.0010 -0.1134 -0.2021
  972loPI   C1A15215  17.725   8.813   5.934 -0.1602 -0.0993 -0.2312
  972loPI   C2A15216  17.614   8.956   6.368 -0.4051 -0.1407 -0.2606
  972loPI   C3A15217  17.668   9.246   6.700 -0.0123  0.0947 -0.0790
  972loPI   C4A15218  17.334   9.170   7.137 -0.1331 -0.2738 -0.2625
  972loPI   C5A15219  17.141   9.170   7.522 -0.0153  0.1016  0.1001
  972loPI   C6A15220  16.917   9.196   7.918 -0.1243 -0.0088  0.3029
  972loPI   C1B15221  18.243   8.604   5.899  0.1262  0.1162  0.0465
  972loPI   C2B15222  18.301   8.713   6.383  0.0672 -0.1022  0.0457
  972loPI   C3B15223  18.276   8.693   6.803  0.0131  0.2022 -0.1592
  972loPI   C4B15224  18.068   8.477   7.145 -0.0633  0.4108 -0.0386
  973loPI    C115225   9.513   7.525   4.960 -0.2440 -0.3492  0.3715
  973loPI    C215226   9.217   7.564   4.694  0.1006  0.0885  0.0367
  973loPI    C315227   9.455   7.242   4.683 -0.2125 -0.1525  0.1610
  973loPI   PO415228   9.681   7.645   5.003 -0.2473 -0.0956 -0.1749
  973loPI   GL115229   9.659   8.014   5.305 -0.2888  0.1369  0.0241
  973loPI   GL215230   9.843   8.249   5.559 -0.0503  0.1542 -0.0140
  973loPI   C1A15231   9.268   8.289   5.502 -0.2911  0.0840 -0.1658
  973loPI   C2A15232   9.176   8.430   5.908 -0.0213  0.2647 -0.0992
  973loPI   C3A15233   9.194   8.307   6.328  0.0051 -0.1194 -0.0127
  973loPI   C4A15234   9.186   8.364   6.778 -0.0687 -0.0718  0.3133
  973loPI   C5A15235   9.008   8.429   7.113 -0.1130  0.2571 -0.2178
  973loPI   C6A15236   8.918   8.312   7.497 -0.1642 -0.2419 -0.1376
  973loPI   C1B15237  10.021   8.320   5.948  0.0768 -0.0029 -0.1438
  973loPI   C2B15238   9.975   8.429   6.338 -0.0903 -0.0498  0.2915
  973loPI   C3B15239  10.078   8.483   6.796 -0.0054 -0.1268 -0.1927
  973loPI   C4B15240  10.074   8.222   7.216 -0.0876 -0.2211 -0.2797
  974loPI    C115241   9.538  16.972   4.521  0.1852  0.0848  0.1963
  974loPI    C215242   9.737  16.996   4.175 -0.2023 -0.3442 -0.0670
  974loPI    C315243   9.627  17.329   4.366  0.0947 -0.1029 -0.3075
  974loPI   PO415244   9.724  16.944   4.697  0.1014  0.0687  0.1649
  974loPI   GL115245   9.581  16.976   5.095  0.3931 -0.0443  0.5095
  974loPI   GL215246   9.823  17.212   5.199  0.1984  0.0764 -0.1155
  974loPI   C1A15247   9.408  17.212   5.492 -0.0234 -0.0751 -0.1051
  974loPI   C2A15248   9.209  17.279   5.929  0.2483 -0.0510  0.0214
  974loPI   C3A15249   9.251  17.439   6.363  0.2535  0.0955  0.0466
  974loPI   C4A15250   9.477  17.520   6.841  0.0666 -0.1986 -0.1905
  974loPI   C5A15251   9.814  17.282   7.017  0.2056 -0.0121  0.0129
  974loPI   C6A15252  10.064  17.561   7.104 -0.0262  0.1636  0.2552
  974loPI   C1B15253   9.880  17.289   5.619  0.3402  0.3659 -0.0914
  974loPI   C2B15254  10.040  17.221   6.049 -0.0645 -0.1898 -0.2000
  974loPI   C3B15255  10.066  17.104   6.433  0.0587 -0.1434  0.1427
  974loPI   C4B15256  10.272  17.192   6.828 -0.0291 -0.1558  0.1259
  975loPI    C115257   6.028   9.792   4.845  0.1909 -0.2828 -0.1569
  975loPI    C215258   6.200   9.843   4.487  0.0397  0.1308 -0.1770
  975loPI    C315259   5.933  10.109   4.620  0.1767  0.0426  0.2941
  975loPI   PO415260   6.249   9.750   5.075 -0.1846  0.0015 -0.1173
  975loPI   GL115261   6.243   9.910   5.535 -0.0813 -0.1769  0.0095
  975loPI   GL215262   5.911   9.946   5.724 -0.2276  0.0290 -0.2517
  975loPI   C1A15263   6.482   9.758   5.995 -0.0160  0.1445 -0.0674
  975loPI   C2A15264   6.661   9.760   6.389 -0.0215 -0.2289 -0.0852
  975loPI   C3A15265   6.710   9.630   6.762  0.1277 -0.0394 -0.0046
  975loPI   C4A15266   6.713   9.499   7.164 -0.0791  0.0196  0.1024
  975loPI   C5A15267   6.862   9.592   7.560  0.1869  0.0579 -0.0252
  975loPI   C6A15268   6.836   9.878   7.903 -0.0117 -0.2443  0.1062
  975loPI   C1B15269   6.174  10.260   5.880 -0.1326  0.0570  0.1362
  975loPI   C2B15270   6.253  10.197   6.302  0.1856 -0.0654  0.0460
  975loPI   C3B15271   6.432  10.133   6.737  0.2271  0.0858 -0.4185
  975loPI   C4B15272   6.300  10.414   7.048  0.1028  0.0262  0.1084
  976loPI    C115273  10.754   9.509   4.571  0.0147 -0.0832  0.1506
  976loPI    C215274  11.119   9.464   4.414 -0.1167 -0.0465 -0.1720
  976loPI    C315275  10.874   9.748   4.274 -0.1248  0.1976  0.3159
  976loPI   PO415276  10.803   9.483   4.818  0.3292  0.4120 -0.0774
  976loPI   GL115277  10.684   9.495   5.274 -0.1913 -0.0609 -0.1114
  976loPI   GL215278  11.044   9.693   5.213  0.0149  0.4086 -0.1032
  976loPI   C1A15279  10.699   9.400   5.737  0.1197 -0.0060  0.2786
  976loPI   C2A15280  10.445   9.351   6.111  0.0829 -0.0125  0.2829
  976loPI   C3A15281  10.291   9.264   6.556  0.0598  0.1509  0.1264
  976loPI   C4A15282  10.095   9.392   6.909 -0.1179 -0.1949 -0.0788
  976loPI   C5A15283   9.768   9.728   6.915  0.1346  0.3207 -0.3079
  976loPI   C6A15284   9.800  10.082   6.963  0.2876 -0.0314  0.1505
  976loPI   C1B15285  11.102   9.914   5.566  0.3121 -0.2257  0.1536
  976loPI   C2B15286  10.950   9.768   5.982  0.3183 -0.2530  0.0329
  976loPI   C3B15287  10.896   9.850   6.335 -0.0011  0.3250  0.0898
  976loPI   C4B15288  11.065   9.718   6.719 -0.0206 -0.0924  0.1382
  977loPI    C115289   9.608  10.308   4.859 -0.0086 -0.1466 -0.0689
  977loPI    C215290   9.379  10.390   4.541  0.1605 -0.0756 -0.1731
  977loPI    C315291   9.211  10.339   4.900 -0.0162  0.0014 -0.2438
  977loPI   PO415292   9.835  10.457   4.904  0.3044  0.0710  0.0474
  977loPI   GL115293   9.824  10.637   5.317 -0.2040  0.0109 -0.0133
  977loPI   GL215294   9.963  10.865   5.498 -0.0010 -0.1343 -0.1084
  977loPI   C1A15295   9.737  10.503   5.747  0.2493 -0.1960  0.0496
  977loPI   C2A15296   9.571  10.454   6.196  0.0606  0.0971 -0.2504
  977loPI   C3A15297   9.731  10.516   6.669 -0.1144 -0.0276  0.2584
  977loPI   C4A15298   9.788  10.717   7.010 -0.1212  0.0650 -0.3743
  977loPI   C5A15299   9.863  11.140   7.234 -0.0303 -0.1392  0.0576
  977loPI   C6A15300   9.979  11.464   7.042 -0.5431  0.1104  0.0618
  977loPI   C1B15301   9.951  10.833   5.986 -0.2407  0.1992 -0.1846
  977loPI   C2B15302  10.063  10.516   6.278 -0.0164  0.1761  0.0901
  977loPI   C3B15303  10.336  10.275   6.525  0.0841 -0.2144  0.2653
  977loPI   C4B15304  10.658  10.098   6.828 -0.1445 -0.1411 -0.0123
  978loPI    C115305  12.485   8.544   4.388  0.0263 -0.2612  0.2394
  978loPI    C215306  12.180   8.322   4.257  0.0436 -0.0570 -0.1611
  978loPI    C315307  12.552   8.177   4.244  0.0240 -0.1070 -0.1677
  978loPI   PO415308  12.392   8.581   4.698  0.0965  0.2170  0.3063
  978loPI   GL115309  12.385   8.753   5.207 -0.1468  0.1166 -0.0140
  978loPI   GL215310  12.550   8.451   5.117 -0.0075  0.2163 -0.1648
  978loPI   C1A15311  12.516   8.606   5.609  0.2427  0.0618 -0.1527
  978loPI   C2A15312  12.833   8.350   5.965 -0.0358 -0.0937  0.2458
  978loPI   C3A15313  13.255   8.225   6.266  0.0495 -0.0991 -0.0518
  978loPI   C4A15314  13.159   8.219   6.713 -0.1010  0.0813  0.0868
  978loPI   C5A15315  12.898   7.972   6.988 -0.0576  0.3309 -0.2035
  978loPI   C6A15316  12.798   8.077   7.410 -0.4961  0.0012  0.0576
  978loPI   C1B15317  12.787   8.225   5.457 -0.1907  0.0154  0.0310
  978loPI   C2B15318  12.955   7.942   5.794  0.0411  0.0109 -0.1067
  978loPI   C3B15319  12.838   7.470   5.922  0.0869 -0.1025 -0.0788
  978loPI   C4B15320  12.742   6.965   5.995 -0.1274  0.1699 -0.3343
  979loPI    C115321   9.829  18.419   4.196  0.1375 -0.0269  0.0373
  979loPI    C215322   9.888  18.798   4.082  0.0709 -0.0276  0.0010
  979loPI    C315323   9.660  18.556   3.861 -0.0223 -0.0412  0.1113
  979loPI   PO415324  10.173  18.365   4.241  0.0631  0.4049 -0.2285
  979loPI   GL115325  10.307  18.291   4.662  0.0912 -0.0952  0.0462
  979loPI   GL215326  10.589  18.154   4.601  0.0789 -0.2118  0.0593
  979loPI   C1A15327   9.991  18.210   5.025 -0.3745 -0.2013  0.2215
  979loPI   C2A15328   9.946  18.224   5.412 -0.0524  0.0460  0.3252
  979loPI   C3A15329   9.614  18.332   5.772 -0.3738 -0.1140 -0.1777
  979loPI   C4A15330   9.348  18.380   6.095  0.0338  0.1231  0.1957
  979loPI   C5A15331   9.171  18.455   6.554  0.1129  0.0819  0.3177
  979loPI   C6A15332   9.174  18.612   7.011 -0.2729 -0.2115  0.1843
  979loPI   C1B15333  10.531  18.069   5.056  0.5218  0.2100  0.2327
  979loPI   C2B15334  10.580  17.871   5.405  0.2133  0.1895  0.0776
  979loPI   C3B15335  10.607  17.758   5.919 -0.3417  0.0359 -0.3199
  979loPI   C4B15336  10.750  17.739   6.239  0.2353  0.3055  0.3795
  980loPI    C115337   3.009  11.935   5.082  0.0916 -0.2906  0.3687
  980loPI    C215338   2.903  11.550   5.062  0.3251 -0.3387 -0.0819
  980loPI    C315339   2.931  11.767   4.728  0.0129  0.1270  0.1825
  980loPI   PO415340   3.300  11.877   5.209  0.1562  0.0963  0.2799
  980loPI   GL115341   3.500  12.096   5.441  0.0235 -0.0186  0.2448
  980loPI   GL215342   3.889  12.105   5.356  0.1780 -0.1195 -0.0723
  980loPI   C1A15343   3.380  12.163   5.939 -0.1466 -0.0663 -0.1701
  980loPI   C2A15344   3.377  12.124   6.382  0.0139  0.1375 -0.2385
  980loPI   C3A15345   3.263  11.941   6.744  0.1252  0.0385  0.2116
  980loPI   C4A15346   3.093  11.901   7.125 -0.4174  0.0308  0.3554
  980loPI   C5A15347   3.017  11.524   7.238 -0.1016  0.3796 -0.0196
  980loPI   C6A15348   2.837  11.262   7.501  0.1266  0.1879 -0.0753
  980loPI   C1B15349   3.868  11.824   5.669 -0.0987  0.1081  0.0225
  980loPI   C2B15350   3.575  11.727   5.861  0.0526  0.0342  0.3484
  980loPI   C3B15351   3.288  11.543   6.102 -0.3258 -0.0303 -0.2688
  980loPI   C4B15352   3.076  11.443   6.543 -0.0028  0.0299  0.3197
  981loPI    C115353  11.415   5.453   4.837 -0.0756  0.0229  0.0059
  981loPI    C215354  11.251   5.487   4.474  0.0185 -0.2853 -0.0683
  981loPI    C315355  11.639   5.571   4.526  0.0043 -0.2380 -0.0378
  981loPI   PO415356  11.222   5.608   4.972 -0.0672 -0.2098  0.2220
  981loPI   GL115357  11.108   5.766   5.318  0.2612 -0.0686  0.0998
  981loPI   GL215358  10.976   5.753   5.571  0.1554 -0.3837 -0.1862
  981loPI   C1A15359  11.478   5.652   5.580  0.0104 -0.1383  0.2003
  981loPI   C2A15360  11.575   5.520   6.031 -0.1878  0.2607  0.0333
  981loPI   C3A15361  11.738   5.407   6.435  0.3235  0.2559 -0.1544
  981loPI   C4A15362  11.884   5.267   6.857  0.1876 -0.2189  0.1330
  981loPI   C5A15363  11.776   4.888   7.094 -0.0449  0.2948 -0.0225
  981loPI   C6A15364  11.694   4.489   7.315  0.0424  0.0685  0.3757
  981loPI   C1B15365  11.048   5.726   5.929  0.0387 -0.3538 -0.2377
  981loPI   C2B15366  10.785   5.696   6.317  0.1492  0.0677  0.0344
  981loPI   C3B15367  10.442   5.791   6.690 -0.0193  0.1953 -0.0112
  981loPI   C4B15368  10.142   6.107   6.724 -0.0063  0.0882 -0.0250
  982loPI    C115369  16.038  14.975   4.248  0.2969 -0.3768 -0.3598
  982loPI    C215370  15.769  15.144   4.005 -0.0132 -0.2407  0.0663
  982loPI    C315371  16.158  15.220   3.956 -0.0972  0.0556 -0.1719
  982loPI   PO415372  15.946  15.023   4.498 -0.0870 -0.4168 -0.3051
  982loPI   GL115373  16.189  14.997   4.901 -0.1290  0.0428  0.1474
  982loPI   GL215374  16.110  14.722   4.979 -0.1105  0.3178  0.2536
  982loPI   C1A15375  16.045  15.203   5.296  0.1788 -0.2122  0.1061
  982loPI   C2A15376  16.198  15.524   5.674  0.2652  0.0448 -0.1264
  982loPI   C3A15377  16.144  15.756   6.082 -0.0913 -0.4248 -0.0538
  982loPI   C4A15378  16.159  15.699   6.481  0.0561 -0.0453 -0.0717
  982loPI   C5A15379  16.523  15.644   6.711  0.0378  0.1918  0.0149
  982loPI   C6A15380  16.828  15.894   6.816  0.2319  0.1821  0.0703
  982loPI   C1B15381  16.275  14.726   5.392 -0.4219  0.2784 -0.1048
  982loPI   C2B15382  16.237  14.991   5.708  0.1985  0.2978 -0.2135
  982loPI   C3B15383  15.839  15.290   5.844  0.1800 -0.1777 -0.0013
  982loPI   C4B15384  15.598  15.585   6.162  0.0426 -0.0054 -0.1487
  983loPI    C115385  15.419  13.695   4.312  0.0002 -0.3391  0.0600
  983loPI    C215386  15.606  13.640   3.963  0.0775  0.1201  0.0224
  983loPI    C315387  15.217  13.554   3.997  0.0527  0.1391 -0.1977
  983loPI   PO415388  15.572  13.583   4.500 -0.1437 -0.0662 -0.1576
  983loPI   GL115389  15.452  13.568   4.900 -0.0760 -0.0325 -0.3371
  983loPI   GL215390  15.691  13.341   4.920  0.1485  0.1403 -0.1767
  983loPI   C1A15391  15.433  13.675   5.322 -0.2002 -0.1708  0.2316
  983loPI   C2A15392  15.512  13.838   5.786  0.1655  0.1129 -0.3291
  983loPI   C3A15393  15.459  13.987   6.223  0.0606 -0.2897 -0.3481
  983loPI   C4A15394  15.478  14.056   6.592 -0.1032  0.1506 -0.2943
  983loPI   C5A15395  15.653  14.413   6.798 -0.1800 -0.2229 -0.1850
  983loPI   C6A15396  15.947  14.780   6.721 -0.2096 -0.2259  0.4238
  983loPI   C1B15397  15.987  13.533   5.261 -0.1650  0.1434 -0.0032
  983loPI   C2B15398  15.984  13.784   5.627 -0.1230  0.1090 -0.0505
  983loPI   C3B15399  15.886  14.193   5.932 -0.1114 -0.0124 -0.1264
  983loPI   C4B15400  15.849  14.355   6.347  0.0806 -0.2555 -0.2338
  984loPI    C115401   6.320   7.337   4.532 -0.1244 -0.1422  0.1944
  984loPI    C215402   6.264   6.964   4.666 -0.1404 -0.2495 -0.1025
  984loPI    C315403   6.459   7.026   4.322 -0.0559  0.0230 -0.0083
  984loPI   PO415404   6.461   7.480   4.817 -0.0942  0.0266  0.1335
  984loPI   GL115405   6.450   7.187   5.115  0.0008  0.1890 -0.1907
  984loPI   GL215406   6.421   7.446   5.338 -0.3362  0.0120  0.1640
  984loPI   C1A15407   6.625   7.077   5.492  0.1601  0.0827 -0.1310
  984loPI   C2A15408   6.840   7.148   5.880  0.1415  0.2517  0.1649
  984loPI   C3A15409   6.871   7.377   6.256 -0.2124  0.1444 -0.3106
  984loPI   C4A15410   6.779   7.410   6.690  0.1492 -0.0609 -0.3359
  984loPI   C5A15411   7.093   7.294   7.142  0.0694  0.3185  0.0645
  984loPI   C6A15412   7.205   7.021   7.480 -0.0084 -0.0673 -0.2428
  984loPI   C1B15413   6.499   7.626   5.811  0.0475 -0.0859 -0.1099
  984loPI   C2B15414   6.340   7.569   6.292  0.0951 -0.1163  0.1912
  984loPI   C3B15415   6.359   7.718   6.671 -0.0472  0.1289  0.0619
  984loPI   C4B15416   6.454   7.929   7.179  0.1968  0.3296  0.2186
  985loPI    C115417   7.242   1.003   4.821 -0.3689 -0.0407 -0.0539
  985loPI    C215418   7.553   0.824   4.644 -0.1500  0.1278  0.1536
  985loPI    C315419   7.180   0.736   4.530 -0.0337 -0.1908  0.0073
  985loPI   PO415420   7.424   1.119   4.984  0.3902  0.3637  0.0780
  985loPI   GL115421   7.725   1.164   5.319 -0.1160  0.1346 -0.0804
  985loPI   GL215422   7.690   0.782   5.261  0.0728  0.1145  0.3694
  985loPI   C1A15423   7.833   1.202   5.740  0.0227 -0.0256 -0.0158
  985loPI   C2A15424   7.681   1.163   6.161  0.2774  0.2000  0.2647
  985loPI   C3A15425   7.702   0.735   6.411  0.2696 -0.2309  0.1680
  985loPI   C4A15426   7.577   0.806   6.860 -0.0548 -0.0516  0.2466
  985loPI   C5A15427   7.701   1.021   7.206  0.2688 -0.3416 -0.2736
  985loPI   C6A15428   7.899   1.404   7.215 -0.2286 -0.2317 -0.0215
  985loPI   C1B15429   7.925   0.680   5.608  0.1695 -0.2415  0.0042
  985loPI   C2B15430   8.061   0.577   5.974 -0.2741  0.2337  0.2602
  985loPI   C3B15431   7.991   0.318   6.410 -0.1139 -0.0856  0.1593
  985loPI   C4B15432   7.671   0.249   6.732 -0.0590  0.0293  0.2130
  986loPI    C115433   7.045   8.262   4.829  0.1355 -0.1446  0.0316
  986loPI    C215434   6.670   8.193   4.707  0.1166 -0.3989  0.2246
  986loPI    C315435   6.946   8.319   4.446 -0.1246 -0.1154  0.1012
  986loPI   PO415436   7.005   8.112   5.105  0.0298  0.0261  0.0801
  986loPI   GL115437   6.846   7.967   5.504  0.1165  0.0998  0.2645
  986loPI   GL215438   7.128   7.739   5.620  0.0380 -0.0923  0.3813
  986loPI   C1A15439   6.753   8.293   5.849  0.0442  0.2009  0.0721
  986loPI   C2A15440   6.800   8.352   6.278 -0.1628 -0.0147 -0.1059
  986loPI   C3A15441   6.751   8.530   6.690 -0.1812  0.0690  0.0385
  986loPI   C4A15442   6.507   8.712   7.012 -0.0592 -0.0307 -0.0997
  986loPI   C5A15443   6.518   8.765   7.475 -0.0427 -0.1097  0.0538
  986loPI   C6A15444   6.664   8.602   7.752 -0.0942 -0.0952 -0.0549
  986loPI   C1B15445   6.975   7.751   5.965 -0.1078  0.1202  0.2404
  986loPI   C2B15446   6.821   7.868   6.374 -0.3974 -0.0148  0.0794
  986loPI   C3B15447   6.758   7.973   6.754  0.1325 -0.0596 -0.4016
  986loPI   C4B15448   6.923   7.787   7.181 -0.1565 -0.1410  0.1533
  987loPI    C115449  11.071  15.388   4.490 -0.0975 -0.1719  0.0745
  987loPI    C215450  11.015  15.131   4.188 -0.0284 -0.1474  0.0407
  987loPI    C315451  10.897  15.512   4.152  0.1754 -0.0903 -0.0387
  987loPI   PO415452  11.242  15.196   4.640  0.0729  0.3932  0.1475
  987loPI   GL115453  11.307  15.089   5.049 -0.0496  0.0208  0.1765
  987loPI   GL215454  11.317  14.930   5.361 -0.1584  0.1402  0.0864
  987loPI   C1A15455  11.465  15.467   5.359  0.1665  0.0281 -0.0501
  987loPI   C2A15456  11.360  15.459   5.736  0.1340  0.4192 -0.1604
  987loPI   C3A15457  11.360  15.537   6.203  0.0089 -0.0447  0.1043
  987loPI   C4A15458  11.467  15.717   6.630  0.1065 -0.1128 -0.0052
  987loPI   C5A15459  11.487  16.080   6.874 -0.1428  0.1236 -0.3526
  987loPI   C6A15460  11.558  16.319   7.172  0.0055 -0.1343  0.1847
  987loPI   C1B15461  11.220  14.797   5.747  0.0620 -0.2312 -0.4980
  987loPI   C2B15462  11.175  14.684   6.258  0.4500 -0.2999 -0.0866
  987loPI   C3B15463  11.469  14.809   6.553 -0.0816  0.0558 -0.1626
  987loPI   C4B15464  11.471  14.506   6.960  0.2287 -0.0397  0.1548
  988loPI    C115465   6.759  17.899   4.596 -0.1256  0.1711  0.3297
  988loPI    C215466   6.498  17.606   4.521 -0.0187  0.1408  0.0638
  988loPI    C315467   6.816  17.655   4.284 -0.0028  0.4343  0.1422
  988loPI   PO415468   6.828  17.907   4.911 -0.0340 -0.1074 -0.0156
  988loPI   GL115469   6.773  17.664   5.194  0.0142  0.3955 -0.0302
  988loPI   GL215470   6.993  17.343   5.284  0.1299  0.3042  0.1413
  988loPI   C1A15471   6.682  17.927   5.688  0.0405  0.0684 -0.0460
  988loPI   C2A15472   6.711  18.188   6.087  0.0151  0.2451  0.0784
  988loPI   C3A15473   6.877  18.093   6.451  0.2177  0.1620  0.1963
  988loPI   C4A15474   7.053  17.869   6.938  0.2284 -0.1470 -0.3491
  988loPI   C5A15475   7.434  17.873   7.238  0.1198  0.0984 -0.0889
  988loPI   C6A15476   7.628  18.173   7.326  0.0856  0.1269 -0.0927
  988loPI   C1B15477   7.111  17.405   5.634  0.0270  0.1176  0.0234
  988loPI   C2B15478   7.227  17.477   6.028  0.0092 -0.1002  0.2360
  988loPI   C3B15479   7.409  17.198   6.392 -0.2506 -0.0985  0.1194
  988loPI   C4B15480   7.491  16.879   6.717  0.0246 -0.2775  0.3614
  989loPI    C115481  12.057  19.065   4.025 -0.0355  0.0235 -0.0609
  989loPI    C215482  12.384  18.858   3.924  0.1512  0.2761  0.0143
  989loPI    C315483  12.222  19.115   3.664 -0.0490  0.0792 -0.0595
  989loPI   PO415484  11.988  18.962   4.280 -0.2802 -0.1023  0.1465
  989loPI   GL115485  11.892  19.236   4.701  0.0069  0.1624 -0.2057
  989loPI   GL215486  11.621  19.142   4.651  0.0010  0.1472  0.0790
  989loPI   C1A15487  11.824  19.348   5.101 -0.0272 -0.1212  0.0095
  989loPI   C2A15488  11.928  19.384   5.483  0.0515  0.3274  0.0798
  989loPI   C3A15489  12.010  19.325   5.864 -0.1243  0.2479  0.3156
  989loPI   C4A15490  12.087  19.140   6.274  0.0124  0.3593  0.1433
  989loPI   C5A15491  12.222  19.331   6.666  0.1600  0.1996 -0.0877
  989loPI   C6A15492  12.654  19.445   6.841  0.0252  0.1099  0.0602
  989loPI   C1B15493  11.399  19.063   4.946 -0.1614  0.0601 -0.2634
  989loPI   C2B15494  11.459  19.033   5.368 -0.0920  0.0364 -0.3628
  989loPI   C3B15495  11.408  19.327   5.772 -0.0191 -0.0552  0.1927
  989loPI   C4B15496  11.047  19.469   6.014 -0.1101  0.0585 -0.0217
  990loPI    C115497  14.247   8.544   4.113  0.2380  0.1400 -0.2133
  990loPI    C215498  14.613   8.382   4.124  0.1535 -0.0411  0.0335
  990loPI    C315499  14.312   8.184   3.951  0.0919 -0.0614  0.1622
  990loPI   PO415500  14.257   8.697   4.436  0.1088  0.3092 -0.2667
  990loPI   GL115501  14.363   8.592   4.888  0.3190 -0.0081  0.0829
  990loPI   GL215502  14.068   8.699   4.974  0.1292 -0.0677 -0.2193
  990loPI   C1A15503  14.198   8.250   5.204 -0.2033 -0.2366 -0.0233
  990loPI   C2A15504  13.873   8.026   5.224 -0.0895  0.1305  0.1302
  990loPI   C3A15505  13.728   7.737   5.425 -0.4760 -0.2003  0.0150
  990loPI   C4A15506  13.496   7.641   5.799  0.2219  0.0282  0.0948
  990loPI   C5A15507  13.275   7.700   6.162 -0.1094 -0.2188  0.0777
  990loPI   C6A15508  12.944   7.846   6.368 -0.0661 -0.0710  0.0131
  990loPI   C1B15509  13.877   8.935   5.331 -0.1127 -0.0405 -0.2112
  990loPI   C2B15510  13.952   9.126   5.708 -0.0650  0.3198  0.1087
  990loPI   C3B15511  14.098   9.164   6.200  0.2951  0.0630 -0.1842
  990loPI   C4B15512  14.016   9.366   6.554 -0.0109 -0.0088 -0.1704
  991loPI    C115513  13.036   8.341   4.419 -0.0518 -0.1585 -0.0879
  991loPI    C215514  13.422   8.296   4.514  0.0670  0.1642 -0.3964
  991loPI    C315515  13.286   8.165   4.161 -0.1690 -0.1943 -0.1780
  991loPI   PO415516  12.902   8.328   4.729  0.3860  0.0287 -0.2987
  991loPI   GL115517  13.089   8.412   5.067 -0.0455  0.2584 -0.4812
  991loPI   GL215518  12.984   8.700   5.263 -0.1335 -0.1272  0.1909
  991loPI   C1A15519  13.590   8.502   5.262  0.1540 -0.2408 -0.1553
  991loPI   C2A15520  13.899   8.404   5.587  0.0035  0.3414  0.0573
  991loPI   C3A15521  13.848   8.132   5.799  0.0323 -0.0326 -0.0165
  991loPI   C4A15522  13.739   8.052   6.184 -0.1252 -0.2057 -0.0696
  991loPI   C5A15523  13.605   7.725   6.490  0.3219  0.1975  0.3785
  991loPI   C6A15524  13.276   7.693   6.741  0.2030 -0.3811 -0.1955
  991loPI   C1B15525  13.031   8.732   5.571 -0.0418 -0.0413  0.0467
  991loPI   C2B15526  13.190   8.683   6.015  0.0829 -0.1275  0.1804
  991loPI   C3B15527  13.205   8.681   6.478 -0.3215 -0.0638  0.0205
  991loPI   C4B15528  13.371   8.767   6.877 -0.1050 -0.0264 -0.0400
  992loPI    C115529  18.686  18.394   4.113 -0.4111 -0.2046  0.0778
  992loPI    C215530  18.452  18.707   4.199  0.1104  0.2540 -0.1137
  992loPI    C315531  18.627  18.680   3.840  0.3746 -0.0634  0.0331
  992loPI   PO415532  18.542  18.181   4.346 -0.0402  0.1030  0.1659
  992loPI   GL115533  18.761  17.974   4.624 -0.1301 -0.0902 -0.0669
  992loPI   GL215534  18.455  17.958   4.835  0.2674  0.0102  0.2929
  992loPI   C1A15535  18.876  17.926   5.015 -0.0016 -0.1849 -0.2498
  992loPI   C2A15536  18.965  18.111   5.410  0.1684 -0.0963 -0.0053
  992loPI   C3A15537  19.259  18.169   5.695 -0.1375  0.0499  0.3154
  992loPI   C4A15538  19.354  18.303   6.008 -0.1084  0.4113  0.0761
  992loPI   C5A15539  19.577  18.178   6.447  0.0783 -0.1394 -0.1156
  992loPI   C6A15540  19.580  18.317   6.929  0.0814  0.1100 -0.0415
  992loPI   C1B15541  18.169  17.801   5.103 -0.1025  0.0774 -0.0891
  992loPI   C2B15542  18.226  17.736   5.492 -0.1968 -0.0421  0.0283
  992loPI   C3B15543  18.380  17.436   5.770  0.0351  0.1545  0.2613
  992loPI   C4B15544  18.422  17.376   6.140 -0.1009  0.1090 -0.0433
  993loPI    C115545  15.581   8.755   4.781 -0.0295 -0.0954 -0.1440
  993loPI    C215546  15.518   8.625   4.408 -0.0703 -0.0946 -0.1373
  993loPI    C315547  15.212   8.763   4.626 -0.0377 -0.0466 -0.1219
  993loPI   PO415548  15.654   8.617   4.897  0.1989  0.2037 -0.0669
  993loPI   GL115549  15.606   8.323   5.189  0.0536 -0.0474  0.0653
  993loPI   GL215550  15.829   8.195   5.488  0.0293 -0.3686  0.1329
  993loPI   C1A15551  15.403   8.469   5.537  0.0480 -0.1602 -0.1807
  993loPI   C2A15552  15.263   8.426   5.940 -0.0842 -0.2938 -0.1835
  993loPI   C3A15553  15.247   8.519   6.305  0.0137  0.1724  0.2477
  993loPI   C4A15554  15.452   8.756   6.515  0.0600 -0.0175  0.0254
  993loPI   C5A15555  15.747   8.945   6.758 -0.2205  0.2278  0.0324
  993loPI   C6A15556  15.881   9.400   6.787 -0.1205 -0.1695  0.1921
  993loPI   C1B15557  15.869   8.400   5.865  0.0709  0.0819  0.1313
  993loPI   C2B15558  15.866   8.562   6.299  0.0207 -0.2833  0.1262
  993loPI   C3B15559  15.810   8.310   6.681 -0.1671 -0.2495  0.1414
  993loPI   C4B15560  15.754   8.094   7.050 -0.2473  0.3134 -0.2295
  994loPI    C115561   0.510   3.806   4.263 -0.2774 -0.0374  0.0386
  994loPI    C215562   0.657   3.722   3.901  0.0140  0.0501  0.1332
  994loPI    C315563   0.589   3.427   4.162  0.2361  0.0273  0.1671
  994loPI   PO415564   0.686   4.017   4.386 -0.0225  0.2222 -0.0753
  994loPI   GL115565   0.766   4.076   4.737 -0.1148  0.0356  0.1123
  994loPI   GL215566   0.922   4.310   4.931 -0.3006 -0.2725  0.0687
  994loPI   C1A15567   0.666   3.960   5.170 -0.3666  0.0590  0.4542
  994loPI   C2A15568   0.750   3.917   5.633 -0.0354 -0.0574 -0.1614
  994loPI   C3A15569   0.624   4.028   6.022  0.2422 -0.2169  0.0659
  994loPI   C4A15570   0.692   4.120   6.410  0.1086 -0.1161 -0.1257
  994loPI   C5A15571   0.645   4.261   6.854  0.2294 -0.0208 -0.1815
  994loPI   C6A15572   0.651   4.033   7.223  0.4861  0.1691 -0.1205
  994loPI   C1B15573   0.848   4.404   5.314  0.1122 -0.1890  0.0184
  994loPI   C2B15574   0.674   4.424   5.739  0.3962 -0.2290 -0.3446
  994loPI   C3B15575   0.508   4.489   6.121 -0.0267  0.1060 -0.1808
  994loPI   C4B15576   0.352   4.558   6.537 -0.2670  0.0921 -0.2034
  995loPI    C115577   4.362  11.124   5.023 -0.0572 -0.1785 -0.0040
  995loPI    C215578   4.624  10.837   4.928  0.0552 -0.1337  0.1674
  995loPI    C315579   4.507  11.100   4.651 -0.0207 -0.3216  0.0189
  995loPI   PO415580   4.270  11.074   5.294  0.1851  0.1210 -0.0219
  995loPI   GL115581   4.122  10.854   5.689  0.1374  0.1141 -0.0480
  995loPI   GL215582   3.855  10.647   5.722 -0.1706 -0.0224  0.0471
  995loPI   C1A15583   3.882  10.957   6.091 -0.4227  0.0907  0.0408
  995loPI   C2A15584   3.904  10.878   6.502  0.1886  0.0735 -0.1729
  995loPI   C3A15585   3.728  10.877   6.903  0.3863  0.1197 -0.1690
  995loPI   C4A15586   3.623  10.661   7.233 -0.2969  0.0906 -0.2671
  995loPI   C5A15587   3.797  10.598   7.597 -0.2784  0.1199 -0.0673
  995loPI   C6A15588   4.186  10.381   7.821  0.0746  0.2069 -0.0962
  995loPI   C1B15589   4.084  10.525   6.157  0.2207 -0.0206  0.0458
  995loPI   C2B15590   4.255  10.385   6.466  0.0419  0.0525 -0.2282
  995loPI   C3B15591   4.148  10.211   6.927 -0.1180 -0.0125 -0.0514
  995loPI   C4B15592   4.327  10.299   7.360 -0.0025 -0.0639 -0.1459
  996loPI    C115593  13.676   4.132   5.001  0.0774  0.0331 -0.1175
  996loPI    C215594  13.812   4.430   4.772  0.0073  0.2038  0.0591
  996loPI    C315595  14.056   4.250   5.033  0.0877  0.0079 -0.1473
  996loPI   PO415596  13.443   4.141   4.961  0.0777 -0.0749  0.1981
  996loPI   GL115597  13.239   4.263   5.337  0.1140 -0.2757 -0.0237
  996loPI   GL215598  13.282   3.893   5.351  0.4717  0.1441  0.2369
  996loPI   C1A15599  13.604   4.040   5.688  0.0073 -0.0455 -0.3046
  996loPI   C2A15600  13.442   3.793   6.120 -0.1049 -0.2409  0.3358
  996loPI   C3A15601  13.345   3.993   6.395  0.0900 -0.0983 -0.0014
  996loPI   C4A15602  12.985   4.046   6.590 -0.1416 -0.3311  0.1452
  996loPI   C5A15603  12.809   3.817   6.920  0.1551  0.0460  0.1653
  996loPI   C6A15604  12.684   3.685   7.317  0.1183  0.1141  0.2311
  996loPI   C1B15605  13.073   3.994   5.721 -0.3940 -0.3288  0.2472
  996loPI   C2B15606  12.815   4.206   6.111 -0.0889  0.2388  0.0471
  996loPI   C3B15607  12.630   4.372   6.418 -0.1758 -0.0326  0.2778
  996loPI   C4B15608  12.764   4.489   6.726  0.0489  0.3235 -0.2954
  997loPI    C115609   0.210  16.297   4.470 -0.0335  0.1648  0.0349
  997loPI    C215610   0.045  15.933   4.473  0.0959  0.1058  0.0204
  997loPI    C315611   0.303  16.033   4.184  0.1776  0.1560  0.1104
  997loPI   PO415612   0.056  16.419   4.643  0.0133 -0.0836  0.3983
  997loPI   GL115613  -0.010  16.857   4.740 -0.0706 -0.0654 -0.6569
  997loPI   GL215614   0.225  17.028   4.801  0.0388  0.1111  0.0625
  997loPI   C1A15615  -0.196  16.913   5.118 -0.1099  0.1955 -0.4107
  997loPI   C2A15616  -0.284  17.158   5.442 -0.2439  0.0752  0.1453
  997loPI   C3A15617  -0.158  17.275   5.879  0.2115 -0.2237 -0.0288
  997loPI   C4A15618  -0.045  16.938   6.261 -0.1996 -0.3480  0.4244
  997loPI   C5A15619   0.256  16.746   6.594 -0.1831 -0.0513  0.2673
  997loPI   C6A15620   0.559  16.832   6.782  0.1164 -0.0643  0.2391
  997loPI   C1B15621   0.352  16.786   5.138 -0.0334 -0.0659  0.0305
  997loPI   C2B15622   0.420  16.531   5.501 -0.0882 -0.1919 -0.0252
  997loPI   C3B15623   0.706  16.511   5.796  0.0463  0.1591 -0.2383
  997loPI   C4B15624   0.928  16.398   6.051 -0.1546 -0.0760  0.1681
  998loPI    C115625  15.538   9.593   4.454 -0.2862  0.0328 -0.1060
  998loPI    C215626  15.264   9.632   4.165 -0.2227 -0.1359 -0.1903
  998loPI    C315627  15.612   9.451   4.088 -0.1822 -0.1310 -0.0225
  998loPI   PO415628  15.493   9.800   4.605 -0.1461 -0.0349 -0.1053
  998loPI   GL115629  15.338   9.794   4.989 -0.0839  0.1200  0.2976
  998loPI   GL215630  15.142  10.106   4.905  0.1820  0.1276 -0.2787
  998loPI   C1A15631  15.113   9.891   5.341  0.2245  0.0954 -0.1364
  998loPI   C2A15632  15.091  10.050   5.703 -0.0960 -0.2032  0.2061
  998loPI   C3A15633  15.167  10.234   6.145  0.2711 -0.1333  0.2059
  998loPI   C4A15634  15.246  10.115   6.485  0.2021 -0.1965  0.2885
  998loPI   C5A15635  15.198  10.055   6.879 -0.3154  0.0354 -0.0232
  998loPI   C6A15636  15.219  10.073   7.260 -0.2959 -0.0368  0.0608
  998loPI   C1B15637  15.203  10.355   5.177 -0.1024  0.0707 -0.0435
  998loPI   C2B15638  15.092  10.634   5.524  0.2027  0.0113 -0.2424
  998loPI   C3B15639  15.164  10.777   5.945 -0.0341 -0.0269  0.0956
  998loPI   C4B15640  15.372  10.672   6.319  0.2028  0.3321 -0.2477
  999loPI    C115641   8.752  12.541   4.910 -0.1783 -0.0016  0.0505
  999loPI    C215642   8.601  12.791   4.637  0.0438 -0.0027 -0.0754
  999loPI    C315643   8.594  12.396   4.573  0.1678  0.0014 -0.1177
  999loPI   PO415644   8.645  12.557   5.144 -0.0991 -0.3122 -0.0745
  999loPI   GL115645   8.561  12.569   5.536 -0.0542 -0.2202  0.3179
  999loPI   GL215646   8.659  12.247   5.515 -0.0389 -0.0525 -0.2139
  999loPI   C1A15647   8.629  12.529   5.935 -0.0856  0.2631  0.0352
  999loPI   C2A15648   8.337  12.588   6.239 -0.1524  0.3987 -0.0428
  999loPI   C3A15649   8.239  12.487   6.694  0.0703 -0.0257  0.0417
  999loPI   C4A15650   8.087  12.211   7.045  0.1537 -0.0611  0.1930
  999loPI   C5A15651   8.201  11.954   7.285  0.0610 -0.1030 -0.1616
  999loPI   C6A15652   8.223  11.651   7.654 -0.3743 -0.0039  0.1154
  999loPI   C1B15653   8.320  12.134   5.841 -0.0268 -0.0306  0.0639
  999loPI   C2B15654   7.864  12.000   5.680 -0.0061 -0.2658 -0.0460
  999loPI   C3B15655   7.805  11.756   5.759 -0.0336 -0.0718  0.1981
  999loPI   C4B15656   7.769  11.335   5.922  0.1283  0.2396  0.1269
 1000loPI    C115657  10.216  15.744   4.533 -0.0775 -0.3113 -0.1814
 1000loPI    C215658  10.455  15.431   4.461  0.1306 -0.1990  0.0062
 1000loPI    C315659  10.464  15.748   4.219 -0.0039 -0.2929 -0.1237
 1000loPI   PO415660  10.219  15.684   4.829 -0.1688 -0.0141 -0.3748
 1000loPI   GL115661  10.004  15.697   5.274 -0.2518 -0.1877  0.0264
 1000loPI   GL215662  10.153  15.946   5.353 -0.0246 -0.1707 -0.1530
 1000loPI   C1A15663   9.839  15.580   5.657  0.1309 -0.0627  0.0367
 1000loPI   C2A15664   9.759  15.910   5.905 -0.1121 -0.3770  0.0219
 1000loPI   C3A15665   9.379  15.889   6.186  0.0593 -0.0641  0.0655
 1000loPI   C4A15666   9.261  15.569   6.540 -0.1794 -0.0966  0.3300
 1000loPI   C5A15667   9.009  15.504   6.908 -0.0130 -0.1645 -0.1155
 1000loPI   C6A15668   8.882  15.099   7.173 -0.0723  0.2653  0.2210
 1000loPI   C1B15669  10.239  15.976   5.701 -0.0143 -0.2422 -0.2765
 1000loPI   C2B15670  10.275  15.967   6.199 -0.0686  0.0566  0.0442
 1000loPI   C3B15671  10.193  15.705   6.504  0.0271  0.1101 -0.0718
 1000loPI   C4B15672  10.028  15.560   6.832  0.0744  0.1164  0.1812
 1001loPI    C115673   8.872   7.018   4.714 -0.0485 -0.1297  0.0364
 1001loPI    C215674   9.055   7.193   4.404  0.1431 -0.2957  0.0533
 1001loPI    C315675   8.670   7.087   4.375  0.0581  0.0144  0.0009
 1001loPI   PO415676   8.937   7.197   4.891 -0.2283 -0.2547 -0.1855
 1001loPI   GL115677   9.097   7.405   5.182  0.2038  0.1514 -0.1358
 1001loPI   GL215678   9.296   7.216   5.317 -0.3471  0.2109 -0.0901
 1001loPI   C1A15679   8.861   7.370   5.565 -0.1315 -0.0009  0.2220
 1001loPI   C2A15680   8.665   7.234   6.049 -0.1011 -0.0772  0.0497
 1001loPI   C3A15681   8.870   7.213   6.439 -0.2486  0.1303 -0.0748
 1001loPI   C4A15682   8.829   7.416   6.848 -0.2495  0.0716  0.2490
 1001loPI   C5A15683   8.952   7.621   7.260 -0.0651  0.1249  0.1987
 1001loPI   C6A15684   8.834   7.830   7.675  0.0332  0.1007 -0.2158
 1001loPI   C1B15685   9.344   7.642   5.551 -0.2043 -0.0811 -0.0362
 1001loPI   C2B15686   9.370   7.911   5.871 -0.2937  0.0829  0.0727
 1001loPI   C3B15687   9.623   8.069   6.174 -0.1878  0.2900 -0.0161
 1001loPI   C4B15688   9.673   8.218   6.725 -0.2987 -0.2010 -0.0358
 1002loPI    C115689  12.612   0.124   4.225 -0.1118  0.2197  0.1158
 1002loPI    C215690  12.594   0.326   3.880  0.1689 -0.1342 -0.1124
 1002loPI    C315691  12.437  -0.041   3.906 -0.0490 -0.0232  0.2049
 1002loPI   PO415692  12.543   0.323   4.468 -0.1666 -0.2849 -0.1878
 1002loPI   GL115693  12.489   0.352   4.863 -0.4224 -0.1924 -0.0985
 1002loPI   GL215694  12.388  -0.050   4.766 -0.1491 -0.1456  0.0091
 1002loPI   C1A15695  12.589   0.533   5.210 -0.1663  0.1445 -0.1684
 1002loPI   C2A15696  12.603   0.588   5.662  0.1046 -0.2674  0.1422
 1002loPI   C3A15697  12.557   0.550   6.167  0.0671  0.2797 -0.0200
 1002loPI   C4A15698  12.832   0.560   6.579 -0.1112 -0.0121 -0.0887
 1002loPI   C5A15699  13.098   0.181   6.766 -0.0158 -0.1348  0.1699
 1002loPI   C6A15700  13.155  -0.266   6.891  0.2168  0.2977 -0.1098
 1002loPI   C1B15701  12.283  -0.436   5.018  0.2398 -0.0885  0.0580
 1002loPI   C2B15702  12.471  -0.874   5.230 -0.1965 -0.0362 -0.0099
 1002loPI   C3B15703  12.572  -0.866   5.640  0.2644 -0.1652 -0.1830
 1002loPI   C4B15704  13.090  -0.723   5.789 -0.2064  0.1585 -0.1881
 1003loPI    C115705   2.510  11.006   4.680 -0.3540 -0.0885  0.1048
 1003loPI    C215706   2.737  10.898   4.369 -0.2353 -0.2106  0.2327
 1003loPI    C315707   2.483  11.205   4.333 -0.1043 -0.1196  0.0657
 1003loPI   PO415708   2.675  10.987   4.983 -0.5944 -0.1775 -0.0606
 1003loPI   GL115709   2.480  10.962   5.411  0.0789  0.0533 -0.0712
 1003loPI   GL215710   2.271  10.743   5.422 -0.1497  0.0381  0.1526
 1003loPI   C1A15711   2.630  10.939   5.784  0.0669 -0.1390 -0.0767
 1003loPI   C2A15712   2.522  10.884   6.187 -0.1781 -0.0942  0.0272
 1003loPI   C3A15713   2.264  10.860   6.569 -0.2099 -0.0458 -0.0525
 1003loPI   C4A15714   2.264  10.589   6.920 -0.1170  0.0215  0.3697
 1003loPI   C5A15715   2.285  10.436   7.325 -0.1810 -0.0667  0.1352
 1003loPI   C6A15716   2.578  10.253   7.642 -0.2178  0.1134  0.1172
 1003loPI   C1B15717   2.047  10.897   5.785  0.1299  0.1811  0.1320
 1003loPI   C2B15718   1.944  10.722   6.238 -0.1687  0.0757 -0.0654
 1003loPI   C3B15719   1.942  10.457   6.549 -0.5235 -0.0457 -0.2733
 1003loPI   C4B15720   1.716  10.341   6.766  0.0111 -0.0456  0.2379
 1004loPI    C115721   1.152   0.169   4.616 -0.0092  0.1348  0.2175
 1004loPI    C215722   1.165   0.467   4.883 -0.2064  0.3601 -0.0185
 1004loPI    C315723   1.144   0.550   4.493 -0.2574  0.0347 -0.0875
 1004loPI   PO415724   1.073  -0.095   4.722 -0.1693  0.0841 -0.0502
 1004loPI   GL115725   1.111  -0.225   5.090  0.1305  0.1407  0.0938
 1004loPI   GL215726   0.971   0.000   5.180 -0.1427 -0.0849  0.0565
 1004loPI   C1A15727   1.219  -0.518   5.486 -0.0433  0.2348 -0.0101
 1004loPI   C2A15728   1.208  -0.723   5.859  0.4519  0.1949  0.0778
 1004loPI   C3A15729   0.991  -0.733   6.202  0.0875  0.0351 -0.0140
 1004loPI   C4A15730   0.987  -0.862   6.662  0.1882 -0.1802  0.1198
 1004loPI   C5A15731   0.960  -1.215   7.021 -0.0003  0.2641  0.1618
 1004loPI   C6A15732   0.524  -1.312   7.196  0.5153 -0.3485 -0.0350
 1004loPI   C1B15733   1.215  -0.041   5.621  0.0427 -0.2005  0.1634
 1004loPI   C2B15734   1.430  -0.213   5.893  0.0676  0.0678  0.2802
 1004loPI   C3B15735   1.249  -0.252   6.281 -0.0899 -0.3152 -0.0712
 1004loPI   C4B15736   1.344  -0.471   6.564  0.1740  0.0681  0.0223
 1005loPI    C115737   7.277  13.545   4.853 -0.0171 -0.1249  0.0633
 1005loPI    C215738   7.348  13.876   4.640 -0.0522 -0.2532 -0.1519
 1005loPI    C315739   7.009  13.842   4.850  0.1807  0.0591  0.2919
 1005loPI   PO415740   7.525  13.575   5.023  0.0443 -0.3050 -0.2796
 1005loPI   GL115741   7.472  13.554   5.496  0.2063 -0.0332 -0.3688
 1005loPI   GL215742   7.211  13.823   5.443 -0.1019 -0.2668  0.0189
 1005loPI   C1A15743   7.576  13.511   5.959  0.0776  0.0396 -0.0631
 1005loPI   C2A15744   7.331  13.515   6.276 -0.2982  0.0283 -0.0256
 1005loPI   C3A15745   7.263  13.407   6.695  0.1341  0.3294 -0.0960
 1005loPI   C4A15746   7.104  13.420   7.032 -0.2073 -0.0279 -0.0456
 1005loPI   C5A15747   6.951  13.489   7.491  0.2263  0.0282  0.1131
 1005loPI   C6A15748   6.703  13.348   7.849 -0.0586 -0.0454 -0.1759
 1005loPI   C1B15749   7.217  13.980   5.862  0.1608  0.1758 -0.1006
 1005loPI   C2B15750   7.230  14.044   6.249  0.0607 -0.0421 -0.1933
 1005loPI   C3B15751   7.388  13.917   6.643  0.0962  0.1374 -0.0704
 1005loPI   C4B15752   7.608  14.091   6.945 -0.3299 -0.0995 -0.1398
 1006loPI    C115753  12.158  17.806   3.712 -0.1685 -0.1102 -0.1375
 1006loPI    C215754  12.487  17.787   3.939 -0.0223  0.2337 -0.3147
 1006loPI    C315755  12.515  17.752   3.541 -0.2588 -0.2065 -0.2988
 1006loPI   PO415756  11.972  17.934   3.869 -0.3984  0.0766 -0.4720
 1006loPI   GL115757  11.875  17.856   4.336 -0.0648 -0.1577  0.0992
 1006loPI   GL215758  12.232  18.014   4.352 -0.3682 -0.0406  0.2162
 1006loPI   C1A15759  11.854  17.817   4.764  0.3637 -0.2337 -0.2473
 1006loPI   C2A15760  11.965  17.852   5.301 -0.1264  0.0352  0.1245
 1006loPI   C3A15761  11.940  17.960   5.743 -0.2089 -0.0690  0.1061
 1006loPI   C4A15762  11.936  17.940   6.235 -0.1010  0.1442  0.2748
 1006loPI   C5A15763  12.078  17.818   6.641  0.0817 -0.0745 -0.1334
 1006loPI   C6A15764  12.413  17.529   6.787  0.1409  0.0633 -0.1311
 1006loPI   C1B15765  12.448  17.720   4.704  0.0589 -0.0293  0.3858
 1006loPI   C2B15766  12.230  17.501   5.047 -0.0825 -0.0344  0.2488
 1006loPI   C3B15767  12.261  17.041   5.143 -0.3940 -0.0081  0.1637
 1006loPI   C4B15768  12.592  16.717   5.303  0.1590 -0.2053 -0.1537
 1007loPI    C115769  16.140   7.833   4.974  0.0841 -0.0250  0.0437
 1007loPI    C215770  16.125   7.435   5.011 -0.1600 -0.0122  0.1000
 1007loPI    C315771  16.336   7.601   4.714  0.0321 -0.1792  0.1408
 1007loPI   PO415772  15.977   7.897   5.175  0.0269 -0.0271  0.0723
 1007loPI   GL115773  15.553   7.805   5.281  0.0614  0.2782  0.1456
 1007loPI   GL215774  15.812   7.532   5.436  0.2872 -0.0999  0.0039
 1007loPI   C1A15775  15.366   7.528   5.692 -0.2252 -0.2347  0.2076
 1007loPI   C2A15776  15.184   7.811   6.156  0.0705 -0.0483  0.1260
 1007loPI   C3A15777  15.115   8.060   6.533 -0.0774  0.3028 -0.0818
 1007loPI   C4A15778  15.177   8.360   6.862  0.2254  0.2221  0.1693
 1007loPI   C5A15779  15.375   8.700   7.063 -0.0622 -0.0057 -0.4582
 1007loPI   C6A15780  15.644   9.035   7.218  0.2295 -0.1374 -0.0922
 1007loPI   C1B15781  15.838   7.615   5.780  0.2230 -0.0085 -0.1292
 1007loPI   C2B15782  15.944   7.747   6.240 -0.0023 -0.0774 -0.1994
 1007loPI   C3B15783  16.029   7.821   6.681  0.0815 -0.0343  0.0493
 1007loPI   C4B15784  16.218   7.719   7.092  0.1532 -0.2940  0.2673
 1008loPI    C115785  10.838  12.146   4.428 -0.1651  0.0634  0.2053
 1008loPI    C215786  10.907  12.493   4.241 -0.0842  0.0495  0.2090
 1008loPI    C315787  10.691  12.208   4.061 -0.1355  0.0948  0.1987
 1008loPI   PO415788  10.761  12.301   4.746  0.0040 -0.1538 -0.1202
 1008loPI   GL115789  10.671  12.097   5.109  0.2605  0.2284 -0.2352
 1008loPI   GL215790  10.410  11.999   5.160  0.0766 -0.1492 -0.2823
 1008loPI   C1A15791  10.888  11.863   5.492 -0.0113  0.2303 -0.3683
 1008loPI   C2A15792  10.903  11.871   5.934  0.0281  0.2470 -0.5271
 1008loPI   C3A15793  10.865  11.976   6.358 -0.2669  0.0666 -0.3269
 1008loPI   C4A15794  10.661  11.908   6.747 -0.0553 -0.0484  0.0303
 1008loPI   C5A15795  10.915  12.233   7.083  0.2146 -0.2668  0.0269
 1008loPI   C6A15796  11.171  12.272   7.294  0.2751  0.3276 -0.0065
 1008loPI   C1B15797  10.357  12.206   5.600  0.1150 -0.0877  0.2357
 1008loPI   C2B15798  10.548  12.273   6.035  0.1801 -0.1523  0.0047
 1008loPI   C3B15799  10.530  12.331   6.446  0.0517 -0.0807  0.0712
 1008loPI   C4B15800  10.581  12.491   6.820 -0.3064  0.3806 -0.1792
 1009loPI    C115801   1.311   7.747   4.975 -0.2486 -0.1236 -0.0117
 1009loPI    C215802   1.084   7.981   4.743 -0.1687 -0.1655 -0.1336
 1009loPI    C315803   1.136   7.595   4.649  0.1715 -0.0919 -0.2598
 1009loPI   PO415804   1.255   7.860   5.177 -0.1108 -0.5082 -0.2677
 1009loPI   GL115805   1.009   7.744   5.493  0.1195  0.0234  0.0680
 1009loPI   GL215806   0.840   7.472   5.592 -0.1232 -0.2674 -0.3568
 1009loPI   C1A15807   0.845   7.795   5.941 -0.0322  0.1989  0.0344
 1009loPI   C2A15808   0.591   7.726   6.354  0.0137  0.0021  0.4081
 1009loPI   C3A15809   0.441   7.747   6.805 -0.0606 -0.4318  0.1150
 1009loPI   C4A15810   0.525   7.786   7.233  0.5404 -0.0348 -0.0429
 1009loPI   C5A15811   0.401   8.082   7.549  0.0428 -0.0154  0.0620
 1009loPI   C6A15812   0.260   8.332   7.849 -0.1826  0.2892 -0.0315
 1009loPI   C1B15813   0.806   7.258   6.021  0.0241 -0.2024  0.0450
 1009loPI   C2B15814   0.736   7.270   6.503  0.0337 -0.2020 -0.0140
 1009loPI   C3B15815   0.656   7.329   7.019  0.1230 -0.2083 -0.1395
 1009loPI   C4B15816   0.721   7.327   7.425 -0.2927 -0.1618  0.0626
 1010loPI    C115817  17.520   3.022   4.805 -0.2199  0.2367 -0.0625
 1010loPI    C215818  17.623   3.339   4.583 -0.0474  0.3121  0.1217
 1010loPI    C315819  17.869   3.025   4.609 -0.2269  0.1526 -0.0763
 1010loPI   PO415820  17.341   3.132   4.960 -0.0471  0.4196 -0.0141
 1010loPI   GL115821  17.115   3.320   5.335 -0.1911 -0.2993  0.0629
 1010loPI   GL215822  16.969   2.982   5.335 -0.2818 -0.2228  0.0716
 1010loPI   C1A15823  17.233   3.539   5.727 -0.0803  0.1357  0.0413
 1010loPI   C2A15824  17.285   3.544   6.080  0.2230 -0.1699 -0.0551
 1010loPI   C3A15825  17.410   3.383   6.455  0.1101  0.2832 -0.1756
 1010loPI   C4A15826  17.393   3.391   6.968  0.3605 -0.0146 -0.0119
 1010loPI   C5A15827  17.538   3.246   7.377 -0.3296 -0.0158  0.2202
 1010loPI   C6A15828  17.240   2.999   7.681  0.0723 -0.0241 -0.1437
 1010loPI   C1B15829  16.917   3.113   5.760  0.3209  0.0677  0.0095
 1010loPI   C2B15830  16.961   3.252   6.284 -0.1575  0.3349  0.0521
 1010loPI   C3B15831  17.000   3.526   6.610  0.1600  0.2745 -0.3429
 1010loPI   C4B15832  16.887   3.926   6.675 -0.0253  0.0613 -0.2480
 1011loPI    C115833  15.142  10.610   4.646  0.0875  0.0661  0.0161
 1011loPI    C215834  15.350  10.730   4.966  0.3369 -0.3568  0.0203
 1011loPI    C315835  15.505  10.772   4.599  0.1066  0.0076 -0.0406
 1011loPI   PO415836  14.856  10.678   4.669 -0.2325  0.1581  0.1989
 1011loPI   GL115837  14.392  10.725   4.931  0.1226 -0.1443  0.0445
 1011loPI   GL215838  14.553  10.426   5.015 -0.0905 -0.2756  0.1757
 1011loPI   C1A15839  14.232  10.592   5.320 -0.1139 -0.1035 -0.2892
 1011loPI   C2A15840  14.273  10.530   5.781  0.0176  0.1402 -0.2101
 1011loPI   C3A15841  14.414  10.665   6.295  0.2856 -0.0914  0.1960
 1011loPI   C4A15842  14.648  10.567   6.725  0.0013  0.1614  0.3040
 1011loPI   C5A15843  14.704  10.644   7.185  0.0254  0.2432 -0.1091
 1011loPI   C6A15844  14.729  10.785   7.611  0.2136 -0.1101  0.1654
 1011loPI   C1B15845  14.736  10.356   5.458 -0.0029  0.2984 -0.4386
 1011loPI   C2B15846  14.721  10.370   5.852 -0.2325 -0.0371 -0.0941
 1011loPI   C3B15847  14.522  10.195   6.188 -0.2034  0.2392 -0.0702
 1011loPI   C4B15848  14.274   9.956   6.354 -0.1256 -0.0225 -0.1502
 1012loPI    C115849  11.628   9.124   4.582 -0.2748  0.1538  0.0590
 1012loPI    C215850  11.920   8.851   4.569 -0.4154 -0.0057  0.1939
 1012loPI    C315851  11.810   9.042   4.235 -0.1375  0.0788  0.1481
 1012loPI   PO415852  11.733   9.155   4.888  0.2091  0.1876  0.2321
 1012loPI   GL115853  11.982   9.279   5.162 -0.0672 -0.0740  0.2430
 1012loPI   GL215854  12.005   9.010   5.342 -0.0434  0.0628  0.1112
 1012loPI   C1A15855  12.055   9.440   5.535 -0.0556  0.4583 -0.0581
 1012loPI   C2A15856  12.002   9.659   5.820  0.3267  0.3440  0.3991
 1012loPI   C3A15857  11.896   9.693   6.241  0.0719  0.0780 -0.2290
 1012loPI   C4A15858  11.795   9.674   6.624  0.2111  0.1254  0.1311
 1012loPI   C5A15859  11.606   9.957   6.919 -0.2052  0.0267 -0.0943
 1012loPI   C6A15860  11.503   9.992   7.394  0.2906  0.0378 -0.2617
 1012loPI   C1B15861  12.155   8.914   5.814 -0.0741  0.1898 -0.3044
 1012loPI   C2B15862  12.383   8.582   6.175 -0.2504 -0.0498  0.0357
 1012loPI   C3B15863  12.624   8.338   6.515  0.1332 -0.1190  0.0497
 1012loPI   C4B15864  12.757   8.440   6.953  0.1220  0.3696  0.0675
 1013loPI    C115865   5.347   9.718   4.873 -0.2199 -0.1336  0.0983
 1013loPI    C215866   5.396   9.355   4.712  0.2348 -0.1382  0.2327
 1013loPI    C315867   5.667   9.641   4.645 -0.1767  0.2178  0.0352
 1013loPI   PO415868   5.401   9.670   5.197  0.0534 -0.0041  0.0410
 1013loPI   GL115869   5.309   9.528   5.627 -0.0821 -0.0859 -0.1266
 1013loPI   GL215870   5.087   9.834   5.612 -0.0156  0.0288  0.0746
 1013loPI   C1A15871   5.668   9.395   6.002  0.2854 -0.3758 -0.0245
 1013loPI   C2A15872   5.769   9.762   6.276  0.3128  0.2958  0.0098
 1013loPI   C3A15873   6.084   9.751   6.547 -0.0765 -0.4955 -0.0934
 1013loPI   C4A15874   6.275   9.625   6.966 -0.2417  0.1454 -0.0151
 1013loPI   C5A15875   6.476   9.961   7.226 -0.2428  0.2152  0.2564
 1013loPI   C6A15876   6.387  10.014   7.687  0.1527 -0.0081 -0.2307
 1013loPI   C1B15877   5.264   9.921   6.039  0.0715 -0.0061  0.0352
 1013loPI   C2B15878   5.173   9.662   6.151 -0.1256 -0.0108 -0.0974
 1013loPI   C3B15879   5.358   9.520   6.506  0.0773 -0.1305 -0.2996
 1013loPI   C4B15880   5.639   9.742   6.794 -0.1720 -0.1434  0.2027
 1014loPI    C115881   7.766  18.919   4.734  0.0682  0.0342  0.0789
 1014loPI    C215882   7.790  18.658   4.432  0.0145 -0.0431  0.1410
 1014loPI    C315883   7.891  19.041   4.374  0.0515 -0.0681  0.0383
 1014loPI   PO415884   7.782  18.824   4.925 -0.0427  0.4549 -0.3001
 1014loPI   GL115885   7.736  18.831   5.384 -0.1963 -0.0308 -0.2832
 1014loPI   GL215886   7.777  18.476   5.329 -0.1002 -0.1549  0.0390
 1014loPI   C1A15887   7.756  18.814   5.776 -0.0927 -0.1486 -0.0875
 1014loPI   C2A15888   7.989  18.772   6.259 -0.0036  0.0380  0.0687
 1014loPI   C3A15889   8.047  18.826   6.748 -0.2990  0.0276  0.1099
 1014loPI   C4A15890   8.020  19.101   7.085  0.1430 -0.0142  0.2704
 1014loPI   C5A15891   7.830  19.535   7.153  0.0530 -0.1068 -0.2387
 1014loPI   C6A15892   7.423  19.666   7.154 -0.0430  0.2058 -0.1023
 1014loPI   C1B15893   7.495  18.403   5.747  0.5446 -0.0079  0.0839
 1014loPI   C2B15894   7.635  18.379   6.141  0.2330  0.0775  0.0697
 1014loPI   C3B15895   7.728  18.355   6.494  0.2681  0.0264  0.0758
 1014loPI   C4B15896   8.006  18.167   6.812 -0.0320 -0.1955  0.0634
 1015loPI    C115897   6.819   8.998   4.995 -0.0155  0.0679  0.1155
 1015loPI    C215898   6.648   8.654   4.885 -0.1614  0.1640  0.0389
 1015loPI    C315899   6.986   8.774   4.708 -0.0129 -0.0256  0.1896
 1015loPI   PO415900   6.713   9.036   5.296 -0.0749  0.1954 -0.2863
 1015loPI   GL115901   6.805   8.813   5.637 -0.1503 -0.0630 -0.1139
 1015loPI   GL215902   7.108   8.907   5.675  0.2171  0.1752 -0.0673
 1015loPI   C1A15903   6.432   8.716   5.971  0.1968  0.1555  0.0588
 1015loPI   C2A15904   6.183   8.643   6.386  0.0968  0.0067  0.1513
 1015loPI   C3A15905   6.050   8.763   6.743 -0.0526  0.0375 -0.0762
 1015loPI   C4A15906   6.048   8.702   7.158  0.2153  0.1763 -0.2586
 1015loPI   C5A15907   6.092   8.318   7.308 -0.0162 -0.1390 -0.1385
 1015loPI   C6A15908   5.978   7.848   7.366 -0.0983 -0.1346 -0.0978
 1015loPI   C1B15909   6.912   8.879   6.131 -0.0401  0.2506  0.0888
 1015loPI   C2B15910   6.945   8.970   6.512  0.2590 -0.2498 -0.0753
 1015loPI   C3B15911   6.858   9.088   6.886 -0.1283  0.2629 -0.1215
 1015loPI   C4B15912   6.889   9.086   7.318 -0.1869 -0.2408 -0.0374
 1016loPI    C115913  13.538  15.047   4.803 -0.0540  0.0953  0.0915
 1016loPI    C215914  13.800  15.349   4.808  0.1631 -0.0877 -0.0171
 1016loPI    C315915  13.628  15.238   4.464 -0.1444  0.1021  0.0711
 1016loPI   PO415916  13.603  14.828   4.966 -0.5002  0.1905  0.3960
 1016loPI   GL115917  13.683  14.458   5.389 -0.0200  0.0970 -0.2300
 1016loPI   GL215918  13.588  14.800   5.432 -0.0251 -0.1193  0.0930
 1016loPI   C1A15919  13.603  14.597   5.838  0.3098  0.1008 -0.0119
 1016loPI   C2A15920  13.580  14.609   6.320  0.4585  0.1244  0.3153
 1016loPI   C3A15921  13.316  14.601   6.765  0.6475  0.1042 -0.0216
 1016loPI   C4A15922  13.315  15.024   6.925  0.0555  0.1565 -0.2270
 1016loPI   C5A15923  13.465  15.495   6.956 -0.1652 -0.1828 -0.0382
 1016loPI   C6A15924  13.204  15.862   7.090 -0.1883  0.1113  0.2141
 1016loPI   C1B15925  13.653  15.197   5.689  0.2402  0.1772 -0.0818
 1016loPI   C2B15926  13.417  15.374   6.039 -0.0033 -0.2595 -0.0111
 1016loPI   C3B15927  13.442  15.838   6.139 -0.1708 -0.1124  0.3026
 1016loPI   C4B15928  13.536  16.250   6.238  0.1408  0.0466  0.3075
 1017loPI    C115929   0.637  15.169   4.687  0.0735 -0.1740  0.0799
 1017loPI    C215930   0.576  15.264   4.303 -0.2411 -0.2119  0.1176
 1017loPI    C315931   0.947  15.266   4.453 -0.1593  0.2269 -0.0734
 1017loPI   PO415932   0.477  15.336   4.755 -0.2577 -0.2556 -0.0801
 1017loPI   GL115933   0.242  15.409   5.061  0.0578 -0.1456  0.1471
 1017loPI   GL215934   0.068  15.553   4.916 -0.1323  0.1005  0.1421
 1017loPI   C1A15935   0.279  15.416   5.448 -0.2398  0.0063 -0.0944
 1017loPI   C2A15936   0.097  15.396   5.924  0.2996 -0.2063  0.0121
 1017loPI   C3A15937   0.047  15.731   6.304 -0.1857  0.1308 -0.0167
 1017loPI   C4A15938  -0.183  16.072   6.384  0.0694 -0.0035  0.0232
 1017loPI   C5A15939  -0.273  16.552   6.510  0.0069  0.1466  0.0887
 1017loPI   C6A15940  -0.574  16.858   6.362 -0.2811  0.1557  0.2046
 1017loPI   C1B15941   0.117  15.820   5.271  0.1315 -0.1500 -0.3043
 1017loPI   C2B15942  -0.050  15.804   5.617  0.1877 -0.2529 -0.1318
 1017loPI   C3B15943  -0.351  16.052   5.861  0.2207  0.1313  0.1430
 1017loPI   C4B15944  -0.519  16.361   6.134  0.2790 -0.0039 -0.0627
 1018loPI    C115945  17.618   2.018   4.194  0.0127  0.1773 -0.1247
 1018loPI    C215946  17.434   1.664   4.208 -0.0730  0.2296  0.1335
 1018loPI    C315947  17.590   1.795   3.864 -0.0658 -0.0447  0.0297
 1018loPI   PO415948  17.513   2.069   4.472 -0.0432  0.3622 -0.2099
 1018loPI   GL115949  17.686   1.980   4.939 -0.1612  0.2768 -0.0285
 1018loPI   GL215950  17.437   1.918   4.936 -0.0507 -0.0565  0.0963
 1018loPI   C1A15951  17.832   2.109   5.307  0.0555 -0.2357 -0.0321
 1018loPI   C2A15952  17.877   2.183   5.699 -0.2170 -0.0149 -0.0739
 1018loPI   C3A15953  18.039   2.195   5.971  0.1186  0.0897 -0.1023
 1018loPI   C4A15954  18.462   2.038   6.304 -0.1940  0.3488  0.0150
 1018loPI   C5A15955  18.502   1.703   6.613 -0.0972 -0.0052  0.0279
 1018loPI   C6A15956  18.451   1.649   6.996  0.1679 -0.0815 -0.0429
 1018loPI   C1B15957  17.406   1.937   5.393  0.0342 -0.0224  0.1858
 1018loPI   C2B15958  17.406   1.976   5.756 -0.3730  0.0520 -0.4471
 1018loPI   C3B15959  17.554   2.074   6.182  0.1784 -0.0600  0.1113
 1018loPI   C4B15960  17.738   2.147   6.436 -0.0823 -0.0461 -0.0238
 1019loPI    C115961  19.098  19.288   4.374  0.1657 -0.1433  0.0151
 1019loPI    C215962  19.390  19.551   4.304  0.2299 -0.2001  0.0690
 1019loPI    C315963  19.270  19.304   4.014 -0.0046  0.0587 -0.0595
 1019loPI   PO415964  19.162  19.115   4.592  0.0075  0.2074 -0.0691
 1019loPI   GL115965  19.336  19.126   5.022 -0.2704  0.1166 -0.1549
 1019loPI   GL215966  19.626  19.190   4.847  0.1599 -0.0780  0.0148
 1019loPI   C1A15967  19.504  18.981   5.418 -0.0437  0.2401 -0.0953
 1019loPI   C2A15968  19.816  19.019   5.829  0.0681  0.0481  0.1890
 1019loPI   C3A15969  20.002  19.107   6.310 -0.3564 -0.4969 -0.0036
 1019loPI   C4A15970  20.146  19.001   6.747  0.0004  0.0120 -0.0953
 1019loPI   C5A15971  20.132  19.170   7.298  0.0943 -0.2790  0.1374
 1019loPI   C6A15972  20.424  19.325   7.655  0.0254 -0.2691 -0.1790
 1019loPI   C1B15973  19.856  19.065   5.111 -0.2687  0.0967  0.2326
 1019loPI   C2B15974  20.022  19.319   5.318 -0.1229 -0.1034  0.1131
 1019loPI   C3B15975  20.259  19.191   5.626 -0.4188 -0.1527 -0.2370
 1019loPI   C4B15976  20.359  19.276   5.956 -0.0880 -0.2284 -0.2770
 1020loPI    C115977  10.682   6.080   5.005 -0.1564 -0.0847 -0.0990
 1020loPI    C215978  11.024   6.047   4.800 -0.0547 -0.0059  0.0561
 1020loPI    C315979  10.719   6.256   4.648  0.0384  0.0958  0.0078
 1020loPI   PO415980  10.842   6.215   5.344  0.3769  0.2346  0.1478
 1020loPI   GL115981  10.883   6.190   5.787 -0.1192 -0.0305 -0.1525
 1020loPI   GL215982  11.189   6.220   5.697 -0.1334  0.2428  0.2421
 1020loPI   C1A15983  11.024   6.183   6.178  0.0015  0.0205 -0.0077
 1020loPI   C2A15984  11.128   5.978   6.511  0.2487 -0.2292  0.2184
 1020loPI   C3A15985  10.929   5.609   6.793 -0.0371 -0.1572 -0.2827
 1020loPI   C4A15986  10.968   5.213   7.079  0.0287  0.1528 -0.2439
 1020loPI   C5A15987  11.099   4.835   7.227 -0.1322  0.0775 -0.1499
 1020loPI   C6A15988  10.977   4.406   7.388 -0.0646  0.1983 -0.1263
 1020loPI   C1B15989  11.436   6.107   6.010 -0.1054  0.0254 -0.1354
 1020loPI   C2B15990  11.591   6.125   6.435 -0.0520  0.1114  0.1664
 1020loPI   C3B15991  11.742   6.202   6.744  0.2891  0.4093  0.1484
 1020loPI   C4B15992  11.987   6.521   6.942  0.1628 -0.0676  0.0967
 1021loPI    C115993   7.635   4.223   4.533  0.0391  0.0053  0.0323
 1021loPI    C215994   7.965   4.053   4.681  0.2037  0.3156  0.0305
 1021loPI    C315995   7.909   4.069   4.285  0.1855  0.2624  0.0309
 1021loPI   PO415996   7.455   4.112   4.754 -0.0988  0.2878  0.0587
 1021loPI   GL115997   7.504   4.322   5.257 -0.1395  0.3378  0.1730
 1021loPI   GL215998   7.134   4.565   5.256 -0.2561  0.0553 -0.4261
 1021loPI   C1A15999   7.506   4.333   5.652  0.0323 -0.1082  0.1419
 1021loPI   C2A16000   7.483   4.416   6.014  0.2743  0.0973  0.0998
 1021loPI   C3A16001   7.408   4.259   6.389  0.1412 -0.2298  0.0161
 1021loPI   C4A16002   7.447   4.109   6.825 -0.1831  0.3501 -0.2172
 1021loPI   C5A16003   7.389   4.276   7.245  0.2695  0.1198  0.0374
 1021loPI   C6A16004   7.409   3.881   7.351  0.0502 -0.2047 -0.3202
 1021loPI   C1B16005   6.795   4.566   5.444  0.1297  0.1461 -0.0040
 1021loPI   C2B16006   6.639   4.562   5.888  0.0168 -0.4593  0.0177
 1021loPI   C3B16007   6.621   4.353   6.312 -0.1197  0.1478  0.1820
 1021loPI   C4B16008   6.622   4.481   6.642  0.2156 -0.0186 -0.1357
 1022loPI    C116009   0.441  18.963   4.565  0.0644  0.0708 -0.0405
 1022loPI    C216010   0.358  18.940   4.174 -0.0205  0.2228 -0.0323
 1022loPI    C316011   0.200  19.234   4.395 -0.3218 -0.1095  0.2063
 1022loPI   PO416012   0.696  18.834   4.631 -0.3819  0.1232  0.0614
 1022loPI   GL116013   0.852  18.547   4.963 -0.3883  0.0210  0.0446
 1022loPI   GL216014   0.930  18.873   5.098 -0.1452  0.1162 -0.0455
 1022loPI   C1A16015   0.605  18.200   5.175 -0.1177  0.0765 -0.2364
 1022loPI   C2A16016   0.545  17.747   5.268  0.0514 -0.1298 -0.1635
 1022loPI   C3A16017   0.677  17.506   5.665 -0.3069  0.2006 -0.2199
 1022loPI   C4A16018   0.655  17.578   6.060 -0.2880 -0.1123 -0.1806
 1022loPI   C5A16019   0.828  17.319   6.479 -0.1558 -0.1165 -0.1488
 1022loPI   C6A16020   0.808  17.292   6.947  0.0883  0.1492  0.0860
 1022loPI   C1B16021   0.730  18.758   5.439  0.0845 -0.1146 -0.2365
 1022loPI   C2B16022   0.657  18.675   5.812  0.0760  0.1910 -0.2458
 1022loPI   C3B16023   0.523  18.539   6.180 -0.3884  0.0417 -0.0466
 1022loPI   C4B16024   0.471  18.361   6.650  0.0409  0.1598 -0.3441
 1023loPI    C116025  11.836  13.423   4.694  0.2155  0.2694 -0.2696
 1023loPI    C216026  11.791  13.198   4.366  0.1468  0.1504 -0.1793
 1023loPI    C316027  11.702  13.588   4.355  0.0165  0.1187 -0.2662
 1023loPI   PO416028  11.832  13.193   4.912 -0.0708 -0.0261 -0.0040
 1023loPI   GL116029  11.745  13.074   5.364  0.0041  0.2899 -0.0782
 1023loPI   GL216030  11.432  13.023   5.439 -0.1207  0.0378  0.3617
 1023loPI   C1A16031  11.854  12.995   5.763 -0.2216 -0.2642 -0.2648
 1023loPI   C2A16032  11.566  13.081   6.143 -0.1362  0.4627  0.0343
 1023loPI   C3A16033  11.513  13.193   6.537  0.0202  0.0989  0.1483
 1023loPI   C4A16034  11.534  13.090   6.940 -0.0176 -0.4823 -0.0107
 1023loPI   C5A16035  11.517  13.195   7.407  0.0356 -0.2723  0.2499
 1023loPI   C6A16036  11.519  13.454   7.763  0.1005  0.0203 -0.1655
 1023loPI   C1B16037  11.485  13.395   5.695 -0.0245 -0.3787 -0.0194
 1023loPI   C2B16038  11.189  13.593   5.889  0.2484  0.2668 -0.0549
 1023loPI   C3B16039  11.161  13.431   6.271  0.1993 -0.0206 -0.0592
 1023loPI   C4B16040  11.011  13.310   6.703 -0.0170 -0.1579 -0.0456
 1024loPI    C116041  12.360  16.024   4.352  0.0274  0.1715  0.1980
 1024loPI    C216042  12.743  16.102   4.265  0.0308 -0.0008  0.0519
 1024loPI    C316043  12.601  15.730   4.227 -0.1660  0.0730  0.0502
 1024loPI   PO416044  12.358  16.183   4.599 -0.0643  0.2339 -0.1484
 1024loPI   GL116045  12.465  16.141   5.093  0.3459 -0.1825 -0.0622
 1024loPI   GL216046  12.655  16.231   5.322  0.0340  0.0698 -0.3899
 1024loPI   C1A16047  12.179  16.032   5.494  0.3211 -0.1420  0.0355
 1024loPI   C2A16048  12.161  15.941   5.900 -0.1483  0.0408 -0.2775
 1024loPI   C3A16049  11.904  15.630   6.277  0.2924 -0.1115 -0.3430
 1024loPI   C4A16050  11.979  15.680   6.780  0.0081 -0.0298  0.0520
 1024loPI   C5A16051  12.073  15.592   7.210  0.1280  0.2112 -0.1956
 1024loPI   C6A16052  12.365  15.464   7.539 -0.0459  0.0424 -0.0008
 1024loPI   C1B16053  12.856  16.421   5.621 -0.2975  0.1925  0.2717
 1024loPI   C2B16054  13.289  16.601   5.797 -0.2182  0.1443 -0.0399
 1024loPI   C3B16055  13.385  16.749   6.140 -0.0027 -0.1143 -0.0652
 1024loPI   C4B16056  13.115  17.020   6.387  0.1024 -0.0343  0.2325
 1025loPI    C116057   8.286  14.259   4.882 -0.0392 -0.1310  0.0857
 1025loPI    C216058   8.674  14.165   4.887 -0.0359 -0.1105  0.2910
 1025loPI    C316059   8.472  14.159   4.543  0.1551 -0.0840  0.1769
 1025loPI   PO416060   8.284  14.199   5.216 -0.0394  0.0562  0.1163
 1025loPI   GL116061   8.353  14.460   5.589 -0.1541 -0.2891  0.1757
 1025loPI   GL216062   8.312  14.763   5.622 -0.0768 -0.0083 -0.0028
 1025loPI   C1A16063   8.809  14.706   5.672  0.0881 -0.0631 -0.2602
 1025loPI   C2A16064   9.043  14.704   6.009  0.1174  0.2564 -0.0798
 1025loPI   C3A16065   9.179  14.767   6.572  0.1779  0.2331  0.2280
 1025loPI   C4A16066   8.923  14.625   6.894 -0.0067  0.2019 -0.0075
 1025loPI   C5A16067   8.554  14.294   7.057 -0.1668 -0.2865 -0.0339
 1025loPI   C6A16068   8.238  14.346   6.970  0.4854  0.0195 -0.0990
 1025loPI   C1B16069   8.158  15.056   5.695  0.2555  0.2663 -0.2696
 1025loPI   C2B16070   7.975  15.380   5.960  0.1234 -0.0986 -0.2270
 1025loPI   C3B16071   7.741  15.231   6.247  0.0380 -0.2926 -0.1654
 1025loPI   C4B16072   7.576  14.881   6.508  0.0812  0.0726  0.2235
 1026loPI    C116073   1.123   1.339   4.553  0.1596 -0.0669  0.0196
 1026loPI    C216074   1.125   1.727   4.455 -0.1803 -0.0592  0.0315
 1026loPI    C316075   1.245   1.453   4.190 -0.0043  0.0477 -0.0007
 1026loPI   PO416076   1.258   1.460   4.867 -0.3262 -0.1402  0.2974
 1026loPI   GL116077   1.338   1.207   5.304  0.4839 -0.2783 -0.1151
 1026loPI   GL216078   1.075   1.045   5.349  0.0156 -0.1666  0.0746
 1026loPI   C1A16079   0.946   1.523   5.428  0.1722 -0.0581  0.1158
 1026loPI   C2A16080   0.676   1.597   5.737  0.0199  0.0619 -0.0634
 1026loPI   C3A16081   0.477   1.506   6.206 -0.2752  0.0015 -0.2115
 1026loPI   C4A16082   0.818   1.650   6.631 -0.1108  0.0964  0.0269
 1026loPI   C5A16083   1.085   1.582   7.000 -0.0751  0.2388 -0.0513
 1026loPI   C6A16084   1.315   1.488   7.321 -0.3660 -0.0130 -0.1303
 1026loPI   C1B16085   1.065   1.160   5.742  0.0245 -0.0894 -0.0553
 1026loPI   C2B16086   0.921   1.051   6.082  0.1554  0.2813  0.1371
 1026loPI   C3B16087   0.965   1.174   6.538  0.2146 -0.4903 -0.1288
 1026loPI   C4B16088   1.007   1.089   6.942 -0.1650 -0.1813 -0.1468
 1027loPI    C116089  15.882   0.370   4.214 -0.1149 -0.0146  0.0294
 1027loPI    C216090  16.036   0.073   3.995 -0.2304 -0.1174  0.0861
 1027loPI    C316091  15.743   0.301   3.845 -0.1439 -0.0333  0.0438
 1027loPI   PO416092  15.982   0.302   4.459 -0.0008 -0.0006 -0.2290
 1027loPI   GL116093  16.163   0.219   4.870  0.2821  0.1095 -0.0285
 1027loPI   GL216094  15.878   0.330   4.976 -0.1320 -0.0029  0.1273
 1027loPI   C1A16095  16.194  -0.067   5.286 -0.0161  0.0289 -0.0013
 1027loPI   C2A16096  16.508  -0.308   5.395  0.2097 -0.3690  0.0241
 1027loPI   C3A16097  16.416  -0.281   5.798 -0.3106 -0.1407 -0.2138
 1027loPI   C4A16098  16.431  -0.215   6.178  0.1943 -0.0344 -0.3894
 1027loPI   C5A16099  16.488  -0.020   6.675  0.2578  0.3234  0.0454
 1027loPI   C6A16100  16.685  -0.186   7.036  0.0043  0.1481  0.0658
 1027loPI   C1B16101  15.754   0.074   5.289  0.0355  0.0496  0.0112
 1027loPI   C2B16102  15.579   0.176   5.667  0.1532  0.0638  0.0227
 1027loPI   C3B16103  15.482   0.138   6.164 -0.0937 -0.1450  0.3019
 1027loPI   C4B16104  15.210   0.382   6.591  0.0721  0.1479 -0.0899
 1028loPI    C116105   5.862  15.575   4.951 -0.1575  0.0283 -0.2785
 1028loPI    C216106   6.175  15.483   5.183 -0.2389  0.4263  0.0011
 1028loPI    C316107   6.228  15.552   4.792 -0.0754 -0.0915 -0.0763
 1028loPI   PO416108   5.629  15.413   5.013 -0.2071  0.0213  0.1227
 1028loPI   GL116109   5.521  15.270   5.435  0.0970 -0.3252  0.0127
 1028loPI   GL216110   5.351  15.018   5.618  0.0989 -0.0127 -0.3822
 1028loPI   C1A16111   5.464  15.556   5.803  0.0863 -0.0530  0.2726
 1028loPI   C2A16112   5.649  15.787   6.114 -0.3461  0.0845 -0.0466
 1028loPI   C3A16113   5.773  16.004   6.468 -0.1324 -0.0965 -0.1433
 1028loPI   C4A16114   5.782  16.024   6.894  0.2262  0.2839 -0.2466
 1028loPI   C5A16115   5.430  15.882   7.172 -0.0053  0.0001  0.1385
 1028loPI   C6A16116   5.212  15.585   7.548 -0.0440 -0.2199  0.2483
 1028loPI   C1B16117   5.620  15.120   5.962  0.1511 -0.0599 -0.0378
 1028loPI   C2B16118   5.662  15.371   6.356  0.0938 -0.2571 -0.0715
 1028loPI   C3B16119   5.564  15.625   6.678 -0.0777  0.0475 -0.0031
 1028loPI   C4B16120   5.137  15.647   6.875  0.1036 -0.0736  0.0360
 1029loPI    C116121   6.740   5.349   4.497 -0.1080 -0.0932 -0.1523
 1029loPI    C216122   6.505   5.643   4.632  0.0316  0.0160 -0.1454
 1029loPI    C316123   6.575   5.607   4.240 -0.1419 -0.1268 -0.1644
 1029loPI   PO416124   6.928   5.332   4.646  0.1258 -0.1307  0.2409
 1029loPI   GL116125   6.870   5.488   5.144 -0.0514 -0.3596  0.0368
 1029loPI   GL216126   6.745   5.240   5.379 -0.1106 -0.1621  0.0972
 1029loPI   C1A16127   7.024   5.596   5.574  0.3346  0.0142  0.3063
 1029loPI   C2A16128   7.343   5.337   5.843  0.0296 -0.1116 -0.0018
 1029loPI   C3A16129   7.704   5.327   6.130 -0.0342  0.1425  0.1439
 1029loPI   C4A16130   7.902   5.224   6.506  0.0835 -0.0625  0.0561
 1029loPI   C5A16131   8.130   5.028   6.741  0.1346  0.0311 -0.1547
 1029loPI   C6A16132   8.511   5.047   7.008  0.4874 -0.1802  0.3310
 1029loPI   C1B16133   6.708   5.256   5.761 -0.1405 -0.1080 -0.4225
 1029loPI   C2B16134   7.012   5.167   6.203 -0.2163 -0.1400 -0.1705
 1029loPI   C3B16135   7.343   5.223   6.465  0.0993  0.2520  0.2266
 1029loPI   C4B16136   7.550   5.074   6.869 -0.1106  0.1755  0.1343
 1030loPI    C116137   3.004  10.213   4.858  0.1689 -0.0855 -0.1248
 1030loPI    C216138   2.778   9.884   4.839 -0.1100  0.0953 -0.0153
 1030loPI    C316139   2.858  10.091   4.506  0.0630 -0.0779 -0.0839
 1030loPI   PO416140   3.020  10.180   5.180 -0.3919 -0.3552 -0.2388
 1030loPI   GL116141   2.874  10.248   5.673 -0.0742  0.1945  0.2782
 1030loPI   GL216142   2.717  10.534   5.580  0.1418  0.0169  0.0385
 1030loPI   C1A16143   2.761  10.081   6.097 -0.0327 -0.5207  0.2941
 1030loPI   C2A16144   2.459  10.308   6.442  0.1951 -0.3210  0.0649
 1030loPI   C3A16145   2.327  10.102   6.826 -0.1672  0.0381  0.0593
 1030loPI   C4A16146   2.094   9.904   7.076  0.2447 -0.1520  0.0100
 1030loPI   C5A16147   2.005   9.438   7.071 -0.0771  0.4708  0.1240
 1030loPI   C6A16148   1.701   9.166   6.758  0.4136 -0.1061 -0.1585
 1030loPI   C1B16149   2.418  10.430   5.972  0.0775  0.2131  0.0384
 1030loPI   C2B16150   2.113  10.172   6.060 -0.1438  0.1252 -0.0304
 1030loPI   C3B16151   1.994   9.947   6.490 -0.0222 -0.0174 -0.0922
 1030loPI   C4B16152   2.041   9.560   6.608  0.0447  0.0476  0.2852
 1031loPI    C116153   1.127   3.828   4.195  0.1108 -0.1857 -0.2589
 1031loPI    C216154   1.059   3.434   4.194  0.1572 -0.1944 -0.1499
 1031loPI    C316155   1.192   3.615   3.863 -0.2357 -0.2044 -0.3186
 1031loPI   PO416156   1.163   3.827   4.484 -0.0433 -0.4057 -0.0160
 1031loPI   GL116157   1.305   3.960   4.900  0.2639 -0.0287  0.0883
 1031loPI   GL216158   1.233   3.653   4.925 -0.0823 -0.0887  0.0917
 1031loPI   C1A16159   1.194   4.062   5.276 -0.0472 -0.1894 -0.1289
 1031loPI   C2A16160   1.169   4.155   5.605  0.3928 -0.0527 -0.3028
 1031loPI   C3A16161   1.055   4.295   6.096 -0.1054  0.0780  0.0545
 1031loPI   C4A16162   1.302   4.358   6.479  0.0325  0.4266 -0.2082
 1031loPI   C5A16163   1.602   4.338   6.734 -0.0885  0.1236 -0.1305
 1031loPI   C6A16164   1.777   4.629   7.015  0.3536 -0.0071 -0.0998
 1031loPI   C1B16165   1.540   3.651   5.176 -0.4426  0.0325 -0.5203
 1031loPI   C2B16166   1.605   3.905   5.501  0.0466  0.1871  0.0546
 1031loPI   C3B16167   1.909   3.976   5.739 -0.0663 -0.1669 -0.1087
 1031loPI   C4B16168   2.092   4.216   5.985  0.1099 -0.1588 -0.0473
 1032loPI    C116169  14.554  16.892   3.755  0.1294  0.0713  0.0666
 1032loPI    C216170  14.516  16.509   3.647  0.3571  0.1027 -0.1361
 1032loPI    C316171  14.520  16.795   3.368  0.0394  0.2690  0.0235
 1032loPI   PO416172  14.398  16.834   4.002 -0.1259  0.0062  0.1605
 1032loPI   GL116173  14.239  16.705   4.366 -0.1012 -0.3548 -0.2062
 1032loPI   GL216174  13.949  16.949   4.535  0.5108  0.2052 -0.2251
 1032loPI   C1A16175  14.314  16.716   4.870  0.3715  0.4931  0.0852
 1032loPI   C2A16176  14.122  16.619   5.231  0.1980  0.3435 -0.1372
 1032loPI   C3A16177  14.298  16.643   5.582  0.1054 -0.3316 -0.1998
 1032loPI   C4A16178  14.433  16.951   6.003  0.1556 -0.2750 -0.3185
 1032loPI   C5A16179  14.141  17.078   6.267 -0.0345 -0.1232  0.0898
 1032loPI   C6A16180  13.631  17.153   6.321  0.1904  0.1333  0.1772
 1032loPI   C1B16181  13.967  17.311   4.886  0.2009 -0.3131  0.0412
 1032loPI   C2B16182  13.659  17.441   5.190 -0.4658 -0.2820  0.0502
 1032loPI   C3B16183  13.732  17.440   5.594 -0.1103  0.0628 -0.0330
 1032loPI   C4B16184  13.805  17.128   5.846 -0.0927 -0.0408 -0.0135
 1033loPI    C116185  12.626  11.357   4.567 -0.1789  0.0227  0.1802
 1033loPI    C216186  12.518  11.533   4.225 -0.1096  0.0297  0.1617
 1033loPI    C316187  12.905  11.480   4.309 -0.1294 -0.0929  0.1778
 1033loPI   PO416188  12.406  11.389   4.713 -0.1753 -0.1176 -0.0935
 1033loPI   GL116189  12.589  11.677   5.053 -0.2257 -0.0123 -0.2157
 1033loPI   GL216190  12.227  11.574   5.134 -0.0528  0.0985  0.2496
 1033loPI   C1A16191  12.826  12.065   5.345 -0.2524 -0.0078 -0.1660
 1033loPI   C2A16192  12.992  12.268   5.656 -0.1977  0.0465  0.0911
 1033loPI   C3A16193  13.001  12.348   6.062  0.1686 -0.3038 -0.1176
 1033loPI   C4A16194  12.861  12.320   6.574 -0.5724 -0.0989  0.0378
 1033loPI   C5A16195  12.774  12.441   7.007  0.1099 -0.2251  0.0216
 1033loPI   C6A16196  12.732  12.313   7.450 -0.3870  0.0347 -0.1448
 1033loPI   C1B16197  12.427  11.559   5.560  0.3175  0.1370  0.0412
 1033loPI   C2B16198  12.604  11.391   5.979 -0.1731  0.1543  0.6952
 1033loPI   C3B16199  12.899  11.423   6.335 -0.0990 -0.2179  0.0296
 1033loPI   C4B16200  13.328  11.387   6.406  0.2019  0.2870 -0.1159
 1034loPI    C116201   4.183   8.764   4.865 -0.1697  0.1148 -0.0146
 1034loPI    C216202   4.498   8.762   4.618 -0.0304 -0.0789  0.1617
 1034loPI    C316203   4.229   9.057   4.595  0.3097  0.2418  0.1940
 1034loPI   PO416204   4.290   8.745   5.091  0.1303  0.1821  0.2437
 1034loPI   GL116205   4.147   8.713   5.519 -0.1942 -0.1022  0.1257
 1034loPI   GL216206   4.480   8.862   5.550  0.1689 -0.1100  0.1430
 1034loPI   C1A16207   4.116   8.536   5.922  0.0855  0.0774  0.3172
 1034loPI   C2A16208   4.386   8.429   6.273  0.1750 -0.0435 -0.2804
 1034loPI   C3A16209   4.334   8.515   6.765 -0.0714  0.0679 -0.0336
 1034loPI   C4A16210   4.412   8.633   7.112 -0.0714  0.0947 -0.4607
 1034loPI   C5A16211   4.123   8.407   7.409  0.2736 -0.1775  0.2561
 1034loPI   C6A16212   3.693   8.409   7.400  0.0793 -0.0524 -0.1407
 1034loPI   C1B16213   4.475   8.903   6.094  0.1917 -0.4285 -0.2618
 1034loPI   C2B16214   4.507   8.965   6.497  0.1957 -0.0014 -0.0434
 1034loPI   C3B16215   4.304   9.113   6.937  0.1880 -0.0900 -0.2487
 1034loPI   C4B16216   4.369   9.326   7.300 -0.1322 -0.1301 -0.3952
 1035loPI    C116217  19.144   4.503   4.336 -0.2709  0.1324 -0.0532
 1035loPI    C216218  19.425   4.746   4.189 -0.1883 -0.0295 -0.1650
 1035loPI    C316219  19.300   4.432   3.975 -0.2996 -0.0818 -0.0245
 1035loPI   PO416220  19.227   4.466   4.603 -0.1582  0.2044  0.0568
 1035loPI   GL116221  19.616   4.287   4.843  0.0319  0.0953  0.0200
 1035loPI   GL216222  19.845   4.283   4.999 -0.4312  0.0012 -0.0732
 1035loPI   C1A16223  19.572   4.649   5.176  0.0137  0.0347  0.0129
 1035loPI   C2A16224  19.229   4.798   5.492  0.0286 -0.0963 -0.2085
 1035loPI   C3A16225  19.022   4.726   5.892  0.2462 -0.1550  0.0954
 1035loPI   C4A16226  18.922   4.866   6.334  0.4256 -0.1844  0.2089
 1035loPI   C5A16227  18.925   4.830   6.782 -0.0206  0.1811 -0.1540
 1035loPI   C6A16228  19.044   4.921   7.292 -0.0083  0.2797  0.1498
 1035loPI   C1B16229  19.828   4.221   5.437  0.0758 -0.2736 -0.2272
 1035loPI   C2B16230  19.666   4.114   5.875 -0.2795  0.1244 -0.1528
 1035loPI   C3B16231  19.532   4.269   6.208  0.2113 -0.1001 -0.0108
 1035loPI   C4B16232  19.279   4.459   6.526  0.1959 -0.0507 -0.0624
 1036loPI    C116233  11.812   7.142   4.696 -0.2175  0.1213  0.1948
 1036loPI    C216234  11.465   7.029   4.534  0.0223 -0.0599 -0.2077
 1036loPI    C316235  11.672   6.774   4.762 -0.1837  0.1049  0.1748
 1036loPI   PO416236  11.752   7.315   4.965 -0.3522  0.1535 -0.0922
 1036loPI   GL116237  11.678   7.215   5.421 -0.0276  0.4658 -0.1669
 1036loPI   GL216238  11.365   7.045   5.584  0.1565 -0.1631 -0.0536
 1036loPI   C1A16239  11.833   7.040   5.791  0.2388  0.1649 -0.0503
 1036loPI   C2A16240  11.919   7.001   6.149 -0.4302  0.2482  0.0507
 1036loPI   C3A16241  12.163   7.049   6.458 -0.1592 -0.0123 -0.1743
 1036loPI   C4A16242  12.395   7.165   6.809  0.1315 -0.3335 -0.0327
 1036loPI   C5A16243  12.773   7.133   7.100 -0.2029  0.2199  0.5471
 1036loPI   C6A16244  13.043   6.862   7.370  0.1807 -0.0445 -0.0393
 1036loPI   C1B16245  11.335   7.132   5.992  0.0826  0.2237 -0.0677
 1036loPI   C2B16246  11.398   7.076   6.407 -0.0301 -0.0976  0.1757
 1036loPI   C3B16247  11.317   6.918   6.798 -0.0192 -0.0788  0.0334
 1036loPI   C4B16248  11.485   6.691   7.241 -0.2544 -0.1020  0.1150
 1037loPI    C116249   3.252  11.196   4.994 -0.0494 -0.1798  0.0054
 1037loPI    C216250   3.417  11.180   4.630  0.1128 -0.1697  0.0777
 1037loPI    C316251   3.363  11.533   4.810 -0.2713 -0.1472 -0.0721
 1037loPI   PO416252   3.396  11.042   5.118 -0.1362  0.0913 -0.1661
 1037loPI   GL116253   3.383  10.814   5.621 -0.0877  0.0583  0.2447
 1037loPI   GL216254   3.154  10.714   5.800 -0.0844  0.0816 -0.0622
 1037loPI   C1A16255   3.471  11.151   5.916 -0.0156 -0.2522 -0.0730
 1037loPI   C2A16256   3.584  11.238   6.327  0.0505 -0.2026  0.3722
 1037loPI   C3A16257   3.561  11.320   6.708  0.4157 -0.1047 -0.0945
 1037loPI   C4A16258   3.286  11.161   6.977  0.2395 -0.1105 -0.1248
 1037loPI   C5A16259   2.873  10.996   7.013  0.0117  0.2255 -0.0971
 1037loPI   C6A16260   2.744  10.593   6.815 -0.0716 -0.0044  0.2360
 1037loPI   C1B16261   3.431  10.736   6.172 -0.0373 -0.2663 -0.0191
 1037loPI   C2B16262   3.334  10.700   6.585 -0.0042  0.2168 -0.1778
 1037loPI   C3B16263   3.162  10.575   6.983  0.0385 -0.4062 -0.1495
 1037loPI   C4B16264   2.868  10.580   7.323  0.1209 -0.2566  0.0272
 1038loPI    C116265   0.983   8.852   4.946  0.2146 -0.2608 -0.1509
 1038loPI    C216266   1.211   8.924   4.626  0.0462  0.2166 -0.1710
 1038loPI    C316267   1.232   9.164   4.945 -0.2287  0.1038 -0.0651
 1038loPI   PO416268   0.666   8.880   4.912 -0.0858 -0.0652 -0.1140
 1038loPI   GL116269   0.568   9.062   5.357  0.3617  0.0183  0.4813
 1038loPI   GL216270   0.815   9.003   5.468 -0.1809 -0.0833 -0.2689
 1038loPI   C1A16271   0.258   8.870   5.725  0.0081 -0.1914  0.1581
 1038loPI   C2A16272   0.147   8.467   5.855 -0.0998  0.1510  0.0754
 1038loPI   C3A16273   0.066   8.404   6.201  0.1285  0.1793 -0.2423
 1038loPI   C4A16274   0.015   8.566   6.609  0.1358  0.4760  0.0623
 1038loPI   C5A16275  -0.078   8.305   6.973 -0.0449 -0.0588  0.1795
 1038loPI   C6A16276   0.053   8.438   7.380  0.2174 -0.1155  0.0799
 1038loPI   C1B16277   0.678   8.951   5.915  0.0167  0.3590  0.1717
 1038loPI   C2B16278   0.663   9.075   6.401  0.0770 -0.1824  0.0926
 1038loPI   C3B16279   0.865   9.042   6.704 -0.3300  0.1433  0.1232
 1038loPI   C4B16280   1.253   8.963   6.802  0.2397 -0.2902  0.1737
 1039loPI    C116281   8.857  19.430   4.696 -0.3310  0.1045  0.4175
 1039loPI    C216282   9.039  19.582   5.018  0.2994 -0.0866  0.1678
 1039loPI    C316283   8.845  19.823   4.765  0.3199  0.1441  0.3686
 1039loPI   PO416284   8.725  19.266   4.711  0.1809 -0.2904  0.1491
 1039loPI   GL116285   8.755  18.984   4.940  0.1836 -0.0192 -0.0069
 1039loPI   GL216286   8.708  18.724   4.842  0.0724  0.1406  0.2080
 1039loPI   C1A16287   8.634  19.129   5.305  0.1467 -0.3590 -0.1801
 1039loPI   C2A16288   8.567  19.271   5.747 -0.2874 -0.1436 -0.4464
 1039loPI   C3A16289   8.610  19.197   6.171 -0.0159  0.1932  0.0370
 1039loPI   C4A16290   8.307  19.342   6.426 -0.0818  0.1529 -0.1705
 1039loPI   C5A16291   8.200  19.651   6.788  0.0446  0.2685 -0.0173
 1039loPI   C6A16292   8.008  20.031   7.078 -0.1735  0.4208  0.2200
 1039loPI   C1B16293   8.761  18.637   5.299 -0.0906 -0.2414 -0.0043
 1039loPI   C2B16294   8.903  18.820   5.732  0.0062  0.5443  0.0187
 1039loPI   C3B16295   8.974  18.654   6.125  0.2275  0.0744 -0.0153
 1039loPI   C4B16296   8.952  18.850   6.612 -0.0863 -0.3300  0.2738
 1040loPI    C116297  17.158   5.748   4.871  0.1147 -0.1226  0.1614
 1040loPI    C216298  17.521   5.733   4.703  0.0275  0.0414 -0.0462
 1040loPI    C316299  17.237   5.474   4.591  0.0971 -0.1277  0.1615
 1040loPI   PO416300  17.248   5.923   5.111 -0.0875 -0.0145  0.1836
 1040loPI   GL116301  17.094   5.792   5.433 -0.1997 -0.2431 -0.1078
 1040loPI   GL216302  17.426   5.672   5.497 -0.0199 -0.0936  0.2749
 1040loPI   C1A16303  16.981   5.962   5.855 -0.2976  0.0245 -0.0368
 1040loPI   C2A16304  16.975   5.802   6.263 -0.5221  0.2064 -0.0540
 1040loPI   C3A16305  17.262   5.754   6.516 -0.1516  0.0935 -0.1235
 1040loPI   C4A16306  17.324   5.527   6.984 -0.0492  0.3028 -0.1765
 1040loPI   C5A16307  17.307   5.391   7.327  0.1138  0.2274  0.0656
 1040loPI   C6A16308  17.129   5.375   7.678 -0.1706  0.3696 -0.0025
 1040loPI   C1B16309  17.413   5.801   5.998  0.0964  0.0696 -0.2121
 1040loPI   C2B16310  17.731   6.009   6.259 -0.0777 -0.3750  0.1777
 1040loPI   C3B16311  17.987   6.197   5.925 -0.2301  0.2049 -0.0509
 1040loPI   C4B16312  18.186   6.437   5.559  0.0713 -0.2289 -0.1397
 1041loPI    C116313  17.603   7.281   4.879 -0.0139 -0.1687 -0.1215
 1041loPI    C216314  17.263   7.433   4.731 -0.0696 -0.0902  0.0835
 1041loPI    C316315  17.616   7.562   4.594 -0.1202 -0.0134  0.0246
 1041loPI   PO416316  17.552   7.308   5.157 -0.2653 -0.5460  0.1622
 1041loPI   GL116317  17.549   6.994   5.411  0.0323  0.3457 -0.0037
 1041loPI   GL216318  17.812   6.782   5.583  0.0294 -0.3239 -0.1009
 1041loPI   C1A16319  17.380   6.841   5.854 -0.3233  0.0447  0.1801
 1041loPI   C2A16320  17.575   6.696   6.264  0.1341 -0.1375 -0.0208
 1041loPI   C3A16321  17.517   6.353   6.538  0.0144  0.2002  0.1475
 1041loPI   C4A16322  17.194   6.196   6.793 -0.0571 -0.4397  0.2958
 1041loPI   C5A16323  16.840   6.378   7.056 -0.1521  0.1161  0.0009
 1041loPI   C6A16324  16.444   6.234   7.343  0.3589 -0.1632 -0.1668
 1041loPI   C1B16325  18.051   6.838   5.999  0.1431  0.2860  0.2593
 1041loPI   C2B16326  18.045   6.588   6.334  0.0568  0.2389  0.5545
 1041loPI   C3B16327  18.062   6.157   6.613  0.1732 -0.1953  0.0076
 1041loPI   C4B16328  17.903   6.182   7.058  0.0857 -0.0995 -0.0817
 1042loPI    C116329   8.391   4.888   4.417  0.0726  0.4823 -0.1076
 1042loPI    C216330   8.725   4.820   4.627 -0.0070 -0.0466 -0.1397
 1042loPI    C316331   8.673   4.645   4.271 -0.2925  0.0806 -0.1633
 1042loPI   PO416332   8.274   5.068   4.682  0.1164 -0.0737  0.3129
 1042loPI   GL116333   8.091   5.015   5.106 -0.2585 -0.1163 -0.2802
 1042loPI   GL216334   7.767   4.957   5.245 -0.0443  0.0263 -0.1134
 1042loPI   C1A16335   8.255   5.113   5.454 -0.0169  0.2655  0.3104
 1042loPI   C2A16336   8.524   4.796   5.669  0.2249  0.1037  0.0592
 1042loPI   C3A16337   8.585   4.572   6.034  0.0724  0.0706  0.1221
 1042loPI   C4A16338   8.541   4.324   6.447 -0.0586 -0.2590  0.3003
 1042loPI   C5A16339   8.478   4.184   6.907  0.3128  0.1194 -0.0004
 1042loPI   C6A16340   8.443   4.342   7.347  0.0797 -0.1595  0.2857
 1042loPI   C1B16341   7.558   4.812   5.528  0.2871  0.1914 -0.0710
 1042loPI   C2B16342   7.588   4.887   5.937  0.2876 -0.0985  0.1798
 1042loPI   C3B16343   7.610   4.863   6.391  0.3336 -0.0388  0.3676
 1042loPI   C4B16344   7.638   4.546   6.725 -0.1336  0.0102  0.0700
 1043loPI    C116345  13.839   7.086   4.556 -0.0455  0.0484 -0.0246
 1043loPI    C216346  13.977   6.922   4.218 -0.0641 -0.0274  0.0044
 1043loPI    C316347  13.680   7.189   4.204 -0.0295  0.0086 -0.0435
 1043loPI   PO416348  13.755   6.848   4.741 -0.1700  0.0785 -0.1644
 1043loPI   GL116349  13.837   6.524   5.002  0.0149  0.1511  0.1600
 1043loPI   GL216350  14.038   6.419   5.063 -0.0128  0.0304 -0.0423
 1043loPI   C1A16351  13.995   6.800   5.396  0.2494  0.2169 -0.1400
 1043loPI   C2A16352  14.119   6.834   5.721  0.0476 -0.0318 -0.1313
 1043loPI   C3A16353  14.156   6.924   6.197 -0.0029  0.1268  0.2040
 1043loPI   C4A16354  13.938   7.173   6.579 -0.0040 -0.1480  0.3700
 1043loPI   C5A16355  13.582   7.322   6.833 -0.1416 -0.0233 -0.0311
 1043loPI   C6A16356  13.253   7.143   6.979  0.2075 -0.0326  0.3472
 1043loPI   C1B16357  14.083   6.320   5.510 -0.1938 -0.4233 -0.0246
 1043loPI   C2B16358  14.198   6.237   5.985 -0.1704 -0.2870  0.1672
 1043loPI   C3B16359  14.307   6.469   6.307 -0.1948  0.0463  0.0875
 1043loPI   C4B16360  14.266   6.766   6.651 -0.1200  0.1474  0.0597
 1044loPI    C116361   9.960   1.303   4.504 -0.1716 -0.1097  0.1791
 1044loPI    C216362   9.612   1.456   4.379  0.0545  0.0541 -0.2711
 1044loPI    C316363   9.713   1.081   4.281  0.1366  0.1098 -0.4028
 1044loPI   PO416364   9.907   1.388   4.799 -0.0429 -0.1344 -0.0444
 1044loPI   GL116365   9.896   1.469   5.257  0.0992 -0.4111 -0.1637
 1044loPI   GL216366   9.715   1.209   5.271 -0.0768 -0.1114 -0.0970
 1044loPI   C1A16367  10.008   1.752   5.668  0.1662 -0.1781  0.1930
 1044loPI   C2A16368   9.961   2.062   6.022  0.3284  0.2938  0.1622
 1044loPI   C3A16369   9.977   2.257   6.378 -0.2782 -0.0395 -0.3178
 1044loPI   C4A16370   9.905   2.246   6.710 -0.1733 -0.2624  0.1740
 1044loPI   C5A16371   9.859   1.932   7.093  0.1148 -0.1264 -0.1703
 1044loPI   C6A16372   9.972   1.926   7.497 -0.0771  0.0476  0.1245
 1044loPI   C1B16373   9.590   1.419   5.618  0.0000 -0.0253 -0.1547
 1044loPI   C2B16374   9.493   1.256   6.048 -0.0631  0.0753  0.0544
 1044loPI   C3B16375   9.546   1.489   6.460 -0.3181 -0.1744 -0.3265
 1044loPI   C4B16376   9.438   1.527   6.900  0.2124 -0.2494  0.0212
 1045loPI    C116377   3.276   0.007   4.505  0.0095 -0.1402  0.2013
 1045loPI    C216378   3.086  -0.259   4.275  0.0530 -0.1654  0.1942
 1045loPI    C316379   2.960   0.121   4.288  0.2065 -0.1030 -0.0710
 1045loPI   PO416380   3.327  -0.006   4.758 -0.1273 -0.2015 -0.1522
 1045loPI   GL116381   3.081  -0.085   5.173  0.2746 -0.0016 -0.4033
 1045loPI   GL216382   3.067   0.157   5.404 -0.1951 -0.0099  0.1638
 1045loPI   C1A16383   3.170  -0.246   5.637  0.0667  0.3123  0.0302
 1045loPI   C2A16384   3.253  -0.389   6.095  0.3568 -0.1532  0.0495
 1045loPI   C3A16385   3.362  -0.807   6.337  0.2070  0.2908  0.2232
 1045loPI   C4A16386   3.551  -0.845   6.688  0.0814 -0.2370  0.1469
 1045loPI   C5A16387   3.874  -0.909   7.015  0.1877 -0.1565  0.2044
 1045loPI   C6A16388   4.242  -1.047   7.274 -0.0711 -0.0176  0.3979
 1045loPI   C1B16389   3.154   0.263   5.839 -0.2001  0.1697  0.0013
 1045loPI   C2B16390   3.068   0.293   6.270 -0.0643 -0.2208 -0.1780
 1045loPI   C3B16391   3.013   0.258   6.701  0.0257  0.1497  0.0336
 1045loPI   C4B16392   3.066   0.147   7.158 -0.2106 -0.2170 -0.0187
 1046loPI    C116393   6.907   1.987   4.886  0.3246  0.0903 -0.1985
 1046loPI    C216394   6.816   1.671   4.658 -0.0861  0.0925 -0.0460
 1046loPI    C316395   7.022   1.977   4.503  0.0973 -0.1367 -0.2639
 1046loPI   PO416396   6.751   1.902   5.201  0.0623 -0.1995 -0.1491
 1046loPI   GL116397   6.760   1.930   5.643  0.0867  0.0964 -0.1358
 1046loPI   GL216398   6.917   1.647   5.576 -0.3175  0.1522  0.1749
 1046loPI   C1A16399   6.839   2.241   5.830  0.1836 -0.0447  0.1207
 1046loPI   C2A16400   6.900   2.346   6.277  0.0313  0.1774 -0.1431
 1046loPI   C3A16401   6.951   2.200   6.660 -0.0483  0.1277  0.2240
 1046loPI   C4A16402   7.029   2.192   7.073  0.0237  0.0637 -0.1921
 1046loPI   C5A16403   6.974   2.524   7.437 -0.0834 -0.0038 -0.1162
 1046loPI   C6A16404   7.087   2.869   7.540  0.1608  0.2087 -0.1153
 1046loPI   C1B16405   6.913   1.311   5.760  0.1936  0.0755  0.2962
 1046loPI   C2B16406   6.936   0.981   6.014  0.1345  0.0171  0.1896
 1046loPI   C3B16407   6.637   0.937   6.413 -0.0172  0.5104 -0.1886
 1046loPI   C4B16408   6.616   0.816   6.846 -0.2934 -0.1054  0.4053
 1047loPI    C116409  19.015  18.753   4.248  0.0318 -0.1178  0.1126
 1047loPI    C216410  19.386  18.869   4.155  0.0334 -0.1956  0.0197
 1047loPI    C316411  19.098  18.882   3.878 -0.0728  0.0244  0.1381
 1047loPI   PO416412  19.078  18.608   4.457  0.1456 -0.2172  0.1525
 1047loPI   GL116413  19.113  18.416   4.903  0.2184 -0.1711  0.0437
 1047loPI   GL216414  18.991  18.733   4.998  0.0632 -0.4428  0.0460
 1047loPI   C1A16415  19.271  18.553   5.329 -0.2088 -0.1334 -0.0298
 1047loPI   C2A16416  19.136  18.667   5.785  0.0781 -0.0838  0.1310
 1047loPI   C3A16417  19.005  18.808   6.225  0.0268 -0.0140 -0.3381
 1047loPI   C4A16418  19.209  18.628   6.575  0.0984 -0.1748  0.2079
 1047loPI   C5A16419  19.278  18.766   6.980 -0.0347 -0.2234  0.1458
 1047loPI   C6A16420  19.355  18.781   7.374  0.2500  0.1801 -0.1313
 1047loPI   C1B16421  18.805  18.974   5.394 -0.0294  0.0242 -0.3250
 1047loPI   C2B16422  19.049  19.149   5.665  0.0749  0.0768  0.0068
 1047loPI   C3B16423  19.365  19.131   5.965  0.0256  0.1085 -0.0173
 1047loPI   C4B16424  19.527  19.234   6.331  0.2554  0.1967 -0.0319
 1048loPI    C116425   9.882   8.349   4.456  0.0979 -0.1108 -0.0817
 1048loPI    C216426   9.605   8.548   4.247  0.1451  0.1159  0.0680
 1048loPI    C316427   9.596   8.149   4.261 -0.0964  0.1157 -0.0346
 1048loPI   PO416428   9.763   8.436   4.738 -0.2075  0.2796 -0.0894
 1048loPI   GL116429   9.845   8.544   5.059 -0.0382 -0.1728  0.0575
 1048loPI   GL216430  10.225   8.415   5.111  0.0146 -0.1198  0.0367
 1048loPI   C1A16431   9.753   8.792   5.452 -0.1904 -0.0232 -0.1435
 1048loPI   C2A16432   9.738   8.757   5.898 -0.0651  0.1086 -0.1754
 1048loPI   C3A16433   9.797   8.957   6.358  0.2233  0.3418  0.0881
 1048loPI   C4A16434   9.965   8.918   6.731  0.0346  0.2483  0.3061
 1048loPI   C5A16435   9.940   8.907   7.103 -0.2185 -0.2710  0.0004
 1048loPI   C6A16436   9.951   8.637   7.434  0.3263  0.1020  0.1774
 1048loPI   C1B16437  10.254   8.731   5.374  0.0824  0.0072 -0.1105
 1048loPI   C2B16438  10.577   8.955   5.589 -0.1316  0.0827  0.0077
 1048loPI   C3B16439  10.696   8.868   5.930  0.0437 -0.0026  0.1954
 1048loPI   C4B16440  10.887   8.714   6.313  0.1153 -0.1854 -0.0911
 1049loPI    C116441  11.224   9.876   4.773  0.1228 -0.0360 -0.1397
 1049loPI    C216442  11.338   9.918   4.392  0.0842  0.2592 -0.1207
 1049loPI    C316443  11.032  10.133   4.534 -0.0570 -0.0258  0.0135
 1049loPI   PO416444  11.406   9.939   4.919 -0.1388 -0.0375 -0.0658
 1049loPI   GL116445  11.633   9.716   5.147  0.0744 -0.3556  0.1400
 1049loPI   GL216446  11.609   9.573   5.386 -0.1166  0.1077  0.0538
 1049loPI   C1A16447  11.698  10.037   5.546 -0.1166  0.3193 -0.0840
 1049loPI   C2A16448  11.752  10.112   5.954 -0.2879 -0.0561 -0.0385
 1049loPI   C3A16449  11.446  10.144   6.203 -0.2895 -0.1057  0.2088
 1049loPI   C4A16450  11.231  10.172   6.681 -0.0491 -0.1434 -0.0765
 1049loPI   C5A16451  11.142  10.468   6.974 -0.0939  0.0043  0.1440
 1049loPI   C6A16452  11.069  10.614   7.285 -0.1765  0.0558 -0.3732
 1049loPI   C1B16453  11.488   9.600   5.749 -0.0399 -0.2673 -0.1116
 1049loPI   C2B16454  11.435   9.487   6.192 -0.1042  0.0486  0.4094
 1049loPI   C3B16455  11.308   9.291   6.635  0.3717 -0.0764 -0.1537
 1049loPI   C4B16456  11.047   9.145   6.990  0.2229 -0.1654  0.1378
 1050loPI    C116457   5.011   4.564   4.321 -0.0859  0.1407 -0.1225
 1050loPI    C216458   4.713   4.311   4.408 -0.0618  0.1600  0.0187
 1050loPI    C316459   5.043   4.177   4.227 -0.0258  0.0788  0.1434
 1050loPI   PO416460   5.120   4.745   4.606  0.0337 -0.1438 -0.2428
 1050loPI   GL116461   5.500   4.705   5.013  0.1333 -0.2884 -0.3083
 1050loPI   GL216462   5.268   4.562   5.206  0.1127 -0.3895 -0.0683
 1050loPI   C1A16463   5.749   4.825   5.394  0.0820  0.0062 -0.0284
 1050loPI   C2A16464   5.813   4.894   5.795  0.0627 -0.1022  0.2270
 1050loPI   C3A16465   5.918   5.189   6.226  0.1042 -0.0575  0.1678
 1050loPI   C4A16466   6.157   5.369   6.480 -0.3901 -0.0948  0.2591
 1050loPI   C5A16467   6.607   5.431   6.633 -0.1997 -0.1193 -0.0761
 1050loPI   C6A16468   6.748   5.649   7.074  0.0193 -0.0483  0.1144
 1050loPI   C1B16469   5.291   4.674   5.613  0.2791 -0.1449  0.0350
 1050loPI   C2B16470   5.357   4.834   6.030 -0.2937 -0.1091  0.1462
 1050loPI   C3B16471   5.532   4.766   6.384  0.1984 -0.0546  0.0127
 1050loPI   C4B16472   5.872   4.992   6.693  0.0998 -0.2186 -0.0329
 1051loPI    C116473  15.173  14.729   4.296 -0.2847  0.2116  0.1167
 1051loPI    C216474  14.984  15.079   4.254  0.1314  0.4287  0.0027
 1051loPI    C316475  15.266  14.971   3.992  0.1046  0.0692  0.1165
 1051loPI   PO416476  15.250  14.691   4.492  0.1063 -0.0795 -0.0976
 1051loPI   GL116477  15.293  14.635   4.874 -0.1147  0.0117 -0.0146
 1051loPI   GL216478  15.024  14.453   5.007  0.0770 -0.0996  0.1777
 1051loPI   C1A16479  15.556  14.634   5.221  0.1203 -0.0457  0.1040
 1051loPI   C2A16480  15.736  14.825   5.441  0.1531 -0.0751 -0.1178
 1051loPI   C3A16481  15.864  14.776   5.940  0.1088  0.0882 -0.2161
 1051loPI   C4A16482  15.712  14.888   6.309  0.2149 -0.0370  0.3913
 1051loPI   C5A16483  15.506  14.914   6.741 -0.0868 -0.1468 -0.0504
 1051loPI   C6A16484  15.596  15.031   7.134  0.2690 -0.0477 -0.5915
 1051loPI   C1B16485  15.064  14.638   5.417 -0.0674 -0.2716 -0.0308
 1051loPI   C2B16486  15.048  14.724   5.835  0.1200  0.1740 -0.1875
 1051loPI   C3B16487  14.989  14.825   6.204 -0.1974 -0.0704 -0.1665
 1051loPI   C4B16488  14.905  14.864   6.628 -0.0364  0.3548 -0.0996
 1052loPI    C116489   2.201   5.862   4.685 -0.1007  0.0536 -0.1037
 1052loPI    C216490   2.019   5.510   4.637 -0.0521  0.0338 -0.1447
 1052loPI    C316491   2.183   5.695   4.323  0.2144 -0.0667 -0.0675
 1052loPI   PO416492   2.054   6.108   4.907  0.4026  0.1185  0.0345
 1052loPI   GL116493   1.997   6.065   5.346  0.2882 -0.0006  0.2768
 1052loPI   GL216494   1.858   6.348   5.464 -0.1015  0.2172  0.2056
 1052loPI   C1A16495   2.119   5.954   5.732 -0.1199 -0.0084  0.3561
 1052loPI   C2A16496   2.058   5.882   6.234  0.2641 -0.0674  0.1380
 1052loPI   C3A16497   1.912   5.941   6.599  0.0165  0.0737 -0.3405
 1052loPI   C4A16498   1.649   5.749   6.918  0.0121  0.1785  0.1123
 1052loPI   C5A16499   1.624   5.461   7.232 -0.0131  0.1714 -0.3978
 1052loPI   C6A16500   1.729   5.471   7.624  0.2699 -0.3144  0.0189
 1052loPI   C1B16501   1.697   6.245   5.775  0.2125  0.4103 -0.2379
 1052loPI   C2B16502   1.658   6.227   6.256 -0.0172 -0.2148 -0.3078
 1052loPI   C3B16503   1.393   6.238   6.672  0.2317 -0.1668 -0.0931
 1052loPI   C4B16504   1.004   6.320   6.976  0.0340 -0.0465 -0.0537
 1053loPI    C116505   2.976  12.873   4.894  0.0928  0.0518  0.0431
 1053loPI    C216506   2.778  13.217   4.851  0.1538  0.0608 -0.1756
 1053loPI    C316507   2.726  12.922   4.586  0.0480 -0.1258  0.0500
 1053loPI   PO416508   2.917  12.830   5.159  0.2930  0.1449  0.0163
 1053loPI   GL116509   2.699  13.038   5.364 -0.1063  0.4152  0.4815
 1053loPI   GL216510   2.792  13.345   5.421 -0.1232 -0.1140  0.0136
 1053loPI   C1A16511   2.821  12.930   5.811  0.2774 -0.2435  0.0284
 1053loPI   C2A16512   2.936  13.005   6.213  0.1307  0.1523 -0.1345
 1053loPI   C3A16513   3.055  12.984   6.627 -0.1984 -0.0686 -0.2881
 1053loPI   C4A16514   3.072  13.129   6.984  0.1470  0.2110 -0.0348
 1053loPI   C5A16515   2.821  13.174   7.357 -0.1572 -0.3092 -0.3617
 1053loPI   C6A16516   2.855  13.374   7.674  0.1660 -0.1275  0.1614
 1053loPI   C1B16517   3.145  13.312   5.810  0.0867 -0.1819 -0.1284
 1053loPI   C2B16518   3.178  13.495   6.171 -0.1163  0.0641 -0.1365
 1053loPI   C3B16519   3.288  13.522   6.698 -0.0510 -0.0716 -0.1863
 1053loPI   C4B16520   3.255  13.572   7.198 -0.0903 -0.1700  0.2295
 1054loPI    C116521   4.430   5.251   4.820  0.0146 -0.0568  0.1227
 1054loPI    C216522   4.696   5.492   4.644  0.0191  0.0116  0.2227
 1054loPI    C316523   4.588   5.151   4.466 -0.0935  0.1542  0.0131
 1054loPI   PO416524   4.507   5.269   5.103 -0.2511  0.0262  0.1969
 1054loPI   GL116525   4.913   5.281   5.303 -0.2219  0.3695 -0.0497
 1054loPI   GL216526   5.265   5.068   5.256 -0.2103 -0.1206  0.0232
 1054loPI   C1A16527   4.928   5.170   5.685 -0.0542 -0.0147 -0.0027
 1054loPI   C2A16528   4.948   5.188   6.058  0.1461 -0.1158  0.1758
 1054loPI   C3A16529   5.116   4.990   6.488 -0.5109 -0.0464 -0.2191
 1054loPI   C4A16530   5.212   4.689   6.841  0.0457 -0.0615 -0.1541
 1054loPI   C5A16531   5.516   4.804   7.092  0.1347 -0.0403 -0.3817
 1054loPI   C6A16532   5.499   5.206   7.337  0.0595  0.2164  0.3375
 1054loPI   C1B16533   5.574   5.313   5.424 -0.0917 -0.0810  0.1696
 1054loPI   C2B16534   5.538   5.311   5.926  0.0078  0.0719 -0.1551
 1054loPI   C3B16535   5.444   5.310   6.381  0.0049 -0.1923  0.1513
 1054loPI   C4B16536   5.444   5.219   6.844  0.1578 -0.3413 -0.3578
 1055loPI    C116537  18.475  15.059   4.289 -0.0136 -0.2382 -0.0025
 1055loPI    C216538  18.155  14.969   4.066 -0.1666 -0.0831  0.1512
 1055loPI    C316539  18.355  15.310   4.001 -0.0485 -0.1663  0.0743
 1055loPI   PO416540  18.357  15.082   4.575  0.0756 -0.0701  0.0670
 1055loPI   GL116541  18.400  15.222   4.965  0.1883  0.5236 -0.2464
 1055loPI   GL216542  18.392  15.527   4.801  0.0282  0.2067  0.3475
 1055loPI   C1A16543  18.292  15.194   5.364  0.4617 -0.1343 -0.1373
 1055loPI   C2A16544  18.173  15.237   5.794 -0.1887  0.2534 -0.7550
 1055loPI   C3A16545  17.971  15.277   6.277  0.2834  0.1942  0.0137
 1055loPI   C4A16546  17.749  14.995   6.618  0.0528  0.1079 -0.1453
 1055loPI   C5A16547  17.884  14.779   7.039 -0.1451 -0.0737  0.2154
 1055loPI   C6A16548  17.991  14.796   7.457  0.2342  0.1463  0.0785
 1055loPI   C1B16549  18.105  15.608   5.222  0.1352  0.1565 -0.1650
 1055loPI   C2B16550  17.882  15.533   5.632  0.2450 -0.1088  0.1930
 1055loPI   C3B16551  17.583  15.283   5.960  0.0245 -0.1159 -0.3467
 1055loPI   C4B16552  17.749  14.864   6.144  0.0791  0.2201 -0.1848
 1056loPI    C116553   1.644   7.016   5.129  0.1184 -0.1853  0.0965
 1056loPI    C216554   1.352   7.224   4.951  0.2603 -0.0362  0.0347
 1056loPI    C316555   1.305   6.833   5.022  0.1589 -0.0747 -0.2332
 1056loPI   PO416556   1.845   7.042   4.951 -0.0815 -0.2396  0.0390
 1056loPI   GL116557   2.130   6.671   5.142 -0.0819  0.3174 -0.0540
 1056loPI   GL216558   2.451   6.785   5.166  0.0170 -0.1106  0.0123
 1056loPI   C1A16559   2.129   6.818   5.558 -0.1917  0.0681 -0.0195
 1056loPI   C2A16560   2.094   6.462   5.962 -0.0893  0.1398  0.1970
 1056loPI   C3A16561   2.166   6.424   6.365 -0.3619  0.0238  0.0061
 1056loPI   C4A16562   2.286   6.248   6.763 -0.1014  0.3430  0.2167
 1056loPI   C5A16563   2.105   6.064   7.110  0.2045  0.5886 -0.1024
 1056loPI   C6A16564   1.804   5.988   7.393 -0.0923 -0.0579 -0.0312
 1056loPI   C1B16565   2.697   7.041   5.447 -0.0538  0.0157 -0.3627
 1056loPI   C2B16566   2.765   6.852   5.829 -0.1255 -0.1658 -0.3932
 1056loPI   C3B16567   2.670   6.710   6.170  0.0254 -0.0536 -0.0618
 1056loPI   C4B16568   2.555   6.659   6.555 -0.0072  0.0870 -0.0522
 1057loPI    C116569   3.285   6.380   4.518  0.0763 -0.0084 -0.0141
 1057loPI    C216570   3.511   6.050   4.492 -0.2545 -0.2393 -0.0266
 1057loPI    C316571   3.393   6.239   4.159  0.0567 -0.0180 -0.0163
 1057loPI   PO416572   3.076   6.332   4.683 -0.0914 -0.0226 -0.1104
 1057loPI   GL116573   2.976   6.382   5.084 -0.2601 -0.0129 -0.1123
 1057loPI   GL216574   3.094   6.180   5.259 -0.1500 -0.0064  0.1694
 1057loPI   C1A16575   2.787   6.496   5.436 -0.1221 -0.0301 -0.0864
 1057loPI   C2A16576   2.959   6.342   5.811 -0.1533 -0.2014 -0.0703
 1057loPI   C3A16577   2.966   6.313   6.294 -0.0676  0.2358  0.0150
 1057loPI   C4A16578   2.909   6.067   6.628  0.2601 -0.0714  0.1599
 1057loPI   C5A16579   3.112   5.958   6.975  0.1129 -0.1730  0.0173
 1057loPI   C6A16580   3.088   5.936   7.382  0.2746 -0.1918 -0.0828
 1057loPI   C1B16581   3.370   6.146   5.563 -0.1180  0.2714 -0.3323
 1057loPI   C2B16582   3.402   6.179   6.011 -0.1747 -0.2056 -0.0890
 1057loPI   C3B16583   3.441   6.238   6.488  0.2997 -0.0683  0.1307
 1057loPI   C4B16584   3.628   6.214   6.821 -0.2806 -0.3469 -0.0496
 1058loPI    C116585  16.839   7.498   5.391  0.2372  0.1524 -0.0320
 1058loPI    C216586  17.029   7.230   5.164 -0.0882 -0.2560  0.1638
 1058loPI    C316587  17.175   7.326   5.524  0.1255 -0.0282  0.0201
 1058loPI   PO416588  16.572   7.475   5.308  0.3264 -0.3680 -0.2408
 1058loPI   GL116589  16.287   7.716   5.532 -0.0604 -0.1844 -0.1439
 1058loPI   GL216590  16.563   7.771   5.764 -0.1301  0.2206 -0.1783
 1058loPI   C1A16591  16.133   7.987   5.869 -0.4547  0.1733 -0.0975
 1058loPI   C2A16592  16.309   8.030   6.167  0.1789 -0.0079  0.3295
 1058loPI   C3A16593  16.408   8.126   6.491  0.1340  0.1744 -0.0117
 1058loPI   C4A16594  16.261   8.230   6.911 -0.2392  0.2656  0.0581
 1058loPI   C5A16595  16.100   8.219   7.397  0.0247 -0.3476 -0.0008
 1058loPI   C6A16596  16.178   7.907   7.763  0.0407  0.1483 -0.1200
 1058loPI   C1B16597  16.883   7.607   5.972  0.1016  0.1801 -0.1713
 1058loPI   C2B16598  16.837   7.787   6.374 -0.1001 -0.0461 -0.0306
 1058loPI   C3B16599  16.736   7.940   6.858 -0.1908 -0.0757  0.0249
 1058loPI   C4B16600  16.735   7.768   7.249  0.1229  0.3616  0.0689
 1059loPI    C116601   5.719  12.425   5.098 -0.1255  0.0852 -0.0157
 1059loPI    C216602   5.908  12.139   4.891 -0.1252  0.3458 -0.3842
 1059loPI    C316603   5.510  12.130   4.927 -0.0739 -0.0917  0.2207
 1059loPI   PO416604   5.899  12.361   5.340  0.1005 -0.0468 -0.1897
 1059loPI   GL116605   6.146  12.079   5.562  0.4986 -0.1752 -0.0147
 1059loPI   GL216606   6.344  11.833   5.669 -0.0056  0.3401  0.2311
 1059loPI   C1A16607   6.094  12.091   5.990 -0.0474  0.0919 -0.1709
 1059loPI   C2A16608   5.873  12.053   6.359 -0.0471  0.0948  0.0404
 1059loPI   C3A16609   5.625  12.074   6.877  0.1635 -0.1961  0.2314
 1059loPI   C4A16610   5.514  12.415   7.211 -0.5127 -0.2343 -0.3438
 1059loPI   C5A16611   5.430  12.619   7.635  0.0292 -0.1713 -0.2380
 1059loPI   C6A16612   5.528  12.695   8.028 -0.3225  0.0892 -0.0071
 1059loPI   C1B16613   6.540  11.853   5.943  0.0650 -0.1638 -0.2116
 1059loPI   C2B16614   6.525  11.913   6.413 -0.1243  0.1563 -0.0109
 1059loPI   C3B16615   6.754  11.944   6.754  0.2344 -0.0677 -0.2113
 1059loPI   C4B16616   7.047  11.927   7.121 -0.0073  0.1059 -0.3468
 1060loPI    C116617   9.461  12.245   4.509 -0.0170 -0.0763  0.2543
 1060loPI    C216618   9.827  12.345   4.382  0.0532 -0.2629  0.3079
 1060loPI    C316619   9.525  12.604   4.345  0.1522 -0.1756  0.0995
 1060loPI   PO416620   9.579  12.074   4.809 -0.1734  0.0306  0.1908
 1060loPI   GL116621   9.603  12.247   5.212  0.0113 -0.0294 -0.0120
 1060loPI   GL216622   9.948  12.159   5.245  0.0184 -0.3865  0.2265
 1060loPI   C1A16623   9.299  12.437   5.686 -0.1663  0.0684 -0.0609
 1060loPI   C2A16624   9.483  12.670   6.011 -0.0517 -0.2684 -0.2517
 1060loPI   C3A16625   9.556  12.580   6.378  0.1324 -0.0351 -0.1721
 1060loPI   C4A16626   9.591  12.590   6.720 -0.2367  0.1296  0.1120
 1060loPI   C5A16627   9.531  12.809   7.058 -0.2534 -0.0079 -0.0033
 1060loPI   C6A16628   9.693  12.802   7.395 -0.1442 -0.1594  0.2305
 1060loPI   C1B16629   9.828  12.227   5.652  0.0592 -0.1949  0.1911
 1060loPI   C2B16630   9.947  12.299   6.134  0.0616  0.3592  0.0212
 1060loPI   C3B16631  10.049  12.174   6.533 -0.1558 -0.2902 -0.1331
 1060loPI   C4B16632  10.143  11.911   6.864 -0.0759  0.1760 -0.0358
 1061loPI    C116633   7.371  10.209   5.121 -0.2068 -0.0490 -0.1409
 1061loPI    C216634   7.522  10.566   5.216 -0.1545 -0.1083  0.0016
 1061loPI    C316635   7.330  10.516   4.869 -0.0097  0.0138 -0.0974
 1061loPI   PO416636   7.387  10.094   5.329  0.0147  0.4582 -0.3519
 1061loPI   GL116637   7.364  10.393   5.706  0.0431 -0.0668 -0.1639
 1061loPI   GL216638   7.629  10.363   5.710 -0.5143  0.1871 -0.1175
 1061loPI   C1A16639   7.235  10.570   6.088  0.1379 -0.1239 -0.3690
 1061loPI   C2A16640   7.270  10.636   6.575 -0.0056  0.0524 -0.3957
 1061loPI   C3A16641   7.114  10.859   7.044  0.2750  0.2992  0.1579
 1061loPI   C4A16642   6.971  10.660   7.424 -0.1558  0.3015  0.3196
 1061loPI   C5A16643   6.919  10.844   7.792  0.0702 -0.1607 -0.0757
 1061loPI   C6A16644   7.023  11.181   8.156  0.1433  0.0867 -0.1082
 1061loPI   C1B16645   7.615  10.198   6.121  0.1466 -0.1997 -0.1217
 1061loPI   C2B16646   7.527  10.173   6.591  0.0025  0.0511 -0.2290
 1061loPI   C3B16647   7.597  10.015   6.959 -0.0140  0.2132 -0.0399
 1061loPI   C4B16648   7.659  10.176   7.395  0.3646  0.2439  0.0888
 1062loPI    C116649   7.601   8.369   4.855 -0.0140  0.0610  0.1120
 1062loPI    C216650   7.383   8.527   4.559  0.0001 -0.0475  0.0430
 1062loPI    C316651   7.771   8.619   4.593  0.0079 -0.0660  0.0044
 1062loPI   PO416652   7.501   8.392   5.078  0.2064  0.2802  0.0455
 1062loPI   GL116653   7.519   8.202   5.514  0.1319  0.0791 -0.0824
 1062loPI   GL216654   7.215   8.352   5.530 -0.1642 -0.0597 -0.1983
 1062loPI   C1A16655   7.828   8.357   5.781 -0.2384 -0.3764  0.1156
 1062loPI   C2A16656   7.891   8.639   6.158 -0.0829 -0.0431  0.1139
 1062loPI   C3A16657   7.820   8.835   6.508  0.0378  0.2887 -0.0243
 1062loPI   C4A16658   8.171   8.910   6.680  0.0532 -0.1012 -0.0816
 1062loPI   C5A16659   8.496   9.104   6.425 -0.0792 -0.0040  0.1828
 1062loPI   C6A16660   8.364   9.093   6.058  0.0129 -0.0521 -0.0462
 1062loPI   C1B16661   7.261   8.172   6.024 -0.0680  0.0448 -0.0616
 1062loPI   C2B16662   7.262   8.140   6.523  0.2035  0.3301  0.2764
 1062loPI   C3B16663   7.192   8.174   6.952  0.0102  0.2379 -0.0835
 1062loPI   C4B16664   7.537   8.266   7.262 -0.0327 -0.0547  0.0809
 1063loPI    C116665  12.951   9.349   4.414  0.1084 -0.3139  0.0315
 1063loPI    C216666  13.101   9.393   4.045  0.1261 -0.2356  0.0477
 1063loPI    C316667  13.050   9.713   4.280 -0.0059 -0.2694  0.0662
 1063loPI   PO416668  13.080   9.252   4.527 -0.0540 -0.1736 -0.0280
 1063loPI   GL116669  13.072   9.275   5.007 -0.1945 -0.0923  0.0218
 1063loPI   GL216670  12.926   9.541   5.238  0.1693 -0.0140  0.0367
 1063loPI   C1A16671  13.337   9.020   5.318  0.1462  0.2168 -0.2554
 1063loPI   C2A16672  13.553   8.784   5.702  0.3172  0.1088  0.0234
 1063loPI   C3A16673  13.676   8.541   6.124  0.2335 -0.0751 -0.0917
 1063loPI   C4A16674  13.663   8.388   6.579  0.0715  0.1093  0.0415
 1063loPI   C5A16675  13.628   8.382   7.137  0.1348 -0.1759 -0.2911
 1063loPI   C6A16676  13.791   8.083   7.479 -0.1066 -0.1427  0.0021
 1063loPI   C1B16677  13.021   9.603   5.670  0.4239  0.3149  0.1516
 1063loPI   C2B16678  13.097   9.486   6.163 -0.1661  0.1652  0.1883
 1063loPI   C3B16679  13.149   9.132   6.556 -0.2230  0.1747 -0.1174
 1063loPI   C4B16680  13.123   9.156   6.934 -0.1067 -0.2049 -0.0322
 1064loPI    C116681  15.058  13.943   4.524  0.0378  0.1803 -0.0454
 1064loPI    C216682  15.273  14.193   4.297  0.1307 -0.0424 -0.2058
 1064loPI    C316683  14.979  13.976   4.133  0.0573 -0.0467 -0.0698
 1064loPI   PO416684  15.074  14.034   4.783  0.1479 -0.2447  0.0896
 1064loPI   GL116685  15.019  13.956   5.132 -0.0711  0.1569  0.1573
 1064loPI   GL216686  14.762  13.793   5.204 -0.0582 -0.2235  0.2194
 1064loPI   C1A16687  15.033  14.060   5.533 -0.0823 -0.0170 -0.1368
 1064loPI   C2A16688  15.055  14.179   5.942  0.1530  0.4124  0.4006
 1064loPI   C3A16689  14.772  14.378   6.200 -0.2468 -0.0167  0.1836
 1064loPI   C4A16690  14.326  14.445   6.247 -0.0734  0.2996 -0.0824
 1064loPI   C5A16691  14.144  14.696   6.576 -0.1875 -0.0841  0.1533
 1064loPI   C6A16692  13.797  14.739   6.747  0.0001 -0.1904 -0.1240
 1064loPI   C1B16693  14.557  13.892   5.587 -0.0193 -0.3473  0.1257
 1064loPI   C2B16694  14.501  13.937   6.060  0.1444 -0.2412  0.0724
 1064loPI   C3B16695  14.454  14.050   6.479 -0.1236  0.0931 -0.0515
 1064loPI   C4B16696  14.591  14.475   6.672 -0.0352  0.1376  0.1555
 1065loPI    C116697  17.958  12.750   4.293 -0.0459 -0.1562  0.1831
 1065loPI    C216698  17.989  12.403   4.095  0.0133  0.0200 -0.1218
 1065loPI    C316699  18.308  12.643   4.129 -0.0325  0.0547  0.0714
 1065loPI   PO416700  17.774  12.592   4.517  0.0840  0.4049  0.1518
 1065loPI   GL116701  17.547  12.731   4.917  0.0721  0.1545 -0.0227
 1065loPI   GL216702  17.269  12.602   4.980 -0.0096  0.1720 -0.2119
 1065loPI   C1A16703  17.494  13.070   5.323  0.0481 -0.2216 -0.1040
 1065loPI   C2A16704  17.392  12.889   5.783  0.0174 -0.4418  0.0687
 1065loPI   C3A16705  17.338  12.724   6.157  0.0215 -0.1283  0.3028
 1065loPI   C4A16706  17.513  12.517   6.480  0.1093 -0.0359 -0.1425
 1065loPI   C5A16707  17.527  12.134   6.640 -0.1298  0.1603 -0.0798
 1065loPI   C6A16708  17.628  11.724   6.576 -0.0050 -0.0965 -0.2971
 1065loPI   C1B16709  17.166  12.696   5.387  0.0437 -0.0291 -0.0614
 1065loPI   C2B16710  16.762  12.563   5.593 -0.0496  0.2035 -0.1953
 1065loPI   C3B16711  16.560  12.575   6.018 -0.0169 -0.0232 -0.0314
 1065loPI   C4B16712  16.649  12.467   6.391 -0.1246 -0.1835 -0.0709
 1066loPI    C116713  11.286   4.146   4.329  0.1768 -0.0174 -0.0549
 1066loPI    C216714  11.247   3.873   4.039 -0.1501  0.1307 -0.1550
 1066loPI    C316715  11.473   4.198   3.979  0.0346  0.0093 -0.1275
 1066loPI   PO416716  11.107   4.092   4.488  0.2757 -0.3774  0.0496
 1066loPI   GL116717  11.030   3.789   4.793  0.2337 -0.1396 -0.1481
 1066loPI   GL216718  10.684   3.779   4.894  0.1348 -0.1818 -0.0718
 1066loPI   C1A16719  11.164   3.864   5.186  0.1869 -0.0157  0.1970
 1066loPI   C2A16720  11.076   3.964   5.618 -0.0805  0.1466 -0.2540
 1066loPI   C3A16721  10.861   4.286   5.825  0.1256  0.0548 -0.1694
 1066loPI   C4A16722  10.868   4.441   6.229  0.0247 -0.0292  0.0043
 1066loPI   C5A16723  10.804   4.489   6.735  0.3003 -0.3080 -0.2832
 1066loPI   C6A16724  10.585   4.755   7.169 -0.3636  0.0542 -0.4778
 1066loPI   C1B16725  10.776   3.503   5.163  0.0695  0.0081 -0.1076
 1066loPI   C2B16726  11.013   3.245   5.570  0.3408  0.1612 -0.2243
 1066loPI   C3B16727  10.800   2.923   5.705  0.4234  0.1983 -0.2033
 1066loPI   C4B16728  10.564   2.836   6.090  0.0778 -0.1528  0.0914
 1067loPI    C116729   8.905   2.698   4.387  0.0890  0.0821  0.2586
 1067loPI    C216730   8.578   2.778   4.604 -0.1483  0.1623 -0.1193
 1067loPI    C316731   8.582   2.857   4.212  0.2633 -0.0069 -0.1542
 1067loPI   PO416732   9.135   2.790   4.543 -0.0195 -0.2177  0.0989
 1067loPI   GL116733   9.034   2.958   4.934  0.1885  0.1116 -0.0526
 1067loPI   GL216734   8.735   2.822   5.081  0.4825 -0.2626 -0.1458
 1067loPI   C1A16735   9.286   2.990   5.234 -0.1434 -0.3481 -0.0225
 1067loPI   C2A16736   9.494   2.934   5.648 -0.1158 -0.0620  0.2195
 1067loPI   C3A16737   9.512   2.855   6.114 -0.1026  0.3063 -0.6786
 1067loPI   C4A16738   9.723   2.710   6.482  0.1784  0.1542 -0.0523
 1067loPI   C5A16739   9.677   2.754   6.889 -0.0375 -0.3226 -0.1878
 1067loPI   C6A16740   9.815   2.729   7.403 -0.2813 -0.1415 -0.1173
 1067loPI   C1B16741   8.798   2.992   5.502 -0.1110 -0.2237  0.2897
 1067loPI   C2B16742   8.976   2.927   5.981 -0.2324  0.1068 -0.0877
 1067loPI   C3B16743   8.925   3.030   6.427  0.1258 -0.2755  0.0401
 1067loPI   C4B16744   8.696   2.886   6.774  0.3115  0.2354 -0.2851
 1068loPI    C116745  10.219  10.177   4.703  0.0694  0.1608  0.3336
 1068loPI    C216746  10.415   9.884   4.513 -0.4479 -0.1997  0.3342
 1068loPI    C316747  10.223  10.166   4.303 -0.2237 -0.0449  0.3332
 1068loPI   PO416748  10.336  10.219   4.965  0.1462  0.1207  0.1655
 1068loPI   GL116749  10.171  10.195   5.315  0.0789 -0.2610 -0.3117
 1068loPI   GL216750   9.876  10.142   5.378  0.2440 -0.0066 -0.0393
 1068loPI   C1A16751  10.221  10.256   5.789 -0.0294  0.0820  0.0549
 1068loPI   C2A16752   9.991  10.049   6.127 -0.0310 -0.1556 -0.1671
 1068loPI   C3A16753   9.886   9.925   6.426 -0.0891  0.1495 -0.1546
 1068loPI   C4A16754   9.490  10.103   6.566  0.0670 -0.1315  0.3934
 1068loPI   C5A16755   9.397  10.389   6.999  0.2005 -0.2431  0.3013
 1068loPI   C6A16756   9.524  10.544   7.395 -0.0045  0.4790 -0.1569
 1068loPI   C1B16757   9.856   9.787   5.717 -0.3211  0.0472  0.0525
 1068loPI   C2B16758   9.961   9.513   6.016  0.0554  0.0219  0.1801
 1068loPI   C3B16759   9.753   9.451   6.497  0.0116  0.4109  0.1010
 1068loPI   C4B16760   9.318   9.635   6.596 -0.3678  0.3995  0.2566
 1069loPI    C116761  11.226  13.235   4.998  0.0967 -0.0766  0.1801
 1069loPI    C216762  11.008  13.523   4.825  0.1090 -0.1396  0.0585
 1069loPI    C316763  11.389  13.466   4.715  0.0156 -0.4014 -0.1395
 1069loPI   PO416764  11.081  13.082   5.087  0.2903  0.0227  0.0375
 1069loPI   GL116765  10.931  12.816   5.279 -0.0337 -0.0413  0.0594
 1069loPI   GL216766  10.764  12.576   5.187  0.0077  0.0932  0.0149
 1069loPI   C1A16767  11.093  12.891   5.759  0.1226 -0.1305  0.0231
 1069loPI   C2A16768  11.083  12.880   6.198  0.3643  0.0620  0.0901
 1069loPI   C3A16769  10.944  12.786   6.596 -0.1973 -0.0726  0.0704
 1069loPI   C4A16770  10.997  12.765   7.011  0.2288 -0.3302 -0.0014
 1069loPI   C5A16771  10.851  12.648   7.442  0.3131  0.1851 -0.1640
 1069loPI   C6A16772  10.623  13.078   7.656 -0.0029 -0.1193 -0.2423
 1069loPI   C1B16773  10.824  12.340   5.573 -0.1332 -0.0073 -0.0535
 1069loPI   C2B16774  11.063  12.403   5.924  0.0176  0.1667  0.3287
 1069loPI   C3B16775  11.060  12.410   6.316 -0.0221  0.0235 -0.2530
 1069loPI   C4B16776  11.082  12.282   6.665  0.1252 -0.1731 -0.2757
 1070loPI    C116777  12.735   0.745   4.259 -0.1689  0.0300  0.0365
 1070loPI    C216778  12.896   1.085   4.123  0.2401 -0.1540  0.0456
 1070loPI    C316779  12.806   0.791   3.868  0.0185 -0.0957  0.0545
 1070loPI   PO416780  12.747   0.771   4.478 -0.0887  0.0283  0.0133
 1070loPI   GL116781  12.647   0.847   4.878 -0.1920  0.0072  0.4009
 1070loPI   GL216782  12.830   1.156   4.802 -0.1044 -0.1337 -0.1107
 1070loPI   C1A16783  12.955   0.850   5.178 -0.1291 -0.0852 -0.1024
 1070loPI   C2A16784  13.076   0.657   5.552 -0.1103  0.1232  0.1047
 1070loPI   C3A16785  13.099   0.620   6.009  0.1366  0.1146 -0.0772
 1070loPI   C4A16786  13.400   0.639   6.261 -0.3688  0.3043 -0.1478
 1070loPI   C5A16787  13.389   0.602   6.675 -0.1158 -0.1462  0.2737
 1070loPI   C6A16788  13.745   0.395   6.997  0.2517  0.3925  0.1309
 1070loPI   C1B16789  12.735   1.291   5.297 -0.2386 -0.0781  0.0695
 1070loPI   C2B16790  12.791   1.158   5.691  0.0615  0.0412 -0.0159
 1070loPI   C3B16791  12.712   1.266   6.122  0.2982  0.0992  0.1274
 1070loPI   C4B16792  12.733   1.051   6.610 -0.0218 -0.1098  0.2102
 1071loPI    C116793   2.496   6.581   4.686  0.1742 -0.0395  0.0651
 1071loPI    C216794   2.845   6.753   4.776  0.1593  0.0540 -0.0533
 1071loPI    C316795   2.786   6.600   4.412  0.0251  0.1701 -0.0813
 1071loPI   PO416796   2.404   6.399   4.839  0.1493 -0.3160  0.1451
 1071loPI   GL116797   2.468   6.230   5.191  0.0767  0.1526  0.0463
 1071loPI   GL216798   2.428   5.931   5.195 -0.1908 -0.0903 -0.1016
 1071loPI   C1A16799   2.347   6.364   5.587  0.2137  0.1400 -0.0791
 1071loPI   C2A16800   2.543   6.236   6.002 -0.0265  0.0563 -0.1542
 1071loPI   C3A16801   2.520   6.103   6.358  0.0787  0.0394 -0.1193
 1071loPI   C4A16802   2.482   5.815   6.718 -0.1345  0.0338 -0.1351
 1071loPI   C5A16803   2.711   5.459   6.767 -0.0208 -0.2557  0.0816
 1071loPI   C6A16804   2.460   5.097   6.802 -0.0553 -0.1158  0.1707
 1071loPI   C1B16805   2.636   5.890   5.589 -0.0413 -0.3352  0.0457
 1071loPI   C2B16806   2.755   5.724   6.072  0.1437  0.0443 -0.1771
 1071loPI   C3B16807   2.943   5.390   6.308 -0.0850 -0.0551 -0.2293
 1071loPI   C4B16808   3.144   5.017   6.287  0.1499 -0.2081 -0.1588
 1072loPI    C116809  15.307   6.071   4.764  0.0136  0.1612  0.0581
 1072loPI    C216810  14.979   6.128   4.985 -0.0634 -0.0220 -0.0073
 1072loPI    C316811  14.953   6.119   4.586 -0.0254 -0.3144 -0.0052
 1072loPI   PO416812  15.471   6.181   4.909  0.0817  0.0361  0.2766
 1072loPI   GL116813  15.388   6.191   5.329 -0.2676  0.2114 -0.1126
 1072loPI   GL216814  15.074   6.053   5.539 -0.0149  0.2171  0.0944
 1072loPI   C1A16815  15.608   6.198   5.703  0.3571  0.1527 -0.0769
 1072loPI   C2A16816  15.635   6.072   6.105  0.0453  0.0821 -0.2982
 1072loPI   C3A16817  15.720   6.138   6.472 -0.1683 -0.3568 -0.3023
 1072loPI   C4A16818  15.540   6.400   6.838 -0.0136 -0.1352  0.0222
 1072loPI   C5A16819  15.465   6.581   7.158  0.2661 -0.0792  0.0436
 1072loPI   C6A16820  15.317   6.938   7.386 -0.3453 -0.2224  0.0807
 1072loPI   C1B16821  15.162   6.058   5.930  0.0296 -0.0659 -0.2999
 1072loPI   C2B16822  15.229   6.000   6.415  0.2165  0.0410 -0.0691
 1072loPI   C3B16823  14.860   5.896   6.702 -0.1464  0.2897  0.3609
 1072loPI   C4B16824  14.693   5.794   6.994 -0.1734 -0.2001  0.1082
 1073loPI    C116825   9.852   5.964   4.612 -0.1649 -0.0542  0.0271
 1073loPI    C216826   9.564   5.988   4.335  0.0689 -0.2179 -0.2359
 1073loPI    C316827   9.871   6.244   4.326 -0.2118  0.1505  0.2221
 1073loPI   PO416828   9.678   5.888   4.852 -0.2403  0.2823  0.2559
 1073loPI   GL116829   9.784   5.845   5.295  0.2692  0.2376 -0.1200
 1073loPI   GL216830   9.694   5.423   5.100 -0.2034  0.0025 -0.2491
 1073loPI   C1A16831   9.752   5.612   5.837 -0.2005  0.0041  0.3565
 1073loPI   C2A16832   9.555   5.657   6.206 -0.2144 -0.0004  0.0950
 1073loPI   C3A16833   9.433   5.397   6.623  0.2531 -0.0622  0.0675
 1073loPI   C4A16834   9.500   5.367   7.037  0.4256  0.1034  0.3088
 1073loPI   C5A16835   9.326   5.481   7.444  0.0563 -0.0056  0.3765
 1073loPI   C6A16836   9.326   5.807   7.664  0.1248 -0.1306  0.2158
 1073loPI   C1B16837   9.827   5.260   5.469 -0.3865  0.1430 -0.0393
 1073loPI   C2B16838   9.749   5.082   5.847 -0.0867 -0.2224 -0.0156
 1073loPI   C3B16839   9.843   5.208   6.320 -0.0741  0.0595 -0.0972
 1073loPI   C4B16840   9.874   5.140   6.736  0.3616 -0.0081  0.1014
 1074loPI    C116841   7.659  10.694   4.544  0.0536 -0.0957 -0.0499
 1074loPI    C216842   7.345  10.889   4.393 -0.0225 -0.0854  0.1188
 1074loPI    C316843   7.390  10.498   4.324  0.1101 -0.0189 -0.1883
 1074loPI   PO416844   7.688  10.899   4.829  0.0832  0.0385  0.1009
 1074loPI   GL116845   7.987  10.888   5.085 -0.0254 -0.1003 -0.1220
 1074loPI   GL216846   8.138  11.126   5.309 -0.0046 -0.1612  0.1501
 1074loPI   C1A16847   7.704  10.905   5.608  0.2373  0.1615 -0.0076
 1074loPI   C2A16848   7.732  10.826   6.046  0.0918  0.2658 -0.3122
 1074loPI   C3A16849   7.670  10.926   6.564 -0.1062  0.2141 -0.0602
 1074loPI   C4A16850   7.600  11.039   7.009  0.0307 -0.2601 -0.0565
 1074loPI   C5A16851   7.438  10.750   7.400 -0.1447  0.4924  0.2331
 1074loPI   C6A16852   7.345  10.392   7.664  0.3892 -0.0984 -0.1335
 1074loPI   C1B16853   8.197  11.031   5.730 -0.2372  0.2495 -0.1686
 1074loPI   C2B16854   8.094  11.154   6.217  0.1322  0.0303  0.0698
 1074loPI   C3B16855   7.879  11.442   6.466  0.1905  0.1469  0.2089
 1074loPI   C4B16856   7.899  11.850   6.726 -0.0746 -0.1810  0.1742
 1075loPI    C116857  18.850   0.222   4.425  0.1151  0.0819  0.0461
 1075loPI    C216858  18.461   0.306   4.386  0.1764  0.2909 -0.1360
 1075loPI    C316859  18.657   0.127   4.088  0.1687 -0.0293  0.0467
 1075loPI   PO416860  18.762   0.095   4.676 -0.0356  0.1455 -0.2381
 1075loPI   GL116861  18.797   0.209   5.020 -0.0936 -0.1895 -0.1938
 1075loPI   GL216862  18.834   0.468   5.186  0.0763 -0.2571 -0.0240
 1075loPI   C1A16863  19.008   0.041   5.410  0.2839 -0.1971  0.0040
 1075loPI   C2A16864  18.930   0.109   5.894 -0.1841 -0.2724 -0.2227
 1075loPI   C3A16865  19.060  -0.115   6.302 -0.1789 -0.0320 -0.2013
 1075loPI   C4A16866  19.033  -0.443   6.621  0.2009 -0.0598 -0.0785
 1075loPI   C5A16867  18.800  -0.791   6.798 -0.0279  0.4638 -0.2716
 1075loPI   C6A16868  19.029  -1.203   6.880 -0.0648 -0.0418  0.1487
 1075loPI   C1B16869  18.651   0.387   5.591 -0.1011 -0.2399 -0.0681
 1075loPI   C2B16870  18.538   0.529   5.934 -0.0781  0.0193  0.0598
 1075loPI   C3B16871  18.360   0.414   6.299  0.2228 -0.2184  0.4498
 1075loPI   C4B16872  18.377   0.354   6.661 -0.1588 -0.0822  0.2715
 1076loPI    C116873  13.242   6.900   4.531 -0.1082  0.2266 -0.0058
 1076loPI    C216874  13.526   6.712   4.320 -0.2385 -0.1187  0.1203
 1076loPI    C316875  13.259   6.945   4.133  0.1194  0.2050  0.0004
 1076loPI   PO416876  13.272   6.995   4.800 -0.1140  0.2682  0.2257
 1076loPI   GL116877  13.436   6.889   5.176  0.2053  0.0556 -0.2237
 1076loPI   GL216878  13.085   6.792   5.277 -0.2280 -0.1658  0.0371
 1076loPI   C1A16879  13.570   6.785   5.675  0.0832 -0.0664  0.0338
 1076loPI   C2A16880  13.748   6.621   6.035 -0.2535 -0.0837  0.0916
 1076loPI   C3A16881  13.840   6.604   6.477 -0.2897 -0.1753 -0.0267
 1076loPI   C4A16882  13.773   6.815   6.868 -0.0510  0.4376 -0.2432
 1076loPI   C5A16883  13.529   6.656   7.189  0.2068  0.0649  0.0914
 1076loPI   C6A16884  13.344   6.408   7.381  0.0365  0.2552  0.5990
 1076loPI   C1B16885  12.919   7.176   5.494 -0.1582 -0.0792 -0.0270
 1076loPI   C2B16886  12.971   7.565   5.479 -0.0655 -0.2210 -0.0646
 1076loPI   C3B16887  13.288   8.013   5.403  0.1125 -0.1022  0.2545
 1076loPI   C4B16888  13.358   8.308   5.701 -0.3927  0.1610 -0.1483
 1077loPI    C116889   3.741  14.432   4.933 -0.2867  0.1670  0.1548
 1077loPI    C216890   4.025  14.335   4.668 -0.0923 -0.0466  0.4349
 1077loPI    C316891   3.752  14.064   4.778 -0.2185  0.0644  0.3981
 1077loPI   PO416892   3.895  14.510   5.134  0.0141  0.1153 -0.2478
 1077loPI   GL116893   3.916  14.714   5.522  0.0502  0.1227 -0.1047
 1077loPI   GL216894   4.116  14.422   5.550 -0.1094  0.0660 -0.1408
 1077loPI   C1A16895   4.100  14.973   5.844  0.1559  0.3074  0.0108
 1077loPI   C2A16896   4.262  15.243   6.202  0.0589  0.2664  0.0410
 1077loPI   C3A16897   4.226  15.337   6.565  0.0432 -0.0928 -0.1369
 1077loPI   C4A16898   3.896  15.311   6.918 -0.1113  0.1515 -0.2240
 1077loPI   C5A16899   3.421  15.256   7.199  0.1141 -0.1191  0.1625
 1077loPI   C6A16900   3.194  15.126   7.462 -0.2164 -0.1664 -0.4828
 1077loPI   C1B16901   4.182  14.453   5.882  0.1188  0.3304 -0.0166
 1077loPI   C2B16902   4.267  14.601   6.204  0.0253  0.0451 -0.0524
 1077loPI   C3B16903   4.196  14.432   6.628  0.0686  0.0091 -0.0494
 1077loPI   C4B16904   4.039  14.462   7.101 -0.1153 -0.1889  0.1466
 1078loPI    C116905  12.042  12.327   4.442 -0.1007  0.0288  0.0891
 1078loPI    C216906  12.350  12.485   4.644  0.0063 -0.0062 -0.0452
 1078loPI    C316907  12.407  12.332   4.279 -0.1679 -0.0275 -0.0646
 1078loPI   PO416908  11.925  12.179   4.636  0.2261  0.0365 -0.0863
 1078loPI   GL116909  11.952  11.993   5.084  0.2676 -0.0426 -0.0380
 1078loPI   GL216910  12.160  12.232   5.063  0.2066 -0.4345 -0.1947
 1078loPI   C1A16911  11.903  11.775   5.478  0.0364 -0.1005 -0.0833
 1078loPI   C2A16912  12.129  11.686   5.949  0.0331 -0.1779  0.3381
 1078loPI   C3A16913  12.301  11.619   6.275 -0.3439 -0.0070  0.0499
 1078loPI   C4A16914  12.428  11.271   6.502  0.1283  0.1750  0.0196
 1078loPI   C5A16915  12.833  11.057   6.696 -0.0006 -0.2112  0.2151
 1078loPI   C6A16916  13.151  10.848   6.527 -0.3735  0.0870 -0.1833
 1078loPI   C1B16917  12.301  12.168   5.515  0.3200  0.1179 -0.2194
 1078loPI   C2B16918  12.329  12.143   5.959 -0.2122 -0.0270  0.1828
 1078loPI   C3B16919  12.360  12.208   6.373  0.0806  0.1036 -0.2326
 1078loPI   C4B16920  12.377  12.217   6.793  0.3090  0.1554  0.0692
 1079loPI    C116921   5.382   3.819   4.714  0.2928  0.4632  0.0571
 1079loPI    C216922   5.263   3.698   4.352  0.0683  0.2317  0.2045
 1079loPI    C316923   5.572   3.518   4.531 -0.0772  0.0710  0.2974
 1079loPI   PO416924   5.100   3.844   4.832 -0.1002  0.0533  0.1776
 1079loPI   GL116925   4.885   3.879   5.194  0.1805  0.0489 -0.1163
 1079loPI   GL216926   5.098   4.020   5.316 -0.3848  0.2140 -0.1237
 1079loPI   C1A16927   4.888   3.617   5.568  0.0526 -0.0502 -0.0724
 1079loPI   C2A16928   4.901   3.691   6.030  0.1833 -0.3334 -0.2822
 1079loPI   C3A16929   4.918   3.786   6.527  0.0787  0.0077  0.0170
 1079loPI   C4A16930   5.095   3.980   6.927 -0.1305  0.1611  0.2821
 1079loPI   C5A16931   5.376   3.872   7.319  0.2524  0.0043 -0.2140
 1079loPI   C6A16932   5.682   3.550   7.471 -0.0776 -0.0621 -0.5496
 1079loPI   C1B16933   4.897   4.351   5.608  0.0278 -0.0768  0.0455
 1079loPI   C2B16934   4.810   4.648   5.871  0.0103  0.0408  0.0598
 1079loPI   C3B16935   4.697   4.662   6.295 -0.0490  0.0251  0.0229
 1079loPI   C4B16936   4.683   4.685   6.639 -0.0744  0.0449  0.0221
 1080loPI    C116937  13.321  12.112   4.521  0.0190 -0.0001 -0.2122
 1080loPI    C216938  13.168  12.243   4.175 -0.2935  0.2700  0.0217
 1080loPI    C316939  13.232  11.852   4.230 -0.1787  0.2309 -0.3625
 1080loPI   PO416940  13.123  12.210   4.728 -0.1024 -0.6357 -0.2212
 1080loPI   GL116941  13.287  12.546   5.072 -0.3665  0.1705  0.0242
 1080loPI   GL216942  13.362  12.352   5.385  0.1370  0.1870 -0.0732
 1080loPI   C1A16943  13.067  12.699   5.394 -0.1728  0.1479  0.1264
 1080loPI   C2A16944  13.017  12.780   5.806 -0.3142  0.0906 -0.0414
 1080loPI   C3A16945  12.917  12.857   6.284 -0.0214 -0.2103  0.2074
 1080loPI   C4A16946  12.848  12.886   6.724 -0.0204 -0.3118  0.0106
 1080loPI   C5A16947  13.067  13.032   6.994  0.1019  0.1190  0.0554
 1080loPI   C6A16948  12.933  13.278   7.425  0.1681 -0.0810 -0.0766
 1080loPI   C1B16949  13.450  12.465   5.799 -0.2910 -0.0108  0.0507
 1080loPI   C2B16950  13.390  12.463   6.323 -0.1538 -0.0978  0.0997
 1080loPI   C3B16951  13.314  12.667   6.698 -0.0153  0.0681 -0.2268
 1080loPI   C4B16952  13.222  12.512   7.072 -0.1412 -0.0548  0.0590
 1081loPI    C116953   4.424   3.102   4.696 -0.0651 -0.1257  0.1249
 1081loPI    C216954   4.452   3.498   4.641  0.0188 -0.1419  0.0494
 1081loPI    C316955   4.203   3.282   4.415  0.0669 -0.1504  0.0043
 1081loPI   PO416956   4.341   3.140   5.045  0.0469  0.0896 -0.1197
 1081loPI   GL116957   4.290   3.139   5.493  0.1872  0.0072 -0.0510
 1081loPI   GL216958   4.398   3.520   5.421 -0.0021  0.1175 -0.0102
 1081loPI   C1A16959   4.800   3.160   5.517 -0.2634  0.1229 -0.0070
 1081loPI   C2A16960   5.245   3.314   5.796  0.0836  0.2882  0.1547
 1081loPI   C3A16961   5.275   3.406   6.255 -0.1185 -0.0845 -0.0600
 1081loPI   C4A16962   5.292   3.504   6.705 -0.0609 -0.2844 -0.0673
 1081loPI   C5A16963   5.574   3.538   6.933 -0.1053 -0.0361 -0.0945
 1081loPI   C6A16964   5.946   3.421   7.055 -0.2121  0.3999  0.1575
 1081loPI   C1B16965   4.471   3.398   5.840  0.0754 -0.0387 -0.2004
 1081loPI   C2B16966   4.634   3.177   6.126  0.0174 -0.0079 -0.2280
 1081loPI   C3B16967   4.729   3.320   6.415 -0.2937 -0.0267 -0.0076
 1081loPI   C4B16968   4.559   3.228   6.820 -0.1381 -0.0093  0.1346
 1082loPI    C116969  15.903  15.544   4.277 -0.1541  0.0068 -0.2182
 1082loPI    C216970  16.035  15.845   4.505 -0.2186 -0.0020 -0.1689
 1082loPI    C316971  16.266  15.700   4.212 -0.1127 -0.0280 -0.0735
 1082loPI   PO416972  15.711  15.521   4.354 -0.0733 -0.1740 -0.0142
 1082loPI   GL116973  15.470  15.693   4.767  0.0146 -0.0560  0.3581
 1082loPI   GL216974  15.758  15.886   4.930 -0.0604 -0.2110 -0.0462
 1082loPI   C1A16975  15.243  15.824   5.200 -0.1806 -0.2670  0.1326
 1082loPI   C2A16976  14.949  15.742   5.573 -0.0582 -0.2945 -0.1167
 1082loPI   C3A16977  14.645  15.687   5.926 -0.0604  0.2902 -0.2031
 1082loPI   C4A16978  14.367  15.564   6.203 -0.0068  0.2620  0.3655
 1082loPI   C5A16979  14.171  15.339   6.559  0.2241 -0.1197 -0.1700
 1082loPI   C6A16980  14.008  15.626   6.909  0.1033  0.1546  0.2707
 1082loPI   C1B16981  15.741  15.630   5.272 -0.1878 -0.2904 -0.2416
 1082loPI   C2B16982  15.475  15.609   5.658 -0.0093 -0.0555  0.2981
 1082loPI   C3B16983  15.137  15.638   5.987 -0.2434  0.1683 -0.3791
 1082loPI   C4B16984  15.106  15.711   6.416  0.0146 -0.1619  0.0339
 1083loPI    C116985   5.957   1.937   4.388  0.0675 -0.4545  0.0228
 1083loPI    C216986   5.684   1.927   4.095 -0.0431  0.0807  0.0979
 1083loPI    C316987   6.064   2.020   4.012 -0.0495  0.1141  0.1058
 1083loPI   PO416988   5.900   2.141   4.577  0.2848  0.0640 -0.1166
 1083loPI   GL116989   5.890   2.226   5.040 -0.0074  0.2222  0.2297
 1083loPI   GL216990   6.102   2.463   4.910  0.7665  0.0388  0.1306
 1083loPI   C1A16991   5.881   2.190   5.440  0.0049  0.2605 -0.0844
 1083loPI   C2A16992   5.925   2.048   5.924 -0.2377 -0.0728 -0.1197
 1083loPI   C3A16993   6.073   1.731   6.120 -0.1380  0.1255 -0.1527
 1083loPI   C4A16994   6.011   1.633   6.500 -0.1219 -0.1286  0.0315
 1083loPI   C5A16995   5.789   1.295   6.752  0.1202  0.1218 -0.3331
 1083loPI   C6A16996   5.764   1.080   7.226  0.2661 -0.2028 -0.0572
 1083loPI   C1B16997   6.069   2.619   5.300 -0.0847 -0.1104 -0.0930
 1083loPI   C2B16998   5.983   2.593   5.836 -0.1299 -0.0670  0.2278
 1083loPI   C3B16999   5.988   2.482   6.209  0.1002 -0.1453  0.3967
 1083loPI   C4B17000   5.844   2.083   6.442 -0.1415  0.0635  0.1897
 1084loPI    C117001  12.962  12.979   4.768  0.1664  0.1309  0.0907
 1084loPI    C217002  12.763  12.967   5.115  0.1037  0.0957  0.0538
 1084loPI    C317003  12.819  12.632   4.904 -0.0737  0.1561 -0.0913
 1084loPI   PO417004  13.013  13.265   4.783  0.1198  0.1347  0.3008
 1084loPI   GL117005  12.996  13.485   5.111  0.2691  0.1513 -0.1024
 1084loPI   GL217006  12.711  13.452   5.292  0.1000  0.0857 -0.2228
 1084loPI   C1A17007  13.141  13.206   5.377 -0.0783  0.1742 -0.1773
 1084loPI   C2A17008  13.513  12.856   5.379  0.1865 -0.4085 -0.0416
 1084loPI   C3A17009  13.650  12.927   5.792  0.0790 -0.3684  0.0984
 1084loPI   C4A17010  13.821  13.164   6.072 -0.1206  0.0358 -0.2784
 1084loPI   C5A17011  14.005  13.215   6.493 -0.0235 -0.1245  0.0292
 1084loPI   C6A17012  14.085  13.056   6.821  0.2220  0.1544  0.1185
 1084loPI   C1B17013  12.841  13.412   5.721  0.0147  0.0293 -0.1746
 1084loPI   C2B17014  12.904  13.348   6.210 -0.2110 -0.0180  0.2464
 1084loPI   C3B17015  13.114  13.273   6.578 -0.3032 -0.3220  0.0190
 1084loPI   C4B17016  13.113  13.586   6.984 -0.3558 -0.4145 -0.1460
 1085loPI    C117017   5.724  13.960   4.735  0.0675  0.0408 -0.1275
 1085loPI    C217018   5.342  13.881   4.646  0.0342 -0.0370  0.0785
 1085loPI    C317019   5.607  13.944   4.353 -0.1262 -0.0292 -0.0665
 1085loPI   PO417020   5.745  14.156   4.887 -0.3599  0.1380  0.0799
 1085loPI   GL117021   5.734  14.163   5.319 -0.2042  0.0764 -0.2132
 1085loPI   GL217022   5.568  14.440   5.429 -0.1578 -0.0581  0.2231
 1085loPI   C1A17023   5.534  13.971   5.748  0.1095  0.1208  0.2938
 1085loPI   C2A17024   5.489  13.891   6.161 -0.4138 -0.0077  0.0326
 1085loPI   C3A17025   5.386  13.752   6.570  0.0622 -0.0273  0.2726
 1085loPI   C4A17026   5.506  13.695   7.003 -0.2755  0.0128 -0.2930
 1085loPI   C5A17027   5.723  13.837   7.446 -0.1417  0.1384  0.2017
 1085loPI   C6A17028   5.915  13.943   7.751  0.2307 -0.1140  0.0852
 1085loPI   C1B17029   5.147  14.208   5.541 -0.0283 -0.3781  0.1142
 1085loPI   C2B17030   5.003  13.914   5.844  0.2312  0.2256  0.3500
 1085loPI   C3B17031   4.954  13.652   6.059 -0.3201  0.1492 -0.0099
 1085loPI   C4B17032   4.786  13.603   6.457 -0.0823 -0.0992  0.4084
 1086loPI    C117033   1.029   2.703   4.494 -0.2799 -0.1033 -0.1172
 1086loPI    C217034   0.870   3.068   4.453  0.2209  0.1515  0.1281
 1086loPI    C317035   1.075   2.905   4.151 -0.0432  0.0499  0.0016
 1086loPI   PO417036   1.143   2.704   4.725  0.0407  0.1320 -0.4140
 1086loPI   GL117037   1.132   2.719   5.165  0.1574 -0.1116 -0.1421
 1086loPI   GL217038   0.797   2.735   5.169  0.2608 -0.1298 -0.2572
 1086loPI   C1A17039   1.065   2.517   5.543  0.3521  0.1804  0.0926
 1086loPI   C2A17040   0.883   2.165   5.763 -0.0818  0.0985  0.0790
 1086loPI   C3A17041   0.710   2.025   6.113 -0.0390 -0.0609  0.1781
 1086loPI   C4A17042   0.642   2.111   6.563 -0.1012 -0.2607  0.1554
 1086loPI   C5A17043   0.447   2.317   6.833  0.3040 -0.0640  0.3145
 1086loPI   C6A17044   0.129   2.314   7.164  0.2393  0.1933 -0.1297
 1086loPI   C1B17045   0.807   2.959   5.523  0.1542 -0.2786  0.1162
 1086loPI   C2B17046   1.036   3.191   5.848  0.3451  0.0885  0.0991
 1086loPI   C3B17047   1.296   3.318   6.162  0.1896 -0.2289  0.1475
 1086loPI   C4B17048   1.531   3.408   6.431  0.0543 -0.0083 -0.1070
 1087loPI    C117049   5.424   1.099   4.639  0.2130 -0.1318  0.0142
 1087loPI    C217050   5.118   1.293   4.470  0.1845 -0.1073  0.0935
 1087loPI    C317051   5.393   1.115   4.241  0.2248  0.0484  0.0198
 1087loPI   PO417052   5.590   1.251   4.826  0.4440 -0.0307  0.1660
 1087loPI   GL117053   5.563   1.386   5.274 -0.1308 -0.2735 -0.2462
 1087loPI   GL217054   5.987   1.439   5.293 -0.2312  0.0870  0.1991
 1087loPI   C1A17055   5.656   1.382   5.668 -0.3593  0.1657 -0.1612
 1087loPI   C2A17056   5.602   1.277   6.103  0.2504  0.4020 -0.2160
 1087loPI   C3A17057   5.323   1.106   6.461  0.1848 -0.0295  0.1518
 1087loPI   C4A17058   5.426   0.933   6.807  0.0049 -0.0161  0.2210
 1087loPI   C5A17059   5.158   0.786   7.080  0.2144  0.1646  0.1041
 1087loPI   C6A17060   4.982   1.071   7.344 -0.0019 -0.1311  0.0275
 1087loPI   C1B17061   6.186   1.188   5.608  0.3474  0.0550 -0.4981
 1087loPI   C2B17062   6.156   1.253   6.123  0.3118  0.1994 -0.0430
 1087loPI   C3B17063   6.254   1.216   6.576  0.0358  0.0781 -0.0617
 1087loPI   C4B17064   6.592   1.323   6.798  0.0359  0.1884  0.1305
 1088loPI    C117065   6.925  12.647   4.953  0.0276 -0.0339  0.1087
 1088loPI    C217066   6.798  12.288   4.829  0.2043 -0.0676  0.0222
 1088loPI    C317067   6.840  12.587   4.566  0.0776  0.0111  0.0907
 1088loPI   PO417068   6.686  12.750   5.090 -0.0653 -0.2008  0.1098
 1088loPI   GL117069   6.609  12.679   5.393 -0.1060  0.2644  0.1468
 1088loPI   GL217070   6.313  12.692   5.523 -0.0676  0.0821  0.0988
 1088loPI   C1A17071   6.675  12.376   5.696 -0.0421  0.0711  0.0013
 1088loPI   C2A17072   6.572  12.412   6.090 -0.3043  0.0121  0.1448
 1088loPI   C3A17073   6.332  12.426   6.440  0.0194 -0.0826  0.2757
 1088loPI   C4A17074   6.147  12.245   6.915 -0.0643 -0.0966 -0.3128
 1088loPI   C5A17075   5.964  12.115   7.301  0.2181  0.1154 -0.1051
 1088loPI   C6A17076   6.273  12.043   7.703 -0.0867  0.3232  0.0127
 1088loPI   C1B17077   6.192  12.639   5.893 -0.0811 -0.1288  0.1310
 1088loPI   C2B17078   5.891  12.619   6.265 -0.2653  0.2431 -0.1103
 1088loPI   C3B17079   5.919  12.632   6.720  0.2691 -0.0213  0.3425
 1088loPI   C4B17080   5.914  12.682   7.132 -0.1316  0.2107 -0.0356
 1089loPI    C117081  16.155   5.716   4.921  0.1505 -0.0041  0.0165
 1089loPI    C217082  16.412   5.856   4.649  0.0408  0.1394 -0.0148
 1089loPI    C317083  16.021   5.925   4.608 -0.0069 -0.1016  0.0176
 1089loPI   PO417084  16.226   5.800   5.077  0.0252  0.1587  0.1260
 1089loPI   GL117085  16.075   5.992   5.453 -0.3233 -0.1084 -0.3300
 1089loPI   GL217086  16.373   5.767   5.540 -0.0225 -0.1451 -0.3188
 1089loPI   C1A17087  16.082   6.203   5.834 -0.0713  0.0669  0.3050
 1089loPI   C2A17088  16.121   6.389   6.183 -0.0693  0.1814 -0.2009
 1089loPI   C3A17089  16.221   6.462   6.586  0.0759 -0.1194  0.1276
 1089loPI   C4A17090  16.401   6.714   6.948 -0.0832 -0.2354 -0.2252
 1089loPI   C5A17091  16.703   6.849   7.120 -0.1352 -0.0340 -0.2664
 1089loPI   C6A17092  17.035   6.904   7.345  0.1298 -0.0305  0.0701
 1089loPI   C1B17093  16.553   5.597   5.934  0.0573  0.1718  0.5225
 1089loPI   C2B17094  16.767   5.134   6.119 -0.1053 -0.3094  0.1513
 1089loPI   C3B17095  16.746   4.931   6.590 -0.0788  0.3385  0.0020
 1089loPI   C4B17096  16.464   5.044   6.915 -0.2826  0.0663  0.2789
 1090loPI    C117097  11.834   5.027   4.329  0.3491  0.3457 -0.0064
 1090loPI    C217098  11.614   5.240   4.072 -0.0560  0.0162  0.0567
 1090loPI    C317099  11.864   4.959   3.936  0.0302  0.1176  0.0046
 1090loPI   PO417100  11.641   4.936   4.557 -0.4265  0.4614  0.1259
 1090loPI   GL117101  11.596   4.663   4.990 -0.0774  0.0619  0.0728
 1090loPI   GL217102  11.410   4.912   5.065  0.1938  0.0096  0.0464
 1090loPI   C1A17103  11.725   4.626   5.382  0.2444  0.3235  0.2461
 1090loPI   C2A17104  11.522   4.909   5.610 -0.1542  0.2935 -0.2208
 1090loPI   C3A17105  11.548   5.011   5.989 -0.1386 -0.0867  0.0534
 1090loPI   C4A17106  11.798   4.833   6.401  0.1265  0.3801  0.0696
 1090loPI   C5A17107  11.728   4.601   6.749  0.0529 -0.0185 -0.1719
 1090loPI   C6A17108  11.592   4.236   6.885 -0.2542  0.2241 -0.0160
 1090loPI   C1B17109  11.210   5.184   5.405  0.0284 -0.1548 -0.1012
 1090loPI   C2B17110  11.160   5.297   5.744  0.0182  0.2333  0.3576
 1090loPI   C3B17111  11.129   5.288   6.104 -0.2107  0.1835 -0.1166
 1090loPI   C4B17112  11.281   5.348   6.485  0.0994 -0.3264  0.1347
 1091loPI    C117113  11.028  16.529   4.275  0.0245  0.1668 -0.0743
 1091loPI    C217114  10.961  16.138   4.331  0.2106  0.1609  0.1216
 1091loPI    C317115  11.245  16.259   4.075 -0.0098  0.1738 -0.1210
 1091loPI   PO417116  11.073  16.665   4.449  0.1114 -0.1026 -0.2564
 1091loPI   GL117117  11.064  16.905   4.754  0.0381 -0.0530  0.0985
 1091loPI   GL217118  11.217  16.672   4.942  0.2129 -0.0385  0.1895
 1091loPI   C1A17119  11.245  17.184   4.974 -0.1237  0.1897  0.0211
 1091loPI   C2A17120  11.388  17.179   5.452 -0.2189  0.0128  0.1046
 1091loPI   C3A17121  11.427  17.211   5.861 -0.1453 -0.5085  0.1940
 1091loPI   C4A17122  11.546  17.069   6.216  0.1005  0.1034  0.2913
 1091loPI   C5A17123  11.423  17.156   6.598 -0.0294 -0.0363  0.3007
 1091loPI   C6A17124  11.472  17.282   7.137 -0.2835 -0.1192  0.0406
 1091loPI   C1B17125  11.177  16.716   5.341  0.1243  0.1702  0.0900
 1091loPI   C2B17126  11.354  16.715   5.777  0.3711 -0.0908  0.3001
 1091loPI   C3B17127  11.454  16.539   6.301  0.0421  0.1411  0.1195
 1091loPI   C4B17128  11.547  16.690   6.705  0.2852  0.0716  0.3746
 1092loPI    C117129   8.366   0.150   4.385  0.1353 -0.2134  0.0490
 1092loPI    C217130   8.319  -0.232   4.274  0.0543 -0.0822 -0.3857
 1092loPI    C317131   8.655  -0.036   4.180  0.2748 -0.1627  0.1980
 1092loPI   PO417132   8.388   0.176   4.622  0.2264  0.1419  0.0816
 1092loPI   GL117133   8.181   0.164   4.907 -0.1763 -0.1561 -0.2508
 1092loPI   GL217134   8.471   0.058   5.100  0.2045 -0.0544  0.1550
 1092loPI   C1A17135   8.203   0.182   5.469  0.0853 -0.0847 -0.4606
 1092loPI   C2A17136   8.297   0.105   5.996  0.0981 -0.4025  0.0665
 1092loPI   C3A17137   8.539   0.233   6.394  0.0855  0.2688  0.1039
 1092loPI   C4A17138   8.774  -0.097   6.551 -0.0990  0.0447 -0.0037
 1092loPI   C5A17139   8.965  -0.030   6.885  0.2034  0.0168  0.1674
 1092loPI   C6A17140   8.981  -0.357   7.173  0.1673  0.0123  0.0525
 1092loPI   C1B17141   8.687   0.173   5.444  0.2897 -0.2742 -0.2919
 1092loPI   C2B17142   8.777   0.172   5.921 -0.4046 -0.0298  0.1805
 1092loPI   C3B17143   9.026   0.245   6.318 -0.0585 -0.3405 -0.2523
 1092loPI   C4B17144   9.387   0.159   6.518 -0.1983  0.3081 -0.3553
 1093loPI    C117145  19.391  13.738   4.145  0.0459 -0.0504 -0.2904
 1093loPI    C217146  19.740  13.930   4.105 -0.0466  0.0899 -0.4352
 1093loPI    C317147  19.405  14.090   3.957 -0.1696 -0.0551 -0.3172
 1093loPI   PO417148  19.324  13.713   4.381 -0.1796 -0.0530 -0.1228
 1093loPI   GL117149  19.211  13.816   4.818 -0.0470  0.0033  0.0756
 1093loPI   GL217150  19.235  13.402   4.794 -0.3072 -0.2002 -0.2043
 1093loPI   C1A17151  19.232  13.633   5.275  0.1497 -0.1021  0.0953
 1093loPI   C2A17152  19.040  13.521   5.688  0.1806 -0.0698 -0.0336
 1093loPI   C3A17153  18.894  13.645   6.059  0.4330 -0.2309  0.0976
 1093loPI   C4A17154  18.882  13.859   6.554  0.3779 -0.1743 -0.0065
 1093loPI   C5A17155  18.877  13.791   6.968 -0.0134 -0.2400 -0.3316
 1093loPI   C6A17156  19.019  13.573   7.279  0.1120  0.1280  0.0599
 1093loPI   C1B17157  19.017  13.114   5.115  0.2459  0.1688 -0.3652
 1093loPI   C2B17158  19.078  13.027   5.572  0.0874 -0.1257 -0.1462
 1093loPI   C3B17159  19.055  13.063   5.992  0.0632  0.3185  0.5090
 1093loPI   C4B17160  19.189  13.314   6.351  0.2332  0.2577  0.1524
 1094loPI    C117161  12.989   5.557   4.485 -0.1951 -0.2952  0.1244
 1094loPI    C217162  12.768   5.531   4.153 -0.0635  0.3229 -0.0257
 1094loPI    C317163  13.151   5.418   4.147 -0.0932  0.2219 -0.0495
 1094loPI   PO417164  12.953   5.478   4.726  0.3839  0.1484  0.2276
 1094loPI   GL117165  12.666   5.406   5.064  0.1920  0.2144  0.0109
 1094loPI   GL217166  12.398   5.530   4.988 -0.1616 -0.0239  0.3685
 1094loPI   C1A17167  12.690   5.509   5.485  0.3332  0.4102  0.0818
 1094loPI   C2A17168  12.495   5.535   5.956 -0.0742 -0.0672  0.2706
 1094loPI   C3A17169  12.450   5.572   6.381 -0.3287  0.1277  0.1601
 1094loPI   C4A17170  12.531   5.428   6.748 -0.0725 -0.2351  0.2172
 1094loPI   C5A17171  12.239   5.524   7.081 -0.0587  0.1195  0.4370
 1094loPI   C6A17172  11.908   5.381   7.322  0.3130 -0.0916 -0.0387
 1094loPI   C1B17173  12.206   5.624   5.356 -0.3029  0.0420 -0.2199
 1094loPI   C2B17174  12.019   5.686   5.889 -0.0550  0.0533  0.0539
 1094loPI   C3B17175  12.076   5.845   6.227 -0.2031 -0.1681  0.3293
 1094loPI   C4B17176  11.998   5.773   6.677  0.0471  0.1814 -0.0279
 1095loPI    C117177  12.889  10.242   4.421 -0.1046 -0.1787 -0.0275
 1095loPI    C217178  12.528  10.373   4.534  0.0395  0.2907 -0.0893
 1095loPI    C317179  12.580  10.221   4.168 -0.0701  0.3358 -0.1240
 1095loPI   PO417180  13.106  10.177   4.638 -0.1232  0.0661 -0.0021
 1095loPI   GL117181  13.277  10.164   5.020  0.1372  0.1164 -0.3839
 1095loPI   GL217182  13.651  10.235   5.161 -0.2038 -0.2107  0.0749
 1095loPI   C1A17183  13.182  10.217   5.418  0.1237  0.1800  0.0449
 1095loPI   C2A17184  13.347  10.327   5.805 -0.0105  0.0137  0.0926
 1095loPI   C3A17185  13.504  10.482   6.231 -0.2695 -0.2005 -0.0304
 1095loPI   C4A17186  13.717  10.502   6.620  0.0802 -0.1848 -0.1548
 1095loPI   C5A17187  13.824  10.528   7.057  0.0609  0.2343 -0.0276
 1095loPI   C6A17188  13.634  10.184   7.201  0.0064 -0.0174  0.0312
 1095loPI   C1B17189  13.798  10.284   5.563  0.1959  0.1741 -0.1727
 1095loPI   C2B17190  13.834  10.217   5.992 -0.0578  0.3409  0.1012
 1095loPI   C3B17191  13.915  10.227   6.314  0.0231  0.0954  0.0859
 1095loPI   C4B17192  14.172  10.362   6.652 -0.0920 -0.0855 -0.0619
 1096loPI    C117193  15.298   2.945   4.987  0.1282 -0.0077  0.1031
 1096loPI    C217194  15.649   2.764   4.926  0.0226 -0.1559 -0.0728
 1096loPI    C317195  15.527   3.054   4.678  0.0873 -0.0010  0.0749
 1096loPI   PO417196  15.135   2.773   5.000 -0.1521  0.2620 -0.2045
 1096loPI   GL117197  15.237   2.459   5.282 -0.1865 -0.1500 -0.0272
 1096loPI   GL217198  15.506   2.719   5.379  0.1830  0.1028  0.2872
 1096loPI   C1A17199  15.205   2.333   5.692  0.2296  0.0076  0.0809
 1096loPI   C2A17200  15.444   2.055   5.953  0.0029  0.1012  0.0536
 1096loPI   C3A17201  15.448   1.884   6.406  0.2794 -0.0901 -0.1178
 1096loPI   C4A17202  15.634   1.862   6.755 -0.0824 -0.0866 -0.1327
 1096loPI   C5A17203  15.821   1.840   7.205  0.0262 -0.0152  0.1572
 1096loPI   C6A17204  15.751   2.097   7.612  0.0229  0.1426  0.0329
 1096loPI   C1B17205  15.647   2.482   5.648 -0.2991  0.1630 -0.0369
 1096loPI   C2B17206  15.718   2.424   6.130 -0.1216  0.1034 -0.2260
 1096loPI   C3B17207  15.876   2.402   6.469 -0.0192 -0.0204 -0.4742
 1096loPI   C4B17208  15.982   2.242   7.018  0.0662  0.1331  0.0554
 1097loPI    C117209  15.125  16.344   3.897  0.0981  0.0195 -0.3077
 1097loPI    C217210  14.914  16.680   3.947  0.3013  0.0907  0.1198
 1097loPI    C317211  15.281  16.697   3.788  0.1570  0.0170 -0.2319
 1097loPI   PO417212  15.119  16.234   4.072  0.2454  0.0699 -0.0165
 1097loPI   GL117213  15.075  16.271   4.513 -0.2035  0.0574  0.1266
 1097loPI   GL217214  15.144  16.037   4.699  0.1505 -0.1166 -0.0328
 1097loPI   C1A17215  15.125  16.602   4.802 -0.3000  0.1695 -0.1737
 1097loPI   C2A17216  15.153  16.842   5.129  0.1870  0.0212  0.1380
 1097loPI   C3A17217  15.140  16.790   5.540 -0.0537 -0.2740  0.1526
 1097loPI   C4A17218  15.263  16.638   5.872 -0.1218  0.0531 -0.0673
 1097loPI   C5A17219  15.229  16.544   6.369 -0.0581  0.0794  0.1035
 1097loPI   C6A17220  15.515  16.366   6.518 -0.2694 -0.1092 -0.0392
 1097loPI   C1B17221  14.765  15.927   4.988 -0.3511 -0.2185 -0.0760
 1097loPI   C2B17222  14.444  15.627   5.237  0.2411  0.2363 -0.1936
 1097loPI   C3B17223  14.078  15.661   5.574  0.0857  0.0231 -0.0092
 1097loPI   C4B17224  13.638  15.764   5.692 -0.3086 -0.0961 -0.2922
 1098loPI    C117225   0.131   2.528   4.482 -0.3476  0.1697 -0.0893
 1098loPI    C217226  -0.067   2.288   4.231  0.0694 -0.0375 -0.2305
 1098loPI    C317227   0.060   2.646   4.106 -0.0670  0.0254 -0.1910
 1098loPI   PO417228   0.257   2.355   4.585 -0.0332  0.0610  0.1181
 1098loPI   GL117229   0.306   2.402   5.031 -0.1608 -0.0764 -0.1296
 1098loPI   GL217230  -0.006   2.416   5.049 -0.2472  0.0914 -0.0100
 1098loPI   C1A17231   0.577   2.466   5.497  0.0771  0.0674  0.2449
 1098loPI   C2A17232   0.717   2.611   5.867  0.2695  0.1981  0.1106
 1098loPI   C3A17233   0.919   2.448   6.269 -0.1873 -0.0283 -0.1365
 1098loPI   C4A17234   1.098   2.509   6.735  0.0167  0.1393 -0.0782
 1098loPI   C5A17235   1.392   2.747   7.027  0.3354 -0.1113 -0.2379
 1098loPI   C6A17236   1.410   3.079   7.159 -0.3090 -0.0162 -0.1070
 1098loPI   C1B17237   0.098   2.378   5.512 -0.1992 -0.0001 -0.2945
 1098loPI   C2B17238   0.245   2.370   5.842 -0.1892  0.0747 -0.0015
 1098loPI   C3B17239   0.346   2.447   6.265  0.1837 -0.0743 -0.0335
 1098loPI   C4B17240   0.566   2.751   6.586  0.1998  0.0497  0.0916
 1099loPI    C117241  15.932   9.066   4.886 -0.2798 -0.4387 -0.1158
 1099loPI    C217242  15.751   9.163   4.543 -0.1122  0.0342 -0.0771
 1099loPI    C317243  16.134   9.049   4.541 -0.1454 -0.0787 -0.0589
 1099loPI   PO417244  15.727   9.123   5.076 -0.1622  0.0224 -0.1298
 1099loPI   GL117245  15.473   9.021   5.300 -0.2051 -0.0364 -0.0806
 1099loPI   GL217246  15.444   9.479   5.330 -0.0212 -0.0542  0.0631
 1099loPI   C1A17247  15.098   9.018   5.577 -0.1730 -0.1736  0.4571
 1099loPI   C2A17248  14.790   8.835   5.842 -0.2705  0.2875 -0.4032
 1099loPI   C3A17249  14.572   8.892   6.171 -0.0672  0.0421  0.0366
 1099loPI   C4A17250  14.471   9.094   6.556  0.0043  0.0397 -0.0812
 1099loPI   C5A17251  14.448   9.120   6.943  0.1427  0.0276  0.0619
 1099loPI   C6A17252  14.685   9.322   7.241 -0.1255 -0.0917 -0.0731
 1099loPI   C1B17253  15.556   9.728   5.685  0.3806 -0.0579 -0.3550
 1099loPI   C2B17254  15.576   9.988   6.021  0.0054  0.5477 -0.2953
 1099loPI   C3B17255  15.703  10.247   6.385  0.1868 -0.1716  0.0770
 1099loPI   C4B17256  15.593  10.414   6.739 -0.2509  0.1967  0.1794
 1100loPI    C117257   4.145   1.849   4.790  0.2771 -0.1129  0.0026
 1100loPI    C217258   3.836   1.635   4.651  0.1176  0.0446  0.1099
 1100loPI    C317259   4.032   1.885   4.408  0.1159 -0.0032  0.0592
 1100loPI   PO417260   4.212   1.685   5.011  0.0023  0.2212  0.3146
 1100loPI   GL117261   4.363   1.427   5.297 -0.2041 -0.1346 -0.0873
 1100loPI   GL217262   4.262   1.689   5.534 -0.0170 -0.0301  0.1188
 1100loPI   C1A17263   4.647   1.270   5.628 -0.2600  0.3263  0.0620
 1100loPI   C2A17264   4.730   0.967   5.910 -0.2005  0.2481 -0.2066
 1100loPI   C3A17265   4.865   0.918   6.251 -0.0654  0.1621 -0.0061
 1100loPI   C4A17266   4.898   1.133   6.730  0.0568  0.1236  0.0370
 1100loPI   C5A17267   4.788   1.428   6.997  0.1527  0.1380 -0.0684
 1100loPI   C6A17268   4.714   1.807   7.204 -0.1632  0.0764  0.0695
 1100loPI   C1B17269   3.966   1.665   5.914  0.0053 -0.2458 -0.3647
 1100loPI   C2B17270   3.801   1.546   6.156  0.3320  0.2137 -0.0108
 1100loPI   C3B17271   3.762   1.364   6.515  0.1025  0.2340  0.3740
 1100loPI   C4B17272   3.970   1.071   6.770 -0.1624  0.0507 -0.0349
 1101loPI    C117273   3.422   2.450   5.186  0.0855  0.0495  0.2095
 1101loPI    C217274   3.316   2.831   5.123 -0.2056 -0.0552  0.0490
 1101loPI    C317275   3.488   2.620   4.830 -0.2311 -0.1079  0.0719
 1101loPI   PO417276   3.290   2.360   5.387  0.3301 -0.0671  0.1170
 1101loPI   GL117277   3.288   2.256   5.759  0.1810  0.2364 -0.2768
 1101loPI   GL217278   3.413   1.952   5.765 -0.1510 -0.3387 -0.0249
 1101loPI   C1A17279   3.367   2.530   6.127  0.2392  0.1179  0.1356
 1101loPI   C2A17280   3.552   2.428   6.579  0.2252 -0.2502 -0.1361
 1101loPI   C3A17281   3.521   2.781   6.769 -0.0527  0.1845 -0.0337
 1101loPI   C4A17282   3.222   2.925   7.092  0.0417 -0.0758 -0.0214
 1101loPI   C5A17283   2.838   3.011   7.057 -0.1305  0.0379  0.0902
 1101loPI   C6A17284   2.737   3.322   6.683  0.0745 -0.2203  0.2115
 1101loPI   C1B17285   3.669   2.018   6.109  0.2280 -0.2124  0.2174
 1101loPI   C2B17286   3.707   1.905   6.493 -0.1660 -0.3690 -0.1366
 1101loPI   C3B17287   3.404   1.699   6.884  0.2198  0.0284  0.0420
 1101loPI   C4B17288   3.323   1.848   7.278 -0.1917 -0.1259 -0.2165
 1102loPI    C117289   4.336   6.614   4.677  0.1032 -0.1238  0.0585
 1102loPI    C217290   4.463   6.345   4.410  0.0218  0.0240 -0.1317
 1102loPI    C317291   4.457   6.733   4.315 -0.1492  0.0630  0.0328
 1102loPI   PO417292   4.464   6.571   4.896  0.0184 -0.2876  0.0640
 1102loPI   GL117293   4.540   6.823   5.211  0.1746 -0.0892 -0.0565
 1102loPI   GL217294   4.233   6.866   5.423 -0.0985 -0.0263  0.0642
 1102loPI   C1A17295   4.860   6.871   5.576 -0.1537 -0.1082 -0.1539
 1102loPI   C2A17296   5.077   7.099   5.876 -0.0118 -0.1578 -0.2065
 1102loPI   C3A17297   5.006   7.277   6.352 -0.2761 -0.3084 -0.3384
 1102loPI   C4A17298   4.950   7.116   6.806 -0.0348 -0.1375 -0.3874
 1102loPI   C5A17299   5.067   7.045   7.149  0.0841  0.1168 -0.2829
 1102loPI   C6A17300   5.150   7.188   7.430 -0.0382  0.2388  0.0292
 1102loPI   C1B17301   4.402   6.705   5.829  0.0158  0.2604  0.1228
 1102loPI   C2B17302   4.762   6.690   6.069  0.2153 -0.1370  0.1380
 1102loPI   C3B17303   5.057   6.724   6.456 -0.2181 -0.4788 -0.0640
 1102loPI   C4B17304   5.415   6.961   6.570 -0.1387 -0.1129 -0.1675
 1103loPI    C117305   5.987   3.266   4.433  0.0128  0.0072 -0.1534
 1103loPI    C217306   6.238   3.155   4.142 -0.0009  0.2056 -0.2426
 1103loPI    C317307   6.029   3.494   4.107 -0.0875  0.1732 -0.0516
 1103loPI   PO417308   6.131   3.258   4.697  0.2430 -0.2358 -0.0076
 1103loPI   GL117309   6.495   3.293   5.021 -0.0051 -0.0395  0.2011
 1103loPI   GL217310   6.286   3.526   5.163 -0.0192  0.0165 -0.2605
 1103loPI   C1A17311   6.679   3.188   5.442  0.1250  0.0839  0.1329
 1103loPI   C2A17312   6.661   3.217   5.842 -0.3478 -0.0549  0.0508
 1103loPI   C3A17313   6.942   2.973   6.138 -0.2786  0.4672  0.0887
 1103loPI   C4A17314   6.924   2.824   6.460 -0.3624  0.2979  0.0431
 1103loPI   C5A17315   6.867   2.689   6.912 -0.0476 -0.1980 -0.3649
 1103loPI   C6A17316   6.629   2.802   7.294 -0.1495  0.1239 -0.1175
 1103loPI   C1B17317   6.267   3.600   5.591 -0.0102 -0.1286  0.1536
 1103loPI   C2B17318   6.300   3.599   5.987 -0.2935 -0.0322  0.0220
 1103loPI   C3B17319   6.491   3.317   6.336  0.0760 -0.3078 -0.2052
 1103loPI   C4B17320   6.571   3.048   6.794 -0.0036  0.1610  0.1514
 1104loPI    C117321   0.737   0.952   4.432 -0.0211  0.0320 -0.0850
 1104loPI    C217322   0.741   0.617   4.213  0.3935 -0.1703  0.2166
 1104loPI    C317323   0.918   0.948   4.075 -0.1400 -0.0216 -0.1453
 1104loPI   PO417324   0.760   0.802   4.718  0.1376 -0.1356  0.2737
 1104loPI   GL117325   0.616   0.979   5.093 -0.2447  0.0734  0.1713
 1104loPI   GL217326   0.719   0.662   5.207 -0.3874  0.0823 -0.0821
 1104loPI   C1A17327   0.516   1.143   5.544 -0.0970  0.0562 -0.4056
 1104loPI   C2A17328   0.375   0.996   5.952 -0.1665  0.0891  0.1117
 1104loPI   C3A17329   0.447   1.019   6.371 -0.0969 -0.2754 -0.1868
 1104loPI   C4A17330   0.311   1.491   6.685  0.1223  0.3306 -0.0553
 1104loPI   C5A17331   0.088   1.934   6.800 -0.0626  0.3898  0.0650
 1104loPI   C6A17332  -0.356   2.278   6.886 -0.0432 -0.2971  0.0159
 1104loPI   C1B17333   0.277   0.717   5.365 -0.3040  0.0563 -0.1275
 1104loPI   C2B17334  -0.002   0.896   5.602  0.0830  0.1716 -0.0505
 1104loPI   C3B17335  -0.376   1.196   5.902 -0.0391 -0.0860 -0.1184
 1104loPI   C4B17336  -0.350   1.651   5.755 -0.0688  0.1368 -0.0871
 1105loPI    C117337   3.932   7.916   4.655  0.2058  0.0518 -0.0998
 1105loPI    C217338   3.747   8.270   4.686  0.2620  0.0829 -0.1191
 1105loPI    C317339   3.781   8.093   4.329 -0.0486 -0.0945 -0.0639
 1105loPI   PO417340   4.099   7.860   4.906 -0.2141 -0.0602 -0.0342
 1105loPI   GL117341   4.072   7.879   5.356  0.0402 -0.0739  0.1840
 1105loPI   GL217342   4.123   8.144   5.574 -0.3117 -0.2328  0.1662
 1105loPI   C1A17343   4.083   7.687   5.822  0.2615  0.1782 -0.2521
 1105loPI   C2A17344   4.033   7.492   6.244 -0.0623 -0.1836  0.0918
 1105loPI   C3A17345   4.101   7.299   6.608  0.0437  0.0293  0.3174
 1105loPI   C4A17346   4.021   7.074   6.957  0.2497  0.0832 -0.2086
 1105loPI   C5A17347   4.288   6.844   7.204  0.0681  0.0768 -0.0432
 1105loPI   C6A17348   4.416   6.809   7.644 -0.0327 -0.1393 -0.0355
 1105loPI   C1B17349   4.569   8.319   5.680  0.0743 -0.2823  0.4456
 1105loPI   C2B17350   4.913   8.648   5.864 -0.0273  0.1792 -0.0688
 1105loPI   C3B17351   4.910   8.704   6.275  0.1774 -0.1282 -0.0138
 1105loPI   C4B17352   4.880   8.594   6.698  0.2086  0.0684 -0.0959
 1106loPI    C117353   3.962  12.964   4.870  0.2853  0.0269 -0.2874
 1106loPI    C217354   3.641  13.180   4.768  0.0673 -0.2123 -0.1227
 1106loPI    C317355   3.818  12.945   4.497  0.0438 -0.1548 -0.1881
 1106loPI   PO417356   4.051  13.188   5.119 -0.0131  0.1240  0.2046
 1106loPI   GL117357   3.759  13.336   5.215 -0.3825  0.0574 -0.3069
 1106loPI   GL217358   3.524  13.298   5.500 -0.0681  0.3443  0.0158
 1106loPI   C1A17359   3.957  13.467   5.695  0.0943  0.1961 -0.1280
 1106loPI   C2A17360   4.116  13.646   6.118 -0.0726 -0.2652  0.0308
 1106loPI   C3A17361   4.321  13.537   6.495  0.3048  0.0389 -0.5396
 1106loPI   C4A17362   4.507  13.544   6.853  0.0364  0.0397 -0.2461
 1106loPI   C5A17363   4.640  13.678   7.247 -0.0378  0.1990  0.0550
 1106loPI   C6A17364   4.764  14.066   7.404  0.0855  0.3915  0.2580
 1106loPI   C1B17365   3.553  13.142   5.948 -0.0012  0.2628  0.0949
 1106loPI   C2B17366   3.540  12.962   6.384  0.4196 -0.1515  0.0368
 1106loPI   C3B17367   3.471  12.619   6.632 -0.2611 -0.1894 -0.0970
 1106loPI   C4B17368   3.658  12.242   6.771 -0.0055  0.0494 -0.1198
 1107loPI    C117369   7.937  15.790   4.670 -0.0911 -0.2376  0.1063
 1107loPI    C217370   7.801  15.736   4.298  0.0477 -0.0915  0.0333
 1107loPI    C317371   7.547  15.836   4.591  0.0164  0.3381 -0.1331
 1107loPI   PO417372   8.138  15.954   4.685 -0.0363  0.3497  0.0936
 1107loPI   GL117373   8.416  15.888   5.068 -0.0817 -0.1253 -0.0876
 1107loPI   GL217374   8.473  16.265   5.061  0.1558 -0.0537  0.3519
 1107loPI   C1A17375   8.534  15.998   5.514  0.0431 -0.0519 -0.1874
 1107loPI   C2A17376   8.511  16.047   5.979 -0.2171 -0.0779 -0.3731
 1107loPI   C3A17377   8.541  16.130   6.423  0.2084  0.0474  0.0033
 1107loPI   C4A17378   8.581  15.719   6.657 -0.0188  0.2267  0.0395
 1107loPI   C5A17379   8.439  15.307   6.760  0.0965 -0.2396 -0.1334
 1107loPI   C6A17380   8.485  14.871   6.886 -0.1593 -0.0858 -0.1290
 1107loPI   C1B17381   8.729  16.560   5.389  0.0374  0.1695  0.2391
 1107loPI   C2B17382   8.943  16.366   5.765  0.2371 -0.0698  0.1570
 1107loPI   C3B17383   9.009  16.234   6.242  0.2056 -0.1800  0.2452
 1107loPI   C4B17384   8.979  15.972   6.578 -0.0237  0.0908 -0.2438
 1108loPI    C117385   1.573  14.332   4.337 -0.0803 -0.0068 -0.0185
 1108loPI    C217386   1.233  14.417   4.145 -0.0477  0.1741  0.0020
 1108loPI    C317387   1.481  14.140   3.998 -0.2336 -0.0057  0.0221
 1108loPI   PO417388   1.500  14.312   4.661 -0.0605  0.1546  0.0506
 1108loPI   GL117389   1.410  14.203   5.125  0.0964  0.1443 -0.2813
 1108loPI   GL217390   1.243  14.500   5.066  0.2663 -0.2246 -0.0891
 1108loPI   C1A17391   1.372  14.340   5.583 -0.0426  0.3090 -0.2256
 1108loPI   C2A17392   1.439  14.327   5.964 -0.0206 -0.0002  0.0970
 1108loPI   C3A17393   1.160  14.402   6.225  0.3471 -0.0236  0.0819
 1108loPI   C4A17394   1.058  14.259   6.621  0.0585  0.0168  0.0616
 1108loPI   C5A17395   0.923  14.021   6.985 -0.3341 -0.0720 -0.2619
 1108loPI   C6A17396   0.715  13.833   7.168  0.0861 -0.0152 -0.0701
 1108loPI   C1B17397   1.001  14.685   5.434 -0.1158  0.2335 -0.0546
 1108loPI   C2B17398   0.971  14.794   5.876 -0.2109 -0.2641 -0.2698
 1108loPI   C3B17399   0.769  14.686   6.150 -0.4990 -0.1632  0.2569
 1108loPI   C4B17400   0.795  14.654   6.556  0.4436  0.2113  0.0454
 1109loPI    C117401   2.493  17.974   4.136 -0.0140 -0.0399 -0.2312
 1109loPI    C217402   2.863  17.920   4.277 -0.0692  0.1875  0.0103
 1109loPI    C317403   2.805  17.979   3.886  0.1203 -0.1152 -0.0673
 1109loPI   PO417404   2.432  18.181   4.408  0.0325 -0.3546  0.3480
 1109loPI   GL117405   2.603  18.371   4.833  0.0431 -0.0321  0.4917
 1109loPI   GL217406   2.867  18.312   4.772  0.1501 -0.1664  0.2380
 1109loPI   C1A17407   2.516  18.588   5.134  0.5310  0.0664  0.0982
 1109loPI   C2A17408   2.555  18.953   5.498  0.0499 -0.1191  0.4533
 1109loPI   C3A17409   2.722  19.079   5.868  0.1485 -0.2498 -0.1971
 1109loPI   C4A17410   2.873  19.426   6.033  0.2371  0.3370  0.2285
 1109loPI   C5A17411   2.793  19.333   6.490  0.0858 -0.0804  0.3323
 1109loPI   C6A17412   2.779  19.309   6.896 -0.0592 -0.2778 -0.1656
 1109loPI   C1B17413   2.923  18.311   5.265  0.0571 -0.0899 -0.1051
 1109loPI   C2B17414   2.663  18.285   5.809  0.4930 -0.1074 -0.0630
 1109loPI   C3B17415   2.371  18.349   5.949 -0.2138  0.1845  0.0300
 1109loPI   C4B17416   1.956  18.159   5.815  0.0353  0.1426 -0.4223
 1110loPI    C117417   1.561  10.522   4.847  0.0957  0.1074  0.0528
 1110loPI    C217418   1.329  10.370   4.559 -0.0112  0.1945  0.0919
 1110loPI    C317419   1.662  10.569   4.464  0.0966 -0.0079  0.0384
 1110loPI   PO417420   1.315  10.616   5.078  0.2559  0.0147 -0.1994
 1110loPI   GL117421   1.140  10.684   5.492 -0.0835 -0.1260  0.0199
 1110loPI   GL217422   1.132  10.322   5.446  0.2916  0.1095 -0.2002
 1110loPI   C1A17423   1.107  11.010   5.721 -0.1033  0.0982 -0.1889
 1110loPI   C2A17424   1.198  11.428   5.926  0.1635 -0.2768 -0.3482
 1110loPI   C3A17425   1.326  11.427   6.329 -0.1491 -0.0038 -0.0391
 1110loPI   C4A17426   1.253  11.244   6.770  0.2551 -0.0086  0.1562
 1110loPI   C5A17427   0.920  11.196   7.075 -0.0821 -0.0064  0.0481
 1110loPI   C6A17428   0.826  11.273   7.477  0.0260  0.0250  0.2643
 1110loPI   C1B17429   1.072  10.430   5.927  0.0186 -0.1152  0.0456
 1110loPI   C2B17430   0.864  10.593   6.338 -0.2378  0.0400 -0.5485
 1110loPI   C3B17431   0.690  10.718   6.713 -0.0884  0.3731 -0.1862
 1110loPI   C4B17432   0.827  10.737   7.169  0.2282  0.1437 -0.0273
 1111loPI    C117433  12.260   6.711   4.546  0.2612  0.4000 -0.0226
 1111loPI    C217434  11.940   6.787   4.318  0.0580  0.0207  0.1275
 1111loPI    C317435  12.303   6.766   4.152  0.0052  0.4204 -0.0494
 1111loPI   PO417436  12.155   6.523   4.758  0.0221 -0.2705 -0.1608
 1111loPI   GL117437  11.917   6.756   5.171 -0.0773  0.1754 -0.0327
 1111loPI   GL217438  11.626   6.621   5.242 -0.1806 -0.0042  0.4406
 1111loPI   C1A17439  12.095   6.656   5.585  0.1343  0.2852  0.1654
 1111loPI   C2A17440  12.300   6.705   5.920 -0.0694 -0.1585 -0.3587
 1111loPI   C3A17441  12.540   6.648   6.294 -0.3367 -0.0932 -0.3114
 1111loPI   C4A17442  12.495   6.607   6.756  0.1127 -0.1759  0.0627
 1111loPI   C5A17443  12.371   6.733   7.120 -0.1269  0.1628  0.1616
 1111loPI   C6A17444  12.551   6.676   7.524 -0.0624 -0.0673  0.1125
 1111loPI   C1B17445  11.614   6.577   5.686 -0.0198 -0.1021 -0.3081
 1111loPI   C2B17446  11.587   6.652   6.132  0.1246  0.0530 -0.1631
 1111loPI   C3B17447  11.712   6.729   6.608 -0.1040  0.2298  0.1070
 1111loPI   C4B17448  11.825   7.053   6.862  0.1284  0.2263  0.0873
 1112loPI    C117449   0.705   7.146   4.772 -0.0924  0.0012  0.0507
 1112loPI    C217450   0.668   6.971   4.414  0.0303  0.0129  0.0320
 1112loPI    C317451   0.745   7.363   4.438  0.0292  0.0107  0.0713
 1112loPI   PO417452   0.774   6.988   4.918  0.1035  0.2862  0.0259
 1112loPI   GL117453   0.950   7.039   5.301 -0.0037  0.2518 -0.0900
 1112loPI   GL217454   1.239   7.159   5.476 -0.0039 -0.0102 -0.0419
 1112loPI   C1A17455   0.615   6.965   5.593 -0.1819  0.0132 -0.1924
 1112loPI   C2A17456   0.316   6.767   5.794 -0.0076  0.1076 -0.3184
 1112loPI   C3A17457  -0.018   6.788   6.199 -0.1986 -0.1571 -0.0166
 1112loPI   C4A17458  -0.208   6.981   6.665 -0.0165 -0.0587  0.3818
 1112loPI   C5A17459  -0.270   7.222   7.099  0.0087 -0.0488 -0.1367
 1112loPI   C6A17460  -0.389   7.567   7.349 -0.0297 -0.3826  0.3219
 1112loPI   C1B17461   1.103   6.884   5.818 -0.0345  0.0573 -0.1546
 1112loPI   C2B17462   1.281   6.464   6.039  0.5810 -0.1914  0.2768
 1112loPI   C3B17463   1.099   6.267   6.273 -0.1431 -0.0006 -0.2976
 1112loPI   C4B17464   0.786   6.346   6.537  0.0975 -0.3278 -0.2782
 1113loPI    C117465  14.133  10.358   4.694  0.1634 -0.0228  0.0702
 1113loPI    C217466  13.890  10.272   4.387  0.3407 -0.1912 -0.0253
 1113loPI    C317467  14.083  10.623   4.399  0.1582 -0.0909  0.0096
 1113loPI   PO417468  14.202  10.099   4.776  0.1605 -0.1937 -0.2549
 1113loPI   GL117469  14.099   9.955   5.097  0.0760  0.0795  0.0394
 1113loPI   GL217470  13.935   9.762   5.255  0.0821  0.0679  0.4762
 1113loPI   C1A17471  14.377  10.011   5.519  0.1020  0.3370  0.2906
 1113loPI   C2A17472  14.528   9.832   5.891  0.3867  0.1558 -0.1123
 1113loPI   C3A17473  14.886   9.780   6.137 -0.0268  0.0220 -0.5092
 1113loPI   C4A17474  15.027   9.642   6.518  0.1013 -0.2381  0.1938
 1113loPI   C5A17475  14.950   9.644   7.025  0.0423 -0.0042 -0.0843
 1113loPI   C6A17476  14.938   9.675   7.510  0.2202 -0.2429  0.0197
 1113loPI   C1B17477  13.946   9.811   5.785 -0.0942  0.0457 -0.5177
 1113loPI   C2B17478  13.804   9.726   6.191  0.6195 -0.0317  0.2133
 1113loPI   C3B17479  13.554   9.431   6.483  0.0547 -0.3190  0.1978
 1113loPI   C4B17480  13.547   9.424   6.840 -0.2713 -0.1963 -0.3558
 1114loPI    C117481  12.564  15.031   4.722  0.0541 -0.0669  0.0400
 1114loPI    C217482  12.382  14.833   4.426 -0.0191 -0.0270  0.0582
 1114loPI    C317483  12.443  15.227   4.395 -0.0854 -0.0112  0.1242
 1114loPI   PO417484  12.720  14.800   4.823  0.0747  0.1130 -0.1068
 1114loPI   GL117485  12.671  14.530   5.195 -0.3413 -0.1450  0.3332
 1114loPI   GL217486  12.476  14.720   5.268 -0.2567  0.2267 -0.0178
 1114loPI   C1A17487  12.595  14.218   5.450 -0.2745 -0.1288  0.0984
 1114loPI   C2A17488  12.740  14.058   5.854 -0.2554  0.0626 -0.2408
 1114loPI   C3A17489  12.658  14.108   6.323  0.1510 -0.0750 -0.2405
 1114loPI   C4A17490  12.449  14.058   6.706  0.1352  0.3527 -0.3215
 1114loPI   C5A17491  12.160  13.747   7.066 -0.0120  0.0113 -0.0546
 1114loPI   C6A17492  11.802  13.491   6.917 -0.0541  0.0327 -0.2449
 1114loPI   C1B17493  12.147  14.760   5.618  0.1015  0.1799 -0.1009
 1114loPI   C2B17494  11.986  14.692   6.004 -0.2947  0.1241  0.0553
 1114loPI   C3B17495  12.005  14.891   6.473  0.1051  0.1414  0.2096
 1114loPI   C4B17496  12.161  15.285   6.550 -0.1131  0.0137 -0.5414
 1115loPI    C117497  13.399   0.615   4.023 -0.2701  0.0217 -0.1645
 1115loPI    C217498  13.179   0.337   3.838 -0.2511 -0.0594 -0.0662
 1115loPI    C317499  13.460   0.228   4.100  0.1941  0.0204 -0.4947
 1115loPI   PO417500  13.234   0.752   4.209  0.0209  0.1931 -0.2429
 1115loPI   GL117501  13.315   0.857   4.705  0.2423 -0.1014  0.1396
 1115loPI   GL217502  13.248   0.526   4.682  0.2612 -0.1346  0.0495
 1115loPI   C1A17503  13.476   0.712   5.109  0.0571  0.2917  0.0090
 1115loPI   C2A17504  13.618   0.809   5.472  0.3327 -0.1402  0.1035
 1115loPI   C3A17505  13.741   0.715   5.843 -0.2704 -0.1268  0.0312
 1115loPI   C4A17506  14.149   0.724   6.110 -0.0128  0.0633 -0.0398
 1115loPI   C5A17507  14.327   0.443   6.447  0.4700 -0.0751 -0.0769
 1115loPI   C6A17508  14.216   0.383   6.882 -0.2247  0.3597  0.0955
 1115loPI   C1B17509  13.083   0.353   5.073 -0.0380 -0.1758 -0.3360
 1115loPI   C2B17510  12.931   0.226   5.550 -0.0401  0.1196 -0.3194
 1115loPI   C3B17511  12.897   0.173   6.006 -0.2432  0.1476  0.3560
 1115loPI   C4B17512  12.792   0.080   6.367 -0.2370  0.0678  0.2743
 1116loPI    C117513  14.374  15.173   4.471 -0.1596 -0.0183 -0.0370
 1116loPI    C217514  14.124  15.467   4.369 -0.0894  0.0268 -0.0794
 1116loPI    C317515  14.058  15.095   4.239 -0.2269  0.0066  0.0459
 1116loPI   PO417516  14.620  15.257   4.500  0.0683 -0.0380 -0.0973
 1116loPI   GL117517  14.849  15.498   4.813  0.3013 -0.1065 -0.0786
 1116loPI   GL217518  15.148  15.295   4.749 -0.0529  0.3054  0.1090
 1116loPI   C1A17519  14.859  15.273   5.260 -0.0425 -0.2023  0.3089
 1116loPI   C2A17520  14.967  15.131   5.600  0.1486  0.1340 -0.3030
 1116loPI   C3A17521  14.849  15.239   5.999  0.3319  0.0316  0.1217
 1116loPI   C4A17522  14.786  15.334   6.454 -0.3939 -0.2230 -0.2982
 1116loPI   C5A17523  14.890  15.306   6.862 -0.0583  0.0365  0.0100
 1116loPI   C6A17524  14.690  14.947   7.170 -0.0371 -0.0983 -0.1973
 1116loPI   C1B17525  15.240  15.069   5.055 -0.1017  0.0756  0.1763
 1116loPI   C2B17526  15.410  15.197   5.399 -0.4874 -0.3614 -0.0518
 1116loPI   C3B17527  15.396  15.073   5.852 -0.0985 -0.0857 -0.0361
 1116loPI   C4B17528  15.293  15.229   6.286 -0.0017  0.2014 -0.0949
 1117loPI    C117529  16.336  16.991   3.570  0.0031 -0.2834  0.1832
 1117loPI    C217530  16.399  16.628   3.416 -0.1212 -0.1949 -0.0829
 1117loPI    C317531  16.028  16.779   3.428 -0.0462 -0.0026 -0.1440
 1117loPI   PO417532  16.414  17.042   3.804  0.0547  0.2123  0.2433
 1117loPI   GL117533  16.371  16.915   4.204 -0.3170 -0.0901  0.3289
 1117loPI   GL217534  16.598  17.052   4.339 -0.1835  0.0709  0.0013
 1117loPI   C1A17535  16.154  17.075   4.636 -0.0603 -0.2278 -0.2052
 1117loPI   C2A17536  16.119  16.968   5.097  0.2886  0.4183  0.2503
 1117loPI   C3A17537  15.876  16.626   5.041 -0.4297  0.0893 -0.0444
 1117loPI   C4A17538  15.703  16.291   5.380 -0.2528  0.0837 -0.1466
 1117loPI   C5A17539  15.763  16.337   5.848 -0.2331  0.0661  0.1190
 1117loPI   C6A17540  15.757  16.621   6.135 -0.1540  0.0855 -0.0061
 1117loPI   C1B17541  16.550  16.706   4.597 -0.0451  0.1445 -0.0727
 1117loPI   C2B17542  16.527  16.660   4.985  0.3824 -0.0386 -0.2028
 1117loPI   C3B17543  16.561  16.839   5.333  0.0482  0.3609  0.1227
 1117loPI   C4B17544  16.312  17.161   5.541  0.3178 -0.3981  0.0234
 1118loPI    C117545   8.410   6.065   4.623  0.0417  0.0398 -0.1334
 1118loPI    C217546   8.667   5.834   4.824  0.0559  0.0881 -0.0960
 1118loPI    C317547   8.787   6.028   4.495  0.0751  0.1326 -0.0628
 1118loPI   PO417548   8.293   6.205   4.799  0.2057 -0.1595 -0.1696
 1118loPI   GL117549   8.292   6.304   5.214 -0.3703 -0.0566 -0.0602
 1118loPI   GL217550   8.523   5.980   5.265 -0.0913 -0.0979  0.2966
 1118loPI   C1A17551   7.945   6.034   5.480 -0.0899 -0.0858 -0.0335
 1118loPI   C2A17552   8.010   6.129   5.924  0.1448 -0.1112 -0.0772
 1118loPI   C3A17553   8.110   5.996   6.277  0.2918  0.1208 -0.5431
 1118loPI   C4A17554   8.141   5.787   6.616 -0.4314 -0.1159 -0.0672
 1118loPI   C5A17555   8.117   5.497   6.998 -0.3548  0.1830  0.3295
 1118loPI   C6A17556   7.937   5.197   7.269  0.9364 -0.2776 -0.2093
 1118loPI   C1B17557   8.228   5.670   5.519  0.1240  0.3454 -0.1841
 1118loPI   C2B17558   8.255   5.628   5.864 -0.1767  0.4417 -0.2108
 1118loPI   C3B17559   8.223   5.465   6.232  0.1874 -0.0190  0.2516
 1118loPI   C4B17560   8.465   5.415   6.597  0.2423 -0.0770 -0.1919
 1119loPI    C117561  14.410  13.971   4.273  0.0931  0.0614 -0.0013
 1119loPI    C217562  14.548  14.273   4.050  0.0958  0.0701  0.0121
 1119loPI    C317563  14.500  13.910   3.888  0.2627  0.0339  0.0420
 1119loPI   PO417564  14.566  13.998   4.513 -0.1024  0.4997  0.0959
 1119loPI   GL117565  14.608  14.112   4.883 -0.0669 -0.1167  0.1551
 1119loPI   GL217566  14.284  13.989   5.115  0.1903  0.0362  0.3027
 1119loPI   C1A17567  14.652  14.291   5.226 -0.1108  0.2209 -0.0361
 1119loPI   C2A17568  14.558  14.401   5.636 -0.3063 -0.1141  0.3374
 1119loPI   C3A17569  14.590  14.771   5.873 -0.0937 -0.1930 -0.0387
 1119loPI   C4A17570  14.490  14.990   6.266  0.1424  0.1985  0.1711
 1119loPI   C5A17571  14.451  14.988   6.765  0.0449 -0.1579  0.0119
 1119loPI   C6A17572  14.129  15.106   7.018  0.0336 -0.0189 -0.0265
 1119loPI   C1B17573  14.119  14.109   5.521  0.0102  0.0488  0.1144
 1119loPI   C2B17574  14.022  14.151   5.964  0.0223  0.2642 -0.3648
 1119loPI   C3B17575  13.941  14.172   6.441 -0.0098  0.1269 -0.1126
 1119loPI   C4B17576  13.593  14.136   6.691 -0.2229  0.2864 -0.0847
 1120loPI    C117577  10.888   1.238   4.112  0.2164 -0.0436 -0.3419
 1120loPI    C217578  10.528   1.349   3.978  0.0276 -0.3079 -0.0654
 1120loPI    C317579  10.790   1.626   4.100 -0.2064 -0.1311  0.0429
 1120loPI   PO417580  10.823   1.170   4.369 -0.2009  0.1705 -0.0946
 1120loPI   GL117581  10.890   1.111   4.820 -0.1244 -0.0454  0.0783
 1120loPI   GL217582  10.879   1.452   4.939 -0.1174  0.2792  0.0115
 1120loPI   C1A17583  10.845   0.882   5.278 -0.1974  0.4198  0.1698
 1120loPI   C2A17584  10.844   1.294   5.552 -0.2909 -0.0617 -0.0115
 1120loPI   C3A17585  10.830   1.470   5.940  0.0034 -0.0490  0.4455
 1120loPI   C4A17586  10.855   1.811   6.178  0.2189 -0.1112  0.0656
 1120loPI   C5A17587  10.874   2.124   6.449 -0.0513  0.1954 -0.0551
 1120loPI   C6A17588  10.747   2.534   6.625  0.0550 -0.0728  0.0600
 1120loPI   C1B17589  10.790   1.836   5.165 -0.3284 -0.1712  0.1235
 1120loPI   C2B17590  10.563   2.125   5.404  0.0161 -0.1027 -0.2451
 1120loPI   C3B17591  10.561   2.580   5.370 -0.3423  0.0902  0.3689
 1120loPI   C4B17592  10.559   3.082   5.283  0.3436 -0.4800  0.0042
 1121loPI    C117593   5.773  10.295   5.386 -0.0509  0.0929 -0.0768
 1121loPI    C217594   5.673  10.085   5.060 -0.1683  0.0718 -0.0275
 1121loPI    C317595   6.036  10.250   5.088 -0.0059 -0.2835  0.0139
 1121loPI   PO417596   5.565  10.558   5.452 -0.1590 -0.1670 -0.4030
 1121loPI   GL117597   5.187  10.727   5.679 -0.0856 -0.0753 -0.1097
 1121loPI   GL217598   5.323  10.367   5.830 -0.0896 -0.4720 -0.1447
 1121loPI   C1A17599   5.010  10.663   6.082  0.0747 -0.0335 -0.1033
 1121loPI   C2A17600   5.067  10.238   6.323  0.2122 -0.2633  0.3399
 1121loPI   C3A17601   5.202   9.985   6.633 -0.2865  0.1032  0.3074
 1121loPI   C4A17602   5.188   9.913   7.036 -0.2247  0.3711 -0.0470
 1121loPI   C5A17603   5.438   9.568   7.289 -0.2033  0.1063 -0.3067
 1121loPI   C6A17604   5.335   9.483   7.790  0.1230 -0.1410 -0.0352
 1121loPI   C1B17605   5.668  10.187   6.171 -0.0510 -0.3108  0.1254
 1121loPI   C2B17606   5.890  10.185   6.633  0.0311 -0.0210 -0.0468
 1121loPI   C3B17607   5.966  10.016   6.974 -0.3288 -0.0341  0.0643
 1121loPI   C4B17608   6.027   9.730   7.352 -0.0387 -0.1990 -0.0577
 1122loPI    C117609  11.806   8.243   4.545 -0.1363  0.1194 -0.3196
 1122loPI    C217610  11.499   8.317   4.790  0.0359 -0.1307 -0.0205
 1122loPI    C317611  11.456   8.060   4.486 -0.0765 -0.0947 -0.0354
 1122loPI   PO417612  11.988   8.154   4.726  0.2226 -0.0660  0.1148
 1122loPI   GL117613  12.110   8.145   5.118  0.1423 -0.2745  0.0737
 1122loPI   GL217614  11.792   8.175   5.199  0.1289 -0.0776  0.3620
 1122loPI   C1A17615  12.209   8.232   5.472 -0.0045 -0.0148  0.2586
 1122loPI   C2A17616  12.268   8.250   5.854  0.2237  0.4675  0.2914
 1122loPI   C3A17617  12.055   8.134   6.241 -0.0252  0.0954 -0.4401
 1122loPI   C4A17618  11.917   7.918   6.588 -0.0313 -0.2868 -0.0275
 1122loPI   C5A17619  11.987   7.639   6.886  0.0053  0.3598 -0.0616
 1122loPI   C6A17620  11.998   7.305   7.281 -0.3055  0.0400 -0.2123
 1122loPI   C1B17621  11.798   8.067   5.749 -0.0225 -0.1415 -0.1239
 1122loPI   C2B17622  12.068   7.758   5.895  0.1507  0.1173  0.1477
 1122loPI   C3B17623  11.991   7.532   6.252 -0.0033  0.0619 -0.0548
 1122loPI   C4B17624  11.743   7.348   6.513 -0.0292 -0.1240 -0.1194
 1123loPI    C117625   5.265  10.838   5.126  0.0849 -0.1466 -0.2380
 1123loPI    C217626   5.361  10.936   4.750  0.2217  0.0099 -0.1631
 1123loPI    C317627   5.499  10.596   4.910 -0.0771 -0.2041 -0.3511
 1123loPI   PO417628   5.045  10.730   5.233 -0.2708 -0.0011  0.2358
 1123loPI   GL117629   4.721  10.636   5.456  0.0637 -0.0475 -0.1404
 1123loPI   GL217630   4.806  10.343   5.699 -0.1166  0.0312 -0.1715
 1123loPI   C1A17631   4.570  10.817   5.853  0.1107 -0.0990 -0.0302
 1123loPI   C2A17632   4.353  10.912   6.257  0.0004 -0.0867  0.0405
 1123loPI   C3A17633   4.446  10.963   6.702 -0.4881  0.0451 -0.1332
 1123loPI   C4A17634   4.446  11.128   7.087  0.1765 -0.2344  0.0810
 1123loPI   C5A17635   4.373  10.915   7.507 -0.2960  0.0124  0.0674
 1123loPI   C6A17636   4.121  10.943   7.841  0.0347 -0.1512 -0.2140
 1123loPI   C1B17637   4.595  10.366   6.069 -0.4580 -0.0400 -0.0159
 1123loPI   C2B17638   4.716  10.553   6.502  0.3213  0.1842  0.3312
 1123loPI   C3B17639   4.493  10.531   6.924  0.1198 -0.1520 -0.0444
 1123loPI   C4B17640   4.153  10.672   7.086 -0.0485  0.1933  0.2238
 1124loPI    C117641   7.059  15.855   4.581 -0.0422 -0.0636  0.0659
 1124loPI    C217642   7.224  15.663   4.271 -0.1380 -0.2819  0.1477
 1124loPI    C317643   6.928  15.925   4.210  0.1653  0.0358  0.0105
 1124loPI   PO417644   7.021  15.708   4.817  0.2780 -0.0752  0.0507
 1124loPI   GL117645   6.889  15.653   5.219  0.2460  0.0640  0.2575
 1124loPI   GL217646   6.558  15.792   5.127  0.1705  0.1846 -0.1078
 1124loPI   C1A17647   7.039  15.879   5.527 -0.1532 -0.1937  0.0460
 1124loPI   C2A17648   7.068  16.034   5.934  0.1743 -0.1804  0.2293
 1124loPI   C3A17649   7.045  15.774   6.343 -0.0568  0.2468  0.0774
 1124loPI   C4A17650   6.951  15.649   6.813  0.1472 -0.1639  0.1363
 1124loPI   C5A17651   6.860  15.298   7.127  0.2590 -0.0201 -0.1801
 1124loPI   C6A17652   6.974  14.914   7.297  0.0123  0.1034  0.1296
 1124loPI   C1B17653   6.494  15.730   5.535 -0.0680  0.0367  0.3415
 1124loPI   C2B17654   6.649  15.735   5.942  0.0153  0.2086  0.2829
 1124loPI   C3B17655   6.491  15.787   6.378  0.0824  0.1932  0.0954
 1124loPI   C4B17656   6.371  16.069   6.575 -0.1912  0.1050  0.0804
 1125loPI    C117657   1.052  13.564   4.553 -0.1250 -0.0356 -0.0781
 1125loPI    C217658   1.166  13.801   4.855 -0.3480  0.1819 -0.1613
 1125loPI    C317659   1.256  13.900   4.478 -0.0992 -0.0719 -0.1711
 1125loPI   PO417660   0.784  13.546   4.618 -0.0722 -0.2315 -0.2079
 1125loPI   GL117661   0.492  13.426   4.988 -0.0053  0.0612  0.1334
 1125loPI   GL217662   0.613  13.252   5.113  0.1025 -0.5334  0.2727
 1125loPI   C1A17663   0.530  13.663   5.433  0.0794 -0.2096  0.0919
 1125loPI   C2A17664   0.375  13.751   5.775  0.1080  0.1676  0.1026
 1125loPI   C3A17665   0.234  13.935   6.145 -0.1063  0.0119  0.1002
 1125loPI   C4A17666   0.015  14.085   6.570 -0.1406 -0.1958 -0.2931
 1125loPI   C5A17667  -0.079  14.272   6.907 -0.3379  0.1678  0.0155
 1125loPI   C6A17668  -0.002  14.430   7.350  0.0861 -0.3004  0.3647
 1125loPI   C1B17669   0.893  13.275   5.491  0.1144  0.2113  0.0225
 1125loPI   C2B17670   0.903  13.491   5.814  0.0252  0.1504 -0.1535
 1125loPI   C3B17671   0.830  13.467   6.313 -0.0476  0.2988  0.0746
 1125loPI   C4B17672   0.801  13.550   6.712  0.2634  0.0456  0.0629
 1126loPI    C117673  12.248   5.245   4.130 -0.1704 -0.0632  0.0739
 1126loPI    C217674  12.306   4.881   4.285  0.2250 -0.0645 -0.0656
 1126loPI    C317675  12.595   5.055   4.070 -0.0420  0.2430 -0.1835
 1126loPI   PO417676  12.100   5.394   4.376  0.0913  0.3105 -0.0460
 1126loPI   GL117677  11.925   5.383   4.867 -0.1609  0.2588  0.1032
 1126loPI   GL217678  12.097   5.115   4.811 -0.0451  0.3484 -0.1438
 1126loPI   C1A17679  11.718   5.245   5.245 -0.2018 -0.0448  0.2090
 1126loPI   C2A17680  11.920   5.288   5.620  0.2397 -0.3495  0.2751
 1126loPI   C3A17681  12.066   5.201   6.011  0.0345  0.0161 -0.1595
 1126loPI   C4A17682  12.215   5.138   6.423 -0.1356  0.0216 -0.2073
 1126loPI   C5A17683  12.343   4.995   6.889  0.0605  0.1513  0.0709
 1126loPI   C6A17684  12.162   4.934   7.352  0.0935  0.0884 -0.0123
 1126loPI   C1B17685  12.295   5.139   5.250  0.0332 -0.1398 -0.0392
 1126loPI   C2B17686  12.500   5.099   5.678 -0.0292  0.3778 -0.0006
 1126loPI   C3B17687  12.668   5.060   6.131  0.0154  0.2839  0.0651
 1126loPI   C4B17688  12.696   4.976   6.574  0.1062 -0.1622  0.4712
 1127loPI    C117689   5.932   0.051   4.543  0.0915 -0.0108 -0.1894
 1127loPI    C217690   5.976   0.339   4.269  0.0304  0.0909 -0.0930
 1127loPI    C317691   5.770   0.008   4.180  0.1391  0.0564 -0.2188
 1127loPI   PO417692   6.180   0.019   4.637  0.2053  0.3376 -0.2050
 1127loPI   GL117693   6.175  -0.260   5.051  0.1418  0.0221  0.3201
 1127loPI   GL217694   6.343  -0.059   5.081  0.2333 -0.1242 -0.0066
 1127loPI   C1A17695   6.397  -0.569   5.301  0.2472 -0.1207  0.0259
 1127loPI   C2A17696   6.714  -0.624   5.644 -0.2741 -0.2324 -0.0377
 1127loPI   C3A17697   6.932  -0.605   6.066  0.0131  0.4027  0.1760
 1127loPI   C4A17698   7.051  -0.540   6.429 -0.0503 -0.1572  0.1142
 1127loPI   C5A17699   7.099  -0.637   6.814  0.1488  0.1290  0.3022
 1127loPI   C6A17700   7.198  -0.687   7.205 -0.0527 -0.1231  0.1296
 1127loPI   C1B17701   6.237  -0.094   5.489 -0.1050  0.2132  0.0642
 1127loPI   C2B17702   6.280  -0.354   5.833 -0.0952  0.0476 -0.0644
 1127loPI   C3B17703   6.303  -0.550   6.207 -0.1858 -0.0972 -0.1034
 1127loPI   C4B17704   6.577  -0.906   6.300 -0.1439  0.0562 -0.0779
 1128loPI    C117705  17.794   6.136   4.623 -0.0259 -0.0379 -0.0666
 1128loPI    C217706  17.962   5.900   4.898 -0.1089  0.0012  0.0184
 1128loPI    C317707  17.998   5.812   4.510  0.0586 -0.0218  0.0384
 1128loPI   PO417708  17.539   6.212   4.768 -0.1518 -0.3528  0.0307
 1128loPI   GL117709  17.694   6.297   5.200  0.0044 -0.0272 -0.4538
 1128loPI   GL217710  17.796   6.034   5.417 -0.2456 -0.1630  0.0639
 1128loPI   C1A17711  17.461   6.475   5.484 -0.0441  0.2693 -0.1675
 1128loPI   C2A17712  17.422   6.311   5.994  0.1788  0.1099  0.0848
 1128loPI   C3A17713  17.087   6.319   6.273 -0.2332 -0.0426  0.1159
 1128loPI   C4A17714  16.757   6.092   6.602 -0.3322  0.0026 -0.1087
 1128loPI   C5A17715  16.606   5.981   6.891  0.2823  0.0899 -0.0497
 1128loPI   C6A17716  16.500   5.703   7.246 -0.2139 -0.1342  0.0205
 1128loPI   C1B17717  17.813   5.775   5.726  0.3712  0.0098  0.0642
 1128loPI   C2B17718  17.764   5.488   6.123  0.1879 -0.0692  0.0387
 1128loPI   C3B17719  17.695   5.525   6.537 -0.4161 -0.0887 -0.1613
 1128loPI   C4B17720  17.590   5.884   6.835  0.0314 -0.4523  0.0936
 1129loPI    C117721   4.965   0.665   4.472  0.2119 -0.1080 -0.0900
 1129loPI    C217722   4.842   0.314   4.620  0.2052 -0.0990 -0.0745
 1129loPI    C317723   4.790   0.396   4.232  0.0918 -0.0638 -0.0522
 1129loPI   PO417724   5.060   0.784   4.767  0.0348  0.2221  0.4276
 1129loPI   GL117725   4.917   0.593   5.133 -0.0413  0.1654  0.0870
 1129loPI   GL217726   4.627   0.432   5.162 -0.0140  0.0120  0.1355
 1129loPI   C1A17727   4.989   0.819   5.554 -0.3565  0.0305  0.2857
 1129loPI   C2A17728   5.379   0.831   5.878 -0.1049  0.0007  0.2866
 1129loPI   C3A17729   5.522   0.627   6.219 -0.0665  0.0558 -0.1833
 1129loPI   C4A17730   5.648   0.488   6.562 -0.3724  0.1426  0.1428
 1129loPI   C5A17731   5.961   0.334   6.838  0.0020  0.0954 -0.2401
 1129loPI   C6A17732   5.992  -0.107   6.871 -0.0934  0.1876 -0.1966
 1129loPI   C1B17733   4.517   0.134   5.388 -0.1450  0.0466 -0.2589
 1129loPI   C2B17734   4.700  -0.050   5.677  0.0033  0.3461  0.1038
 1129loPI   C3B17735   4.435  -0.220   6.075  0.2879  0.1409 -0.0577
 1129loPI   C4B17736   4.301  -0.143   6.409  0.0525 -0.2684 -0.1607
 1130loPI    C117737   4.519  19.124   4.355 -0.0155 -0.0758 -0.0671
 1130loPI    C217738   4.124  19.157   4.300 -0.0347 -0.1416  0.0279
 1130loPI    C317739   4.284  18.803   4.394  0.0363 -0.0967  0.0771
 1130loPI   PO417740   4.564  19.321   4.593 -0.1881 -0.2203  0.2398
 1130loPI   GL117741   4.722  19.122   4.997  0.1139 -0.0540 -0.0702
 1130loPI   GL217742   4.768  19.394   5.013 -0.1951 -0.1081 -0.1393
 1130loPI   C1A17743   4.727  19.061   5.364  0.1633  0.1749 -0.1969
 1130loPI   C2A17744   4.815  19.004   5.805  0.1019  0.0857  0.1193
 1130loPI   C3A17745   4.739  18.934   6.289 -0.0089 -0.1515  0.0444
 1130loPI   C4A17746   4.646  19.136   6.677  0.1310 -0.1913 -0.2179
 1130loPI   C5A17747   4.674  18.879   7.074  0.0157  0.1365  0.0324
 1130loPI   C6A17748   4.540  18.884   7.441  0.0489 -0.0369 -0.3196
 1130loPI   C1B17749   4.983  19.570   5.227  0.1088  0.1900 -0.0865
 1130loPI   C2B17750   4.995  19.847   5.518  0.0472  0.1244 -0.2691
 1130loPI   C3B17751   5.008  19.923   6.013 -0.0888 -0.0098  0.1315
 1130loPI   C4B17752   5.131  19.890   6.443  0.2461 -0.0433 -0.1677
 1131loPI    C117753  19.321  12.639   4.348 -0.0174 -0.1492 -0.1112
 1131loPI    C217754  19.253  12.288   4.528  0.1555 -0.1326 -0.0111
 1131loPI    C317755  19.436  12.298   4.173  0.0374 -0.1504 -0.0731
 1131loPI   PO417756  19.471  12.723   4.501 -0.0918 -0.0289 -0.2334
 1131loPI   GL117757  19.470  12.677   4.909  0.2054  0.0400  0.3766
 1131loPI   GL217758  19.474  12.996   4.873 -0.1171 -0.1619 -0.1665
 1131loPI   C1A17759  19.493  12.753   5.278  0.3222 -0.1075  0.1911
 1131loPI   C2A17760  19.586  12.836   5.727 -0.2418  0.3016  0.1821
 1131loPI   C3A17761  19.635  13.025   6.194  0.0606  0.1193 -0.1520
 1131loPI   C4A17762  19.536  13.094   6.575  0.0740 -0.2112 -0.3178
 1131loPI   C5A17763  19.731  13.197   6.903 -0.1222  0.3310 -0.2591
 1131loPI   C6A17764  20.025  13.367   7.099  0.1216  0.3513 -0.2329
 1131loPI   C1B17765  19.668  13.197   5.315 -0.1806 -0.0226  0.0877
 1131loPI   C2B17766  19.477  13.306   5.627 -0.0838 -0.0333  0.2787
 1131loPI   C3B17767  19.443  13.491   5.992  0.0859  0.2367  0.4382
 1131loPI   C4B17768  19.312  13.818   6.262 -0.0826 -0.1878  0.1244
 1132loPI    C117769   2.901   3.297   4.377  0.0046 -0.0110 -0.1503
 1132loPI    C217770   2.823   2.997   4.125 -0.0024 -0.1473  0.0127
 1132loPI    C317771   3.202   3.092   4.212 -0.0013 -0.1693  0.0321
 1132loPI   PO417772   2.851   3.308   4.621 -0.0885  0.0536  0.0783
 1132loPI   GL117773   2.716   2.990   5.124  0.2376  0.0926 -0.3262
 1132loPI   GL217774   2.838   2.770   5.350 -0.0836 -0.1730 -0.2687
 1132loPI   C1A17775   2.361   3.177   5.398 -0.0670 -0.0964 -0.1986
 1132loPI   C2A17776   2.281   3.532   5.642 -0.0821 -0.0005 -0.0049
 1132loPI   C3A17777   2.375   3.844   5.945  0.5268 -0.2346 -0.1255
 1132loPI   C4A17778   2.552   4.069   6.205 -0.0604  0.0789 -0.2458
 1132loPI   C5A17779   2.630   4.057   6.673  0.1518 -0.0538 -0.0138
 1132loPI   C6A17780   2.786   3.754   6.979  0.0472  0.1880 -0.3582
 1132loPI   C1B17781   2.628   2.861   5.742  0.2771  0.2488  0.0149
 1132loPI   C2B17782   2.262   2.575   6.018  0.1072  0.1039  0.0230
 1132loPI   C3B17783   2.288   2.172   6.154 -0.2178  0.0342 -0.0700
 1132loPI   C4B17784   2.128   1.862   6.116 -0.0525 -0.1649  0.0541
 1133loPI    C117785   4.069  17.147   5.094 -0.1387  0.0443 -0.0160
 1133loPI    C217786   4.169  17.114   4.708 -0.1201 -0.1762  0.0064
 1133loPI    C317787   4.267  17.444   4.913  0.3288 -0.2729 -0.0421
 1133loPI   PO417788   3.759  16.948   5.053 -0.3018 -0.0001 -0.1882
 1133loPI   GL117789   3.846  16.704   5.416  0.4767  0.2178  0.0346
 1133loPI   GL217790   3.814  16.485   5.503  0.0431 -0.1860  0.0461
 1133loPI   C1A17791   4.156  16.818   5.687 -0.4190  0.0595  0.2358
 1133loPI   C2A17792   4.214  16.739   6.169 -0.1573 -0.0731  0.1548
 1133loPI   C3A17793   4.196  16.680   6.592  0.0723  0.0719 -0.0295
 1133loPI   C4A17794   4.392  16.601   7.111  0.0790  0.1236 -0.5139
 1133loPI   C5A17795   4.694  16.792   7.343 -0.1140  0.0136  0.0397
 1133loPI   C6A17796   5.028  16.978   7.614  0.1660  0.0243 -0.2144
 1133loPI   C1B17797   3.579  16.351   5.755 -0.3669  0.0549  0.0413
 1133loPI   C2B17798   3.465  16.202   6.200 -0.0158  0.0642  0.1379
 1133loPI   C3B17799   3.533  15.879   6.503 -0.1401  0.1112 -0.2667
 1133loPI   C4B17800   3.678  15.746   6.816 -0.0856  0.2932  0.2263
 1134loPI    C117801   3.735  19.210   4.672 -0.2805  0.1490  0.0621
 1134loPI    C217802   3.461  19.086   4.935 -0.1534  0.0140  0.1322
 1134loPI    C317803   3.419  19.000   4.547 -0.1988 -0.0265  0.1459
 1134loPI   PO417804   4.040  19.245   4.793  0.3053  0.2925  0.0896
 1134loPI   GL117805   4.252  19.275   5.164 -0.0316  0.1455  0.0146
 1134loPI   GL217806   3.892  18.956   5.150 -0.1024 -0.0295 -0.2571
 1134loPI   C1A17807   4.195  19.279   5.549  0.4777 -0.1912  0.3680
 1134loPI   C2A17808   4.114  19.616   5.759 -0.0052 -0.1579 -0.1419
 1134loPI   C3A17809   4.083  19.819   6.211  0.1758  0.0729  0.0290
 1134loPI   C4A17810   4.265  19.855   6.633  0.1442  0.0712 -0.2474
 1134loPI   C5A17811   4.398  19.956   7.084 -0.0008 -0.2236  0.0599
 1134loPI   C6A17812   4.249  20.272   7.520 -0.1771  0.0647  0.0348
 1134loPI   C1B17813   3.603  18.942   5.432  0.0021  0.2271  0.1112
 1134loPI   C2B17814   3.592  18.842   5.832  0.1357  0.1200 -0.1726
 1134loPI   C3B17815   3.824  18.588   6.155  0.1200 -0.0239 -0.3585
 1134loPI   C4B17816   3.987  18.458   6.515  0.0280  0.3307  0.1060
 1135loPI    C117817  16.848   3.745   4.613  0.1588  0.0068 -0.1314
 1135loPI    C217818  16.518   3.828   4.403  0.1373 -0.1522 -0.1616
 1135loPI    C317819  16.783   3.564   4.262  0.1617 -0.2007 -0.0265
 1135loPI   PO417820  16.829   3.743   4.911  0.0418 -0.1956 -0.0773
 1135loPI   GL117821  16.585   3.820   5.204 -0.0780 -0.0645 -0.2362
 1135loPI   GL217822  16.338   3.785   5.283 -0.1334 -0.2002  0.0681
 1135loPI   C1A17823  16.884   4.058   5.577 -0.1385  0.0318 -0.1472
 1135loPI   C2A17824  16.991   4.404   5.871 -0.0926 -0.2823 -0.0740
 1135loPI   C3A17825  17.173   4.406   6.303  0.3330 -0.1179  0.1048
 1135loPI   C4A17826  17.224   4.304   6.769 -0.1244  0.3670  0.1274
 1135loPI   C5A17827  17.249   4.406   7.230  0.2046  0.1958 -0.0056
 1135loPI   C6A17828  17.045   4.241   7.698 -0.0465  0.3514  0.1523
 1135loPI   C1B17829  16.270   3.757   5.670 -0.3414  0.0229 -0.0000
 1135loPI   C2B17830  16.230   3.563   6.093 -0.0967  0.1708 -0.0408
 1135loPI   C3B17831  16.551   3.552   6.403  0.3059  0.3177 -0.0695
 1135loPI   C4B17832  16.464   3.579   6.826  0.0491 -0.3355  0.1040
 1136loPI    C117833   3.280  15.106   4.630  0.1103  0.3693  0.0403
 1136loPI    C217834   3.650  15.087   4.479  0.0528  0.1041 -0.0735
 1136loPI    C317835   3.343  15.190   4.244 -0.0895 -0.6532 -0.2449
 1136loPI   PO417836   3.301  15.259   4.888 -0.0696 -0.2289 -0.0020
 1136loPI   GL117837   3.134  15.549   5.202  0.0405  0.1853  0.0622
 1136loPI   GL217838   2.978  15.190   5.314  0.0184  0.2403  0.0143
 1136loPI   C1A17839   2.769  15.592   5.568  0.0194  0.0868 -0.3311
 1136loPI   C2A17840   2.708  15.906   5.744  0.0115 -0.2715  0.1745
 1136loPI   C3A17841   2.523  15.915   6.177  0.0692 -0.1225  0.2054
 1136loPI   C4A17842   2.356  15.739   6.505 -0.2163 -0.1576 -0.1234
 1136loPI   C5A17843   2.038  15.573   6.826 -0.2831  0.2485  0.1843
 1136loPI   C6A17844   1.752  15.762   7.010 -0.0443 -0.2220  0.3238
 1136loPI   C1B17845   3.145  15.257   5.710  0.2247 -0.3554 -0.3324
 1136loPI   C2B17846   3.312  15.300   6.103  0.3212  0.2242  0.1319
 1136loPI   C3B17847   3.025  15.235   6.486  0.3442  0.1282 -0.2212
 1136loPI   C4B17848   2.701  15.463   6.780 -0.1018 -0.0467 -0.3032
 1137loPI    C117849  19.293  16.781   4.033 -0.1238  0.0388  0.2224
 1137loPI    C217850  19.484  17.125   4.104 -0.1653  0.0613  0.2244
 1137loPI    C317851  19.188  17.112   3.835  0.0516 -0.0435 -0.0126
 1137loPI   PO417852  19.241  16.596   4.308  0.1583  0.1118 -0.0404
 1137loPI   GL117853  19.083  16.521   4.662  0.3945 -0.4241  0.1119
 1137loPI   GL217854  19.132  16.206   4.829 -0.1346  0.0892 -0.0139
 1137loPI   C1A17855  18.836  16.768   4.981 -0.2965 -0.0490  0.2742
 1137loPI   C2A17856  18.761  16.976   5.339 -0.2367 -0.2188  0.4116
 1137loPI   C3A17857  18.807  17.262   5.666 -0.0404 -0.1360  0.1228
 1137loPI   C4A17858  18.889  17.282   6.069  0.1763  0.1529  0.1883
 1137loPI   C5A17859  18.773  17.602   6.395 -0.3388 -0.1212 -0.3332
 1137loPI   C6A17860  18.415  17.864   6.327  0.0928  0.1315  0.0492
 1137loPI   C1B17861  19.180  16.440   5.187  0.0044 -0.2698 -0.0176
 1137loPI   C2B17862  19.494  16.378   5.577 -0.0074  0.1674 -0.1710
 1137loPI   C3B17863  19.539  16.451   5.938  0.0899  0.0421 -0.3165
 1137loPI   C4B17864  19.882  16.742   6.052  0.1218 -0.0082 -0.2466
 1138loPI    C117865   2.044  17.891   4.390  0.1097 -0.1313 -0.1152
 1138loPI    C217866   1.792  17.807   4.091 -0.1051 -0.0119  0.0297
 1138loPI    C317867   1.980  18.160   4.100  0.2336 -0.1810 -0.1897
 1138loPI   PO417868   1.931  17.729   4.621 -0.1002 -0.2153  0.0678
 1138loPI   GL117869   1.804  17.643   5.041  0.1132  0.2591 -0.0758
 1138loPI   GL217870   1.575  17.401   5.195 -0.0245 -0.0397  0.1668
 1138loPI   C1A17871   2.077  17.803   5.423  0.0186 -0.2969  0.1339
 1138loPI   C2A17872   2.345  18.245   5.421 -0.1000  0.3829 -0.2280
 1138loPI   C3A17873   2.141  18.602   5.624 -0.1747  0.1597 -0.1342
 1138loPI   C4A17874   2.186  18.977   5.924 -0.3156  0.1541  0.2974
 1138loPI   C5A17875   2.495  18.947   6.311 -0.0361  0.2079 -0.2217
 1138loPI   C6A17876   2.897  18.886   6.590 -0.3611  0.3182 -0.3438
 1138loPI   C1B17877   1.617  17.670   5.552  0.2441  0.1304 -0.0334
 1138loPI   C2B17878   1.610  17.704   6.018 -0.4019  0.0345 -0.0797
 1138loPI   C3B17879   1.629  17.553   6.453  0.1244 -0.0194  0.1655
 1138loPI   C4B17880   1.945  17.551   6.722 -0.0457 -0.3583  0.1365
 1139loPI    C117881   3.912   9.749   5.091  0.0984  0.0414  0.1501
 1139loPI    C217882   4.299   9.712   5.183  0.1091  0.1440  0.1469
 1139loPI    C317883   4.165   9.582   4.830  0.0998 -0.0916  0.2358
 1139loPI   PO417884   3.783   9.622   5.269 -0.0748 -0.1123  0.1013
 1139loPI   GL117885   3.876   9.494   5.708  0.2058  0.2310 -0.1140
 1139loPI   GL217886   3.948   9.157   5.673 -0.2739  0.1415  0.0423
 1139loPI   C1A17887   3.430   9.245   5.780  0.2482 -0.0614 -0.1881
 1139loPI   C2A17888   3.264   9.292   6.133 -0.0121 -0.2100 -0.0541
 1139loPI   C3A17889   3.448   9.435   6.544  0.0282  0.2081  0.1187
 1139loPI   C4A17890   3.412   9.424   6.999  0.1191  0.2629  0.2040
 1139loPI   C5A17891   3.523   9.131   7.315  0.0934 -0.0949 -0.0938
 1139loPI   C6A17892   3.326   8.853   7.590 -0.0179  0.2667 -0.1020
 1139loPI   C1B17893   3.860   9.013   6.023 -0.1088  0.1171  0.0630
 1139loPI   C2B17894   3.990   8.772   6.337 -0.1548 -0.4554  0.0090
 1139loPI   C3B17895   3.843   8.467   6.596 -0.1271  0.3981  0.0304
 1139loPI   C4B17896   3.886   8.279   6.927  0.1695 -0.0303 -0.1614
 1140loPI    C117897  18.310  17.014   4.256 -0.0432  0.2673  0.0129
 1140loPI    C217898  18.239  17.327   4.016 -0.0967  0.1324 -0.1490
 1140loPI    C317899  18.234  16.955   3.868 -0.0038  0.0559  0.0362
 1140loPI   PO417900  18.531  17.155   4.377  0.2718  0.0844  0.0616
 1140loPI   GL117901  18.494  17.389   4.734 -0.1043 -0.0914 -0.0971
 1140loPI   GL217902  18.870  17.417   4.747 -0.0660 -0.3070 -0.1310
 1140loPI   C1A17903  18.293  17.252   5.110 -0.0617 -0.0126 -0.1355
 1140loPI   C2A17904  18.309  17.028   5.429  0.0701 -0.0874 -0.1666
 1140loPI   C3A17905  18.402  16.929   5.815  0.0477  0.0262 -0.0314
 1140loPI   C4A17906  18.477  16.686   5.962 -0.2516 -0.1719 -0.1732
 1140loPI   C5A17907  18.134  16.561   6.397 -0.0596 -0.2272  0.3334
 1140loPI   C6A17908  18.170  16.731   6.810  0.0264  0.1524  0.3225
 1140loPI   C1B17909  18.845  17.381   5.094 -0.1410  0.2254  0.1606
 1140loPI   C2B17910  18.713  17.671   5.383  0.1490 -0.1653  0.0421
 1140loPI   C3B17911  18.726  17.755   5.842  0.0349 -0.3151 -0.1117
 1140loPI   C4B17912  19.172  17.779   6.086  0.0743  0.1360  0.0501
 1141loPI    C117913  12.848   1.581   4.306 -0.1512  0.0562  0.2864
 1141loPI    C217914  13.079   1.878   4.170 -0.1388 -0.0546  0.0593
 1141loPI    C317915  13.135   1.506   4.037 -0.4231 -0.0890  0.0319
 1141loPI   PO417916  12.900   1.630   4.618 -0.0137 -0.0568  0.1678
 1141loPI   GL117917  13.094   1.639   5.035 -0.2669  0.1318  0.1833
 1141loPI   GL217918  13.308   1.378   5.039  0.0263 -0.2631  0.2455
 1141loPI   C1A17919  13.244   1.727   5.406 -0.1125 -0.1158 -0.1719
 1141loPI   C2A17920  13.445   1.941   5.766  0.1087  0.1130 -0.2700
 1141loPI   C3A17921  13.693   1.905   6.037 -0.0437  0.3972 -0.0651
 1141loPI   C4A17922  13.900   2.061   6.362  0.1693 -0.3172  0.1226
 1141loPI   C5A17923  13.926   2.304   6.658 -0.0903 -0.1082  0.0233
 1141loPI   C6A17924  13.822   2.489   7.118  0.0411 -0.3589  0.2301
 1141loPI   C1B17925  13.242   1.166   5.363 -0.1684 -0.3171 -0.0398
 1141loPI   C2B17926  13.297   1.007   5.808  0.2264 -0.0144 -0.0303
 1141loPI   C3B17927  13.109   1.013   6.311 -0.0371 -0.0465 -0.0899
 1141loPI   C4B17928  13.110   1.375   6.677 -0.2363  0.1411 -0.2587
 1142loPI    C117929   5.409   8.857   4.696  0.1745  0.0231  0.2181
 1142loPI    C217930   5.778   8.709   4.661  0.1659  0.0374  0.0611
 1142loPI    C317931   5.678   9.044   4.466  0.0980  0.0863  0.1790
 1142loPI   PO417932   5.375   8.924   4.938  0.1062  0.2573 -0.0556
 1142loPI   GL117933   5.419   8.945   5.401 -0.1305  0.1403 -0.3330
 1142loPI   GL217934   5.680   9.155   5.488 -0.1998  0.1951 -0.1780
 1142loPI   C1A17935   5.230   9.006   5.772 -0.1562  0.2987 -0.0403
 1142loPI   C2A17936   5.289   9.082   6.262  0.1204 -0.0670  0.0668
 1142loPI   C3A17937   5.012   9.076   6.579  0.1420  0.3850  0.1314
 1142loPI   C4A17938   4.794   9.102   6.907  0.1334 -0.0689 -0.0825
 1142loPI   C5A17939   4.830   9.081   7.406 -0.2022  0.5847  0.1244
 1142loPI   C6A17940   5.252   9.046   7.578 -0.0072  0.2471 -0.2200
 1142loPI   C1B17941   5.683   8.874   5.910  0.1163 -0.0973  0.1879
 1142loPI   C2B17942   5.682   8.779   6.314  0.3821  0.1991 -0.0114
 1142loPI   C3B17943   5.499   8.833   6.735  0.3118  0.2200  0.0192
 1142loPI   C4B17944   5.327   9.249   6.936 -0.0708  0.1686 -0.0207
 1143loPI    C117945  16.233  18.863   4.276  0.1844  0.0388 -0.0524
 1143loPI    C217946  16.151  18.699   3.920 -0.1241 -0.0205  0.0424
 1143loPI    C317947  16.143  19.097   3.965  0.2893  0.0098 -0.1049
 1143loPI   PO417948  16.053  18.737   4.445  0.0761 -0.1325  0.0715
 1143loPI   GL117949  15.916  18.807   4.818 -0.2710  0.0731  0.0192
 1143loPI   GL217950  15.894  19.184   4.970 -0.1692  0.0110  0.2650
 1143loPI   C1A17951  15.950  18.452   5.149  0.0717  0.1491 -0.0860
 1143loPI   C2A17952  15.669  18.240   5.400 -0.1387 -0.0382 -0.0520
 1143loPI   C3A17953  15.750  17.935   5.721  0.2840 -0.3524 -0.1686
 1143loPI   C4A17954  15.859  17.707   6.114  0.1232  0.1269  0.1222
 1143loPI   C5A17955  15.556  17.477   6.270 -0.0836 -0.2936  0.0019
 1143loPI   C6A17956  15.260  17.175   6.240 -0.1051  0.2001 -0.3374
 1143loPI   C1B17957  15.998  18.935   5.337  0.1703 -0.1327 -0.0684
 1143loPI   C2B17958  15.990  18.593   5.626 -0.0376 -0.1041  0.1825
 1143loPI   C3B17959  15.881  18.359   5.900  0.2948  0.0563 -0.0796
 1143loPI   C4B17960  15.818  18.166   6.310  0.1215  0.4816 -0.0966
 1144loPI    C117961  13.982   7.872   4.526  0.0981 -0.0258  0.0248
 1144loPI    C217962  13.952   7.867   4.127  0.0952  0.0453  0.0241
 1144loPI    C317963  13.922   8.213   4.326 -0.0341 -0.0067  0.0958
 1144loPI   PO417964  13.895   7.648   4.576 -0.0918  0.1820 -0.2440
 1144loPI   GL117965  13.861   7.540   5.004 -0.0959  0.1475 -0.0501
 1144loPI   GL217966  13.700   7.306   5.017  0.0582 -0.0073 -0.2258
 1144loPI   C1A17967  13.956   7.322   5.442 -0.1202 -0.1613  0.1838
 1144loPI   C2A17968  13.791   7.216   5.825  0.0388 -0.1340 -0.1767
 1144loPI   C3A17969  13.648   7.186   6.137 -0.2328  0.0244 -0.0571
 1144loPI   C4A17970  13.405   7.276   6.329  0.2589  0.1792  0.2444
 1144loPI   C5A17971  13.042   7.164   6.334 -0.1528  0.3207  0.0425
 1144loPI   C6A17972  12.828   6.952   6.552  0.1287 -0.1067 -0.3992
 1144loPI   C1B17973  13.464   7.280   5.429  0.4844 -0.0407 -0.2986
 1144loPI   C2B17974  13.234   7.168   5.878 -0.0410  0.0008 -0.2795
 1144loPI   C3B17975  13.278   6.825   6.104  0.3236  0.1558 -0.2400
 1144loPI   C4B17976  13.341   6.845   6.592 -0.0383 -0.3633 -0.2353
 1145loPI    C117977   5.240  12.005   5.424 -0.0223 -0.1073  0.0615
 1145loPI    C217978   5.143  11.908   5.799  0.0905 -0.1021  0.0925
 1145loPI    C317979   4.856  11.958   5.525 -0.0011  0.0295  0.2105
 1145loPI   PO417980   5.365  12.275   5.433  0.1409  0.4464 -0.2263
 1145loPI   GL117981   5.604  12.188   5.764 -0.0284 -0.0816  0.1400
 1145loPI   GL217982   5.673  12.480   5.868  0.1042 -0.0924  0.4237
 1145loPI   C1A17983   5.441  11.986   6.172  0.0742 -0.1639 -0.0018
 1145loPI   C2A17984   5.186  12.005   6.512  0.5113  0.1062 -0.1323
 1145loPI   C3A17985   5.058  11.968   6.989  0.2067  0.0429 -0.0946
 1145loPI   C4A17986   5.047  11.666   7.359 -0.1523  0.2348 -0.3056
 1145loPI   C5A17987   4.691  11.364   7.474 -0.2521  0.1518 -0.0431
 1145loPI   C6A17988   4.365  11.432   7.701 -0.0003  0.1050  0.0303
 1145loPI   C1B17989   5.509  12.933   6.013  0.0445  0.1033  0.1575
 1145loPI   C2B17990   5.760  13.094   6.436 -0.1298  0.2803 -0.1562
 1145loPI   C3B17991   5.925  13.176   6.811  0.0008 -0.0776 -0.2972
 1145loPI   C4B17992   6.249  13.155   7.082  0.1436 -0.0239  0.2147
 1146loPI    C117993  11.773   0.200   4.139 -0.2501 -0.1782 -0.1908
 1146loPI    C217994  11.641   0.201   3.761 -0.2545 -0.4381 -0.1920
 1146loPI    C317995  11.987   0.022   3.852 -0.2036 -0.2891 -0.0882
 1146loPI   PO417996  11.674   0.192   4.376  0.0691 -0.0020  0.1330
 1146loPI   GL117997  12.014   0.333   4.657 -0.0673  0.1044  0.0274
 1146loPI   GL217998  12.098   0.712   4.960  0.1472 -0.1857 -0.3363
 1146loPI   C1A17999  12.088   0.195   5.098  0.3431  0.2021  0.0780
 1146loPI   C2A18000  12.157   0.377   5.459 -0.0138  0.1552  0.1996
 1146loPI   C3A18001  12.156   0.382   5.907 -0.0819  0.2465 -0.1297
 1146loPI   C4A18002  12.060   0.383   6.382  0.4200 -0.0329 -0.1874
 1146loPI   C5A18003  11.930   0.475   6.826 -0.1746  0.0594  0.0178
 1146loPI   C6A18004  11.715   0.457   7.113 -0.1714 -0.0282 -0.0029
 1146loPI   C1B18005  11.816   0.927   5.276  0.2739 -0.1029  0.0109
 1146loPI   C2B18006  11.819   0.713   5.658  0.0072  0.2312  0.1067
 1146loPI   C3B18007  11.799   0.664   6.048  0.0020  0.1437 -0.1992
 1146loPI   C4B18008  11.561   0.525   6.493  0.1090  0.1666 -0.1827
 1147loPI    C118009   8.129  12.469   4.708  0.0628  0.0735  0.1055
 1147loPI    C218010   7.748  12.350   4.725  0.0212  0.1971  0.0471
 1147loPI    C318011   7.984  12.221   4.429 -0.1309  0.5618 -0.2421
 1147loPI   PO418012   8.218  12.407   4.911 -0.0325  0.0864  0.1897
 1147loPI   GL118013   8.109  12.458   5.391  0.0091  0.0774 -0.1615
 1147loPI   GL218014   8.151  12.844   5.514 -0.0152 -0.1618 -0.0616
 1147loPI   C1A18015   7.908  12.494   5.761 -0.1290 -0.2930 -0.1268
 1147loPI   C2A18016   7.831  12.826   6.159 -0.0708  0.0451 -0.1252
 1147loPI   C3A18017   7.697  13.189   6.515 -0.1523 -0.0325  0.1366
 1147loPI   C4A18018   7.690  13.543   6.896 -0.1356 -0.1113  0.4695
 1147loPI   C5A18019   7.524  13.675   7.263 -0.2989 -0.1179  0.1132
 1147loPI   C6A18020   7.345  13.729   7.614 -0.0631 -0.0577  0.0628
 1147loPI   C1B18021   8.355  12.966   5.869  0.0222  0.3045  0.0383
 1147loPI   C2B18022   8.256  13.080   6.336  0.0210 -0.5868 -0.3594
 1147loPI   C3B18023   8.161  13.020   6.769  0.2586 -0.2978  0.1062
 1147loPI   C4B18024   8.086  12.756   7.125  0.0742  0.0848 -0.0480
 1148loPI    C118025   8.921   9.829   4.904  0.1139  0.1816  0.0010
 1148loPI    C218026   8.794  10.076   4.616  0.0287  0.0939 -0.0376
 1148loPI    C318027   9.104   9.833   4.548  0.0308  0.0982 -0.0434
 1148loPI   PO418028   8.994   9.983   5.169 -0.0917  0.1933  0.0673
 1148loPI   GL118029   8.800  10.219   5.432 -0.2446 -0.2343  0.0841
 1148loPI   GL218030   8.905  10.404   5.349  0.1219 -0.1537 -0.1102
 1148loPI   C1A18031   8.868  10.077   5.818 -0.0502  0.0044 -0.2192
 1148loPI   C2A18032   8.957   9.880   6.291 -0.0230 -0.0332 -0.4343
 1148loPI   C3A18033   8.959  10.160   6.591 -0.0352 -0.2311 -0.0861
 1148loPI   C4A18034   8.890  10.309   6.999 -0.2464 -0.1389  0.0605
 1148loPI   C5A18035   8.594  10.489   7.328 -0.0977 -0.2211 -0.1702
 1148loPI   C6A18036   8.350  10.516   7.706  0.2817 -0.1187 -0.2226
 1148loPI   C1B18037   9.144  10.488   5.721 -0.0116  0.0703 -0.3196
 1148loPI   C2B18038   9.053  10.473   6.210 -0.0942  0.1042 -0.0430
 1148loPI   C3B18039   9.235  10.585   6.581 -0.3584 -0.2416 -0.0360
 1148loPI   C4B18040   9.379  10.951   6.882  0.0936  0.5361 -0.0620
 1149loPI    C118041   4.634  11.573   4.853  0.0137 -0.2587 -0.1586
 1149loPI    C218042   4.915  11.678   4.588  0.0464 -0.1132 -0.0672
 1149loPI    C318043   4.560  11.864   4.589  0.0397 -0.1257 -0.0208
 1149loPI   PO418044   4.688  11.617   5.118  0.0053  0.0056 -0.0323
 1149loPI   GL118045   4.558  11.584   5.581 -0.0132  0.2437 -0.1394
 1149loPI   GL218046   4.296  11.544   5.589  0.0609  0.1493  0.0819
 1149loPI   C1A18047   4.671  11.760   5.991  0.0223  0.0815 -0.3072
 1149loPI   C2A18048   4.308  11.774   6.274 -0.3740 -0.2210 -0.1697
 1149loPI   C3A18049   4.199  11.729   6.752 -0.2981  0.1053  0.1145
 1149loPI   C4A18050   4.147  11.601   7.178  0.3582 -0.0453  0.1598
 1149loPI   C5A18051   3.988  11.712   7.565 -0.2055  0.1858 -0.2570
 1149loPI   C6A18052   3.854  11.512   8.025 -0.1570  0.2623  0.2412
 1149loPI   C1B18053   4.442  11.294   5.948  0.0358 -0.2343  0.1275
 1149loPI   C2B18054   4.634  11.347   6.301 -0.0417  0.2628 -0.0249
 1149loPI   C3B18055   4.851  11.056   6.480  0.0137 -0.0380 -0.0153
 1149loPI   C4B18056   4.928  10.914   7.042  0.3009  0.2734 -0.1103
 1150loPI    C118057  10.135  12.954   4.750  0.0580  0.3501 -0.0835
 1150loPI    C218058   9.834  13.135   4.559 -0.2543 -0.1025 -0.0368
 1150loPI    C318059  10.061  12.868   4.366 -0.1501 -0.0743  0.0458
 1150loPI   PO418060  10.068  12.975   5.035  0.2353 -0.0947  0.1084
 1150loPI   GL118061   9.969  13.262   5.405  0.0398  0.0155 -0.1808
 1150loPI   GL218062   9.904  13.584   5.397  0.1161 -0.5317 -0.0696
 1150loPI   C1A18063  10.177  13.159   5.724  0.0069  0.0099 -0.0895
 1150loPI   C2A18064  10.227  13.212   6.163  0.2348  0.2185  0.1624
 1150loPI   C3A18065  10.048  13.183   6.642 -0.1590 -0.0295  0.2553
 1150loPI   C4A18066   9.940  13.143   6.936  0.2558  0.1554  0.1482
 1150loPI   C5A18067  10.114  13.175   7.301 -0.3797 -0.2007 -0.0164
 1150loPI   C6A18068  10.438  13.492   7.391  0.2975 -0.3527 -0.1784
 1150loPI   C1B18069   9.899  13.604   5.870 -0.1857 -0.2571 -0.0430
 1150loPI   C2B18070   9.747  13.639   6.211 -0.1837  0.1830  0.3667
 1150loPI   C3B18071   9.571  13.894   6.552  0.2253 -0.2428 -0.0503
 1150loPI   C4B18072   9.457  13.826   7.018 -0.0138  0.2154  0.2762
 1151loPI    C118073  14.599  11.381   4.259  0.1366  0.0755 -0.1264
 1151loPI    C218074  14.399  11.621   4.009 -0.2423  0.0764  0.1673
 1151loPI    C318075  14.580  11.292   3.870 -0.2626  0.1910 -0.1378
 1151loPI   PO418076  14.701  11.526   4.424  0.1719  0.2960  0.0723
 1151loPI   GL118077  14.833  11.602   4.879  0.0423  0.1147  0.1646
 1151loPI   GL218078  15.057  11.687   5.074 -0.1435 -0.1584 -0.1842
 1151loPI   C1A18079  14.659  11.469   5.325 -0.2303  0.0870 -0.0660
 1151loPI   C2A18080  14.803  11.486   5.720  0.3394 -0.2003  0.0450
 1151loPI   C3A18081  14.898  11.538   6.072  0.2081  0.0623  0.2334
 1151loPI   C4A18082  15.318  11.648   6.354  0.0925 -0.0752 -0.0606
 1151loPI   C5A18083  15.396  11.944   6.714 -0.0346 -0.2335 -0.1595
 1151loPI   C6A18084  15.291  12.312   7.056  0.2180 -0.0159 -0.0561
 1151loPI   C1B18085  15.313  11.762   5.406 -0.3833 -0.0076  0.1312
 1151loPI   C2B18086  15.196  11.872   5.770  0.1433  0.0751  0.5079
 1151loPI   C3B18087  15.209  12.057   6.075  0.0058 -0.1400  0.2146
 1151loPI   C4B18088  15.258  12.327   6.436  0.1717  0.0491  0.0682
 1152loPI    C118089   8.026   1.966   4.538  0.0889  0.1646  0.0775
 1152loPI    C218090   7.815   2.275   4.395  0.1211  0.1172 -0.0734
 1152loPI    C318091   7.938   1.985   4.148  0.0870 -0.0191  0.0686
 1152loPI   PO418092   7.893   1.898   4.784  0.1019  0.0707 -0.1921
 1152loPI   GL118093   7.890   1.955   5.192  0.0711 -0.0480 -0.0864
 1152loPI   GL218094   8.079   1.711   5.224 -0.3323  0.0178 -0.1666
 1152loPI   C1A18095   8.189   2.051   5.555 -0.0078 -0.0265  0.1287
 1152loPI   C2A18096   8.328   2.193   5.915 -0.0464 -0.0891 -0.5269
 1152loPI   C3A18097   8.324   2.243   6.292  0.1339 -0.3420 -0.1234
 1152loPI   C4A18098   8.585   2.419   6.671 -0.0626 -0.0510  0.2674
 1152loPI   C5A18099   8.901   2.441   6.946  0.0467 -0.0279  0.1588
 1152loPI   C6A18100   8.733   2.781   7.265  0.1465 -0.0719  0.1411
 1152loPI   C1B18101   8.180   1.598   5.669 -0.0040 -0.0664 -0.0648
 1152loPI   C2B18102   8.092   1.633   6.034 -0.1596 -0.0143  0.1502
 1152loPI   C3B18103   8.280   1.769   6.449 -0.3067 -0.1168 -0.0852
 1152loPI   C4B18104   8.411   1.518   6.813 -0.0571 -0.4008  0.0431
 1153loPI    C118105   5.738   7.064   4.606  0.0032 -0.3971 -0.2380
 1153loPI    C218106   5.964   7.093   4.278  0.3265  0.2177  0.0223
 1153loPI    C318107   5.762   7.412   4.410 -0.0709 -0.1146  0.2376
 1153loPI   PO418108   5.796   6.862   4.732  0.3370  0.1191  0.1948
 1153loPI   GL118109   6.076   6.729   5.022  0.0764 -0.2318 -0.2869
 1153loPI   GL218110   6.186   6.381   5.067 -0.0458  0.3136 -0.3774
 1153loPI   C1A18111   6.021   7.029   5.390  0.2095 -0.1082  0.0816
 1153loPI   C2A18112   6.278   7.193   5.826 -0.0210 -0.3577 -0.1906
 1153loPI   C3A18113   6.478   7.072   6.223  0.1810 -0.2377 -0.0290
 1153loPI   C4A18114   6.262   7.191   6.631  0.0087 -0.4087 -0.1109
 1153loPI   C5A18115   6.370   7.364   7.131 -0.0265 -0.1078 -0.1271
 1153loPI   C6A18116   6.376   7.571   7.569 -0.0685  0.0562 -0.6665
 1153loPI   C1B18117   6.300   6.620   5.528  0.0658 -0.0819 -0.2918
 1153loPI   C2B18118   6.516   6.711   5.898  0.1487  0.2610 -0.0743
 1153loPI   C3B18119   6.795   6.740   6.297 -0.0953 -0.0329  0.3553
 1153loPI   C4B18120   6.765   6.898   6.705 -0.3416 -0.0257  0.2985
 1154loPI    C118121  15.190   4.715   4.756 -0.0429  0.0035  0.0589
 1154loPI    C218122  15.406   4.392   4.852  0.0112  0.0309  0.0302
 1154loPI    C318123  15.533   4.639   4.564 -0.2095 -0.1166 -0.1979
 1154loPI   PO418124  15.204   4.823   4.994  0.0776 -0.2941  0.1061
 1154loPI   GL118125  15.028   4.889   5.424 -0.0683  0.2179  0.2947
 1154loPI   GL218126  14.643   4.932   5.204 -0.3239  0.0306  0.1069
 1154loPI   C1A18127  15.083   4.746   5.912  0.0491  0.0434 -0.1428
 1154loPI   C2A18128  15.043   4.295   6.149  0.2181 -0.1756  0.0564
 1154loPI   C3A18129  14.877   3.935   6.484  0.1259 -0.1361 -0.1115
 1154loPI   C4A18130  14.524   3.706   6.749 -0.0612  0.0761 -0.1134
 1154loPI   C5A18131  14.452   3.524   7.095  0.2916  0.1402  0.2559
 1154loPI   C6A18132  14.692   3.593   7.455 -0.0511  0.0228 -0.1283
 1154loPI   C1B18133  14.573   4.999   5.633  0.1336 -0.0975  0.1355
 1154loPI   C2B18134  14.428   5.258   5.951 -0.0038 -0.1084  0.0444
 1154loPI   C3B18135  14.328   5.433   6.406  0.0857 -0.1816 -0.0286
 1154loPI   C4B18136  14.304   5.542   6.814  0.0508 -0.4566 -0.0276
 1155loPI    C118137  16.558   4.847   5.018  0.2886  0.0926  0.1667
 1155loPI    C218138  16.181   4.872   4.885  0.3036  0.1233  0.1294
 1155loPI    C318139  16.426   4.590   4.742  0.3221  0.1609  0.0863
 1155loPI   PO418140  16.509   4.841   5.230 -0.0487 -0.0148 -0.0087
 1155loPI   GL118141  16.582   4.690   5.642 -0.0740  0.1917 -0.0112
 1155loPI   GL218142  16.242   4.753   5.711  0.1409  0.0271  0.1272
 1155loPI   C1A18143  16.568   4.621   6.184  0.0325 -0.0602  0.3147
 1155loPI   C2A18144  16.638   4.432   6.533 -0.0000 -0.1820  0.0446
 1155loPI   C3A18145  16.280   4.573   6.876 -0.5283  0.0829  0.3372
 1155loPI   C4A18146  15.918   4.867   7.035 -0.1742  0.0799 -0.0431
 1155loPI   C5A18147  15.693   4.972   7.395 -0.0328  0.2260 -0.0733
 1155loPI   C6A18148  15.447   5.309   7.473 -0.0652 -0.0491 -0.1232
 1155loPI   C1B18149  15.961   4.777   6.041  0.0666  0.1442 -0.2057
 1155loPI   C2B18150  15.794   4.794   6.451 -0.1204 -0.0856  0.1129
 1155loPI   C3B18151  15.501   4.727   6.787 -0.0919 -0.0078  0.2054
 1155loPI   C4B18152  15.295   4.780   7.163  0.1715  0.0212 -0.1919
 1156loPI    C118153   0.123   0.351   4.683 -0.2561  0.1179 -0.0923
 1156loPI    C218154   0.309   0.646   4.878 -0.0362  0.0286 -0.1641
 1156loPI    C318155   0.321   0.632   4.479 -0.1635 -0.0012 -0.1675
 1156loPI   PO418156   0.162   0.162   4.811 -0.2173 -0.0881  0.1481
 1156loPI   GL118157   0.318   0.205   5.167  0.1231 -0.0570 -0.3328
 1156loPI   GL218158   0.020   0.043   5.266 -0.0670  0.0447 -0.1321
 1156loPI   C1A18159   0.555   0.267   5.509  0.0067 -0.1043 -0.0482
 1156loPI   C2A18160   0.870   0.266   5.902 -0.2956  0.2033  0.2418
 1156loPI   C3A18161   1.059   0.308   6.171 -0.0226 -0.2820 -0.3291
 1156loPI   C4A18162   1.308   0.232   6.484 -0.1866  0.0162  0.2570
 1156loPI   C5A18163   1.604   0.315   6.837  0.0539  0.0193 -0.2463
 1156loPI   C6A18164   1.574   0.219   7.299  0.0294 -0.0365  0.1379
 1156loPI   C1B18165   0.035  -0.025   5.601  0.0174  0.0451 -0.1851
 1156loPI   C2B18166   0.327  -0.015   5.974 -0.0447  0.0889  0.1252
 1156loPI   C3B18167   0.554   0.128   6.282 -0.0113  0.1173 -0.2000
 1156loPI   C4B18168   0.650   0.606   6.252 -0.1794 -0.3342 -0.1899
 1157loPI    C118169   9.448  12.875   4.818 -0.0666  0.0774  0.0023
 1157loPI    C218170   9.245  12.539   4.895  0.0985 -0.0023  0.0954
 1157loPI    C318171   9.129  12.779   4.597 -0.0551 -0.1118  0.0659
 1157loPI   PO418172   9.527  12.980   5.032 -0.1894 -0.1514  0.5018
 1157loPI   GL118173   9.375  12.979   5.377  0.0263 -0.2732 -0.0624
 1157loPI   GL218174   9.125  12.786   5.399 -0.1266  0.2349  0.3525
 1157loPI   C1A18175   9.675  12.980   5.688 -0.1425  0.0400  0.1217
 1157loPI   C2A18176   9.765  13.111   6.028  0.1375  0.5719  0.2594
 1157loPI   C3A18177   9.580  13.135   6.531 -0.0206  0.0926  0.1201
 1157loPI   C4A18178   9.437  13.252   6.825 -0.0320  0.0024  0.0011
 1157loPI   C5A18179   9.595  13.294   7.269 -0.2094 -0.3104 -0.2474
 1157loPI   C6A18180   9.559  13.264   7.675 -0.1887  0.0558  0.2119
 1157loPI   C1B18181   8.958  12.907   5.814 -0.0947 -0.1573  0.2807
 1157loPI   C2B18182   8.726  12.900   6.228 -0.1380  0.0944 -0.0193
 1157loPI   C3B18183   8.634  12.828   6.595  0.1870  0.2113  0.0412
 1157loPI   C4B18184   8.580  12.772   6.976 -0.1101  0.1291  0.0931
 1158loPI    C118185   7.125  11.000   4.832 -0.1987 -0.0327 -0.0636
 1158loPI    C218186   6.818  11.256   4.848 -0.1440  0.0274  0.0373
 1158loPI    C318187   6.875  11.032   4.521 -0.1675  0.1749 -0.0690
 1158loPI   PO418188   7.111  10.953   5.088 -0.1542  0.1057 -0.2473
 1158loPI   GL118189   7.137  10.960   5.491 -0.3091  0.0184  0.0984
 1158loPI   GL218190   6.903  11.179   5.713  0.0116 -0.0820 -0.2144
 1158loPI   C1A18191   7.343  11.072   5.882  0.0882  0.2142  0.2271
 1158loPI   C2A18192   7.397  11.268   6.235 -0.1167  0.2095  0.2618
 1158loPI   C3A18193   7.238  11.144   6.662  0.0592  0.1038  0.0446
 1158loPI   C4A18194   6.931  11.287   6.852  0.1179 -0.1740 -0.1705
 1158loPI   C5A18195   6.844  11.463   7.226  0.2233  0.4040  0.0019
 1158loPI   C6A18196   6.720  11.851   7.603 -0.0707 -0.1496  0.0761
 1158loPI   C1B18197   6.847  11.023   6.124  0.2792  0.2191  0.0884
 1158loPI   C2B18198   6.785  10.860   6.538  0.3310  0.1011  0.1525
 1158loPI   C3B18199   6.609  10.791   6.994 -0.0231  0.0993  0.0339
 1158loPI   C4B18200   6.653  11.074   7.343  0.1385  0.0160 -0.0265
 1159loPI    C118201   0.618   4.594   4.335  0.2290  0.1061 -0.0163
 1159loPI    C218202   0.466   4.956   4.261 -0.1889 -0.0687 -0.0425
 1159loPI    C318203   0.369   4.647   4.027 -0.0236 -0.2461  0.1193
 1159loPI   PO418204   0.590   4.575   4.615  0.3291  0.1689  0.1186
 1159loPI   GL118205   0.611   4.693   4.960 -0.2969 -0.2041  0.2421
 1159loPI   GL218206   0.803   4.922   5.142 -0.0024 -0.1784  0.1270
 1159loPI   C1A18207   0.403   4.790   5.454 -0.4023  0.1858  0.0358
 1159loPI   C2A18208   0.173   4.647   5.715 -0.1854 -0.0885  0.0256
 1159loPI   C3A18209  -0.060   4.917   5.989 -0.0657  0.1205 -0.0879
 1159loPI   C4A18210  -0.017   4.968   6.417 -0.4274 -0.0657 -0.1550
 1159loPI   C5A18211   0.033   4.758   6.837  0.0152 -0.2878  0.0328
 1159loPI   C6A18212   0.006   4.849   7.375 -0.0030 -0.2028  0.0142
 1159loPI   C1B18213   0.900   4.950   5.567  0.1207 -0.1966  0.0108
 1159loPI   C2B18214   0.865   4.851   6.018 -0.2628  0.1432  0.2321
 1159loPI   C3B18215   0.895   4.754   6.465 -0.2625 -0.1399 -0.0871
 1159loPI   C4B18216   0.931   4.734   6.885 -0.0648  0.0519 -0.1154
 1160loPI    C118217   3.852   4.757   4.769 -0.0786 -0.2803  0.0663
 1160loPI    C218218   4.191   4.841   4.965 -0.1661  0.0471  0.0835
 1160loPI    C318219   4.167   4.903   4.570 -0.1581 -0.1201  0.0561
 1160loPI   PO418220   3.684   4.888   4.896 -0.0754 -0.2228  0.0954
 1160loPI   GL118221   3.429   4.906   5.251  0.1436 -0.4577 -0.1984
 1160loPI   GL218222   3.597   5.160   5.373 -0.0815 -0.1454 -0.1839
 1160loPI   C1A18223   3.456   4.601   5.652  0.2193  0.0565  0.1207
 1160loPI   C2A18224   3.602   4.821   6.060 -0.0889 -0.0078  0.0834
 1160loPI   C3A18225   3.953   4.914   6.344 -0.0339 -0.1694  0.1523
 1160loPI   C4A18226   4.265   4.855   6.695  0.2372 -0.0662 -0.1012
 1160loPI   C5A18227   4.425   4.972   7.003  0.1554  0.2827 -0.1091
 1160loPI   C6A18228   4.720   5.219   7.254 -0.4139  0.2367  0.0043
 1160loPI   C1B18229   3.825   5.199   5.775  0.2959  0.0925 -0.1802
 1160loPI   C2B18230   3.946   5.399   6.195  0.1617  0.1220  0.3487
 1160loPI   C3B18231   3.958   5.352   6.637 -0.3145  0.2132 -0.3836
 1160loPI   C4B18232   4.334   5.429   6.876  0.0221 -0.3950  0.4771
 1161loPI    C118233   7.925   3.309   4.194  0.3178  0.0377  0.1772
 1161loPI    C218234   7.839   2.975   3.992  0.0622  0.1116  0.1601
 1161loPI    C318235   8.196   3.149   3.948  0.1109 -0.0287 -0.0115
 1161loPI   PO418236   7.719   3.213   4.492 -0.2635  0.1045  0.1239
 1161loPI   GL118237   7.667   3.373   4.888  0.0758 -0.2741 -0.0484
 1161loPI   GL218238   7.680   3.767   5.058  0.0154 -0.2155 -0.1185
 1161loPI   C1A18239   7.792   3.330   5.264  0.0287  0.2912 -0.1318
 1161loPI   C2A18240   7.541   3.393   5.642  0.3404 -0.3357 -0.3582
 1161loPI   C3A18241   7.579   3.366   6.062  0.4948  0.1456 -0.0800
 1161loPI   C4A18242   7.356   3.259   6.384 -0.3179  0.0894 -0.0466
 1161loPI   C5A18243   7.055   3.164   6.774 -0.4517  0.2286 -0.0472
 1161loPI   C6A18244   6.977   3.188   7.151  0.2229  0.0994 -0.0430
 1161loPI   C1B18245   7.466   3.818   5.399 -0.2587 -0.0601  0.0409
 1161loPI   C2B18246   7.471   3.887   5.884  0.1664 -0.1620  0.3904
 1161loPI   C3B18247   7.393   3.803   6.291  0.0013 -0.0749 -0.0870
 1161loPI   C4B18248   7.291   3.649   6.745 -0.0326  0.1707 -0.1326
 1162loPI    C118249  18.183   6.783   4.601  0.2648  0.2137  0.1738
 1162loPI    C218250  18.358   7.031   4.340  0.0583  0.0926 -0.0837
 1162loPI    C318251  18.122   6.736   4.208 -0.0191  0.0064  0.2399
 1162loPI   PO418252  18.428   6.909   4.873 -0.1884 -0.0476  0.1661
 1162loPI   GL118253  18.628   6.842   5.243  0.4312  0.1404 -0.0561
 1162loPI   GL218254  18.545   7.163   5.512  0.1911  0.0227  0.2546
 1162loPI   C1A18255  18.598   6.692   5.659 -0.3465 -0.1295 -0.0916
 1162loPI   C2A18256  18.524   6.775   6.193  0.0337 -0.3220 -0.0341
 1162loPI   C3A18257  18.535   6.444   6.584 -0.0178 -0.2686  0.2730
 1162loPI   C4A18258  18.630   6.159   6.923  0.0193 -0.0118 -0.1541
 1162loPI   C5A18259  18.482   5.833   7.020  0.2403 -0.2614 -0.0696
 1162loPI   C6A18260  18.404   5.468   7.171 -0.2467  0.3080 -0.0499
 1162loPI   C1B18261  18.699   7.149   5.921  0.0469 -0.0605 -0.1910
 1162loPI   C2B18262  18.809   7.165   6.248  0.0132  0.2439  0.3761
 1162loPI   C3B18263  18.692   7.017   6.599  0.0124 -0.2398 -0.1291
 1162loPI   C4B18264  18.354   6.860   6.804 -0.0242  0.0589  0.1386
 1163loPI    C118265   7.451   1.495   4.502 -0.1185  0.0735  0.1263
 1163loPI    C218266   7.553   1.861   4.378  0.1938  0.0208  0.2212
 1163loPI    C318267   7.513   1.564   4.113  0.0366  0.1002  0.1551
 1163loPI   PO418268   7.318   1.566   4.733  0.1196  0.0524 -0.0880
 1163loPI   GL118269   7.452   1.563   5.208 -0.1936 -0.1545  0.2582
 1163loPI   GL218270   7.294   1.956   5.291  0.0248  0.0139  0.1707
 1163loPI   C1A18271   7.696   1.824   5.596 -0.1666 -0.0651  0.0245
 1163loPI   C2A18272   7.848   2.048   5.894  0.5202  0.2527  0.2047
 1163loPI   C3A18273   7.869   2.049   6.292  0.1907 -0.0337 -0.1261
 1163loPI   C4A18274   8.027   2.200   6.683 -0.0984  0.3009 -0.0837
 1163loPI   C5A18275   7.916   2.192   7.101  0.0145 -0.1025 -0.0779
 1163loPI   C6A18276   7.770   2.193   7.588  0.1995 -0.3006 -0.0437
 1163loPI   C1B18277   7.255   1.958   5.787  0.1070  0.2378 -0.2766
 1163loPI   C2B18278   7.065   1.739   6.091  0.0658 -0.0481  0.0057
 1163loPI   C3B18279   7.170   1.426   6.463  0.1711 -0.3831  0.1734
 1163loPI   C4B18280   7.420   1.349   6.946 -0.1749  0.3082 -0.0771
 1164loPI    C118281  12.816   3.445   4.363  0.0240  0.2991 -0.1034
 1164loPI    C218282  13.120   3.248   4.195 -0.2364 -0.2513  0.0448
 1164loPI    C318283  13.169   3.625   4.317  0.4035 -0.3501  0.1274
 1164loPI   PO418284  12.752   3.271   4.547  0.2764 -0.1769 -0.0006
 1164loPI   GL118285  12.766   3.209   5.040  0.1357  0.2036 -0.0607
 1164loPI   GL218286  12.503   3.213   5.002 -0.1065 -0.0818  0.1817
 1164loPI   C1A18287  12.744   2.888   5.371  0.3724  0.2076  0.3253
 1164loPI   C2A18288  12.784   2.999   5.766  0.3165 -0.1123  0.1197
 1164loPI   C3A18289  12.736   3.030   6.186 -0.1016 -0.0389 -0.2984
 1164loPI   C4A18290  12.647   2.859   6.531 -0.0493 -0.3129 -0.0045
 1164loPI   C5A18291  12.287   2.668   6.813 -0.3649  0.0551 -0.0065
 1164loPI   C6A18292  11.912   2.711   6.663  0.1534  0.0203  0.1281
 1164loPI   C1B18293  12.394   3.222   5.346  0.0557 -0.1563  0.3493
 1164loPI   C2B18294  12.444   3.325   5.896 -0.3879 -0.0179 -0.0231
 1164loPI   C3B18295  12.308   3.462   6.294 -0.0846  0.0529  0.2893
 1164loPI   C4B18296  12.286   3.719   6.765  0.0753  0.3043 -0.0732
 1165loPI    C118297   5.558  14.667   5.013 -0.3512 -0.3840  0.0332
 1165loPI    C218298   5.491  14.919   4.709  0.1222 -0.3370 -0.0405
 1165loPI    C318299   5.198  14.680   4.840 -0.2524  0.0488 -0.1533
 1165loPI   PO418300   5.663  14.885   5.202 -0.0197 -0.0341 -0.1085
 1165loPI   GL118301   5.848  14.785   5.632  0.0045  0.1099 -0.0889
 1165loPI   GL218302   6.063  15.007   5.490  0.0125 -0.5407  0.1955
 1165loPI   C1A18303   5.529  14.548   5.927 -0.0239 -0.0749  0.3611
 1165loPI   C2A18304   5.176  14.312   6.160 -0.0458 -0.2253  0.1652
 1165loPI   C3A18305   4.933  14.070   6.489 -0.0531 -0.4076  0.0589
 1165loPI   C4A18306   4.983  13.862   6.852  0.2008  0.4082  0.2141
 1165loPI   C5A18307   5.038  13.489   6.890  0.1142 -0.2432 -0.0663
 1165loPI   C6A18308   5.420  13.266   6.783  0.0016 -0.0244 -0.1921
 1165loPI   C1B18309   5.983  15.389   5.684 -0.2123  0.0920 -0.2176
 1165loPI   C2B18310   6.104  15.784   5.835  0.0780 -0.2207  0.3792
 1165loPI   C3B18311   6.114  16.121   6.162 -0.0664  0.0590  0.0934
 1165loPI   C4B18312   6.137  16.449   6.289 -0.0392  0.1282  0.0984
 1166loPI    C118313   2.085  12.495   4.814  0.1807  0.0352  0.0706
 1166loPI    C218314   2.258  12.745   4.554  0.1884  0.0018  0.0436
 1166loPI    C318315   1.970  12.496   4.431  0.3989 -0.2246  0.0012
 1166loPI   PO418316   2.044  12.579   5.070  0.2593 -0.3285 -0.1154
 1166loPI   GL118317   1.982  12.600   5.558  0.3141  0.0196 -0.0382
 1166loPI   GL218318   1.827  12.242   5.592 -0.0258 -0.2378  0.0633
 1166loPI   C1A18319   2.055  12.604   5.946  0.4372  0.2766 -0.0646
 1166loPI   C2A18320   1.948  12.659   6.373 -0.1245  0.0971  0.1656
 1166loPI   C3A18321   2.054  12.749   6.875 -0.2290  0.0006  0.1516
 1166loPI   C4A18322   1.863  12.674   7.230  0.0538  0.1249 -0.1731
 1166loPI   C5A18323   1.562  12.962   7.351 -0.0532  0.1641  0.0032
 1166loPI   C6A18324   1.528  13.346   7.512 -0.1119 -0.2718  0.0467
 1166loPI   C1B18325   1.622  12.280   5.889 -0.0345 -0.0881 -0.0047
 1166loPI   C2B18326   1.793  12.214   6.331 -0.3848 -0.0092 -0.1045
 1166loPI   C3B18327   1.773  12.341   6.742  0.3207 -0.3619 -0.0479
 1166loPI   C4B18328   1.810  12.194   7.188 -0.0186  0.0823 -0.0023
 1167loPI    C118329  13.427   4.995   4.719 -0.2220 -0.1053 -0.0193
 1167loPI    C218330  13.607   4.755   4.455 -0.1339  0.1278 -0.1751
 1167loPI    C318331  13.462   5.108   4.337 -0.1863  0.1895  0.0684
 1167loPI   PO418332  13.620   4.958   4.937  0.1654  0.1751  0.0451
 1167loPI   GL118333  13.699   4.896   5.380 -0.1778 -0.2890  0.2305
 1167loPI   GL218334  13.751   4.562   5.266  0.2295  0.1563 -0.1625
 1167loPI   C1A18335  13.640   5.045   5.830  0.0071  0.0419  0.0076
 1167loPI   C2A18336  13.885   5.122   6.200 -0.0853 -0.0427 -0.1634
 1167loPI   C3A18337  13.861   5.497   6.530  0.0768  0.3013 -0.1935
 1167loPI   C4A18338  13.898   5.415   7.052  0.1895 -0.0597 -0.0847
 1167loPI   C5A18339  13.959   5.364   7.434  0.2538 -0.0363  0.0834
 1167loPI   C6A18340  13.980   5.671   7.719  0.1966  0.2198  0.0337
 1167loPI   C1B18341  13.515   4.561   5.688 -0.2678  0.4773 -0.1361
 1167loPI   C2B18342  13.304   4.330   5.963 -0.1886 -0.1114  0.2166
 1167loPI   C3B18343  13.120   4.464   6.314 -0.2126  0.0848 -0.1722
 1167loPI   C4B18344  13.315   4.505   6.812  0.0651 -0.0120  0.0263
 1168loPI    C118345  14.438   4.021   4.791 -0.0527 -0.2130 -0.0110
 1168loPI    C218346  14.347   3.816   4.459 -0.0880  0.1409 -0.2254
 1168loPI    C318347  14.133   4.138   4.560  0.1002  0.2015 -0.0104
 1168loPI   PO418348  14.550   3.905   5.026  0.0687 -0.2122  0.2716
 1168loPI   GL118349  14.330   4.051   5.397  0.1712 -0.1277  0.3119
 1168loPI   GL218350  14.062   4.183   5.550 -0.0518  0.2612 -0.0508
 1168loPI   C1A18351  14.494   3.777   5.696  0.2876 -0.0641 -0.2505
 1168loPI   C2A18352  14.850   3.796   5.968  0.1886  0.2706  0.2319
 1168loPI   C3A18353  15.305   3.897   6.065 -0.0484  0.4255  0.2202
 1168loPI   C4A18354  15.350   3.939   6.473  0.1011 -0.0367 -0.1920
 1168loPI   C5A18355  15.305   3.914   6.838  0.0244 -0.1531 -0.1292
 1168loPI   C6A18356  14.927   3.779   6.996 -0.0125  0.1558  0.2229
 1168loPI   C1B18357  13.992   4.356   5.939 -0.2770  0.0492  0.1450
 1168loPI   C2B18358  13.788   4.340   6.268 -0.1586 -0.1622  0.2715
 1168loPI   C3B18359  13.746   4.212   6.745 -0.0987 -0.0100 -0.1655
 1168loPI   C4B18360  13.673   4.136   7.194 -0.1632  0.2966 -0.1413
 1169loPI    C118361   6.066  13.236   4.838 -0.1126  0.1759 -0.1367
 1169loPI    C218362   6.394  13.012   4.787 -0.2332 -0.0377  0.0099
 1169loPI    C318363   6.083  12.972   4.538 -0.2143  0.0427 -0.0268
 1169loPI   PO418364   5.948  13.242   5.101 -0.0795  0.1436 -0.0898
 1169loPI   GL118365   6.045  13.414   5.483  0.1558  0.0922  0.0143
 1169loPI   GL218366   6.186  13.153   5.713 -0.1989 -0.2042  0.1402
 1169loPI   C1A18367   5.963  13.709   5.796 -0.2264 -0.0439  0.2110
 1169loPI   C2A18368   5.967  14.027   6.214  0.0405  0.2906 -0.0176
 1169loPI   C3A18369   5.709  14.275   6.414  0.0251  0.0392 -0.0736
 1169loPI   C4A18370   5.453  14.228   6.690 -0.0323 -0.3102 -0.0437
 1169loPI   C5A18371   5.175  14.241   7.036 -0.2515 -0.1094 -0.2613
 1169loPI   C6A18372   5.016  14.513   7.362 -0.0855 -0.0630 -0.3640
 1169loPI   C1B18373   5.983  13.264   6.064 -0.2406  0.4675 -0.2134
 1169loPI   C2B18374   5.841  13.597   6.330  0.2358 -0.1576  0.2387
 1169loPI   C3B18375   5.919  13.877   6.689  0.1516 -0.3209  0.0881
 1169loPI   C4B18376   5.812  14.165   7.058  0.2702  0.4945 -0.3160
 1170loPI    C118377  12.172  13.755   4.420 -0.1451  0.1163 -0.1833
 1170loPI    C218378  12.296  13.406   4.269 -0.2334  0.0421 -0.0858
 1170loPI    C318379  12.398  13.749   4.090  0.1077 -0.0167 -0.0110
 1170loPI   PO418380  12.256  13.816   4.662  0.1827  0.1038  0.1882
 1170loPI   GL118381  12.165  13.686   5.083 -0.0141 -0.3954 -0.3012
 1170loPI   GL218382  12.272  13.759   5.290 -0.3311 -0.1429 -0.2135
 1170loPI   C1A18383  11.976  13.517   5.540 -0.0846  0.0563 -0.1376
 1170loPI   C2A18384  11.906  13.429   6.018  0.3235 -0.0982  0.0669
 1170loPI   C3A18385  12.038  13.581   6.500 -0.1819  0.0094 -0.0526
 1170loPI   C4A18386  11.931  13.904   6.645 -0.0741  0.1271  0.1314
 1170loPI   C5A18387  11.758  14.072   7.078 -0.0543  0.1857  0.1524
 1170loPI   C6A18388  11.844  14.459   7.294  0.2337  0.0588  0.0596
 1170loPI   C1B18389  12.428  13.684   5.697  0.1598  0.0681 -0.1247
 1170loPI   C2B18390  12.547  13.645   6.145  0.0976  0.0452 -0.0305
 1170loPI   C3B18391  12.679  13.648   6.570 -0.1918  0.2970  0.2409
 1170loPI   C4B18392  12.631  13.443   7.034  0.0541 -0.0923 -0.1565
 1171loPI    C118393   5.571  17.020   4.809 -0.1173 -0.0907 -0.0774
 1171loPI    C218394   5.488  16.649   4.683 -0.1381 -0.0958 -0.0490
 1171loPI    C318395   5.416  16.962   4.445  0.1226 -0.1290 -0.1752
 1171loPI   PO418396   5.492  16.935   5.096  0.0880 -0.1444 -0.0488
 1171loPI   GL118397   5.477  17.171   5.421  0.0355  0.0508 -0.2823
 1171loPI   GL218398   5.337  17.458   5.566 -0.0151 -0.0404  0.2352
 1171loPI   C1A18399   5.594  17.210   5.876 -0.3858  0.1470  0.3036
 1171loPI   C2A18400   5.460  17.136   6.309  0.0815 -0.1233 -0.1313
 1171loPI   C3A18401   5.227  16.801   6.580  0.1737 -0.1187 -0.1296
 1171loPI   C4A18402   5.050  16.451   6.395  0.1523 -0.4528 -0.1244
 1171loPI   C5A18403   5.291  16.229   6.131  0.3220 -0.0365 -0.0425
 1171loPI   C6A18404   5.705  16.239   5.860 -0.0624  0.2141 -0.3052
 1171loPI   C1B18405   5.201  17.534   5.958 -0.0805  0.0292 -0.3698
 1171loPI   C2B18406   5.281  17.609   6.449  0.2207  0.2282  0.0455
 1171loPI   C3B18407   5.376  17.399   6.822  0.1088 -0.0703 -0.1301
 1171loPI   C4B18408   5.415  17.403   7.309  0.1684  0.3392  0.1163
 1172loPI    C118409  18.486   1.248   4.456  0.1653  0.2398 -0.0059
 1172loPI    C218410  18.092   1.320   4.463  0.1577  0.1871  0.2120
 1172loPI    C318411  18.268   1.199   4.124 -0.0474  0.0254  0.1614
 1172loPI   PO418412  18.435   1.125   4.762  0.0839 -0.2991  0.0528
 1172loPI   GL118413  18.340   0.796   5.142  0.2260  0.1351  0.0962
 1172loPI   GL218414  17.989   0.674   5.152 -0.0678 -0.3862  0.0154
 1172loPI   C1A18415  18.474   0.906   5.494 -0.1952  0.2851  0.0874
 1172loPI   C2A18416  18.190   0.839   5.935  0.1537  0.2009 -0.3250
 1172loPI   C3A18417  17.959   0.703   6.198  0.1546 -0.1241 -0.0235
 1172loPI   C4A18418  17.912   0.520   6.600  0.1554 -0.0240 -0.2237
 1172loPI   C5A18419  18.017   0.146   6.939  0.2388  0.3085 -0.3536
 1172loPI   C6A18420  18.144  -0.211   7.262  0.0478 -0.0176  0.0618
 1172loPI   C1B18421  18.138   0.539   5.567  0.2727 -0.1502  0.1974
 1172loPI   C2B18422  18.166   0.155   5.811 -0.4773 -0.1023  0.0623
 1172loPI   C3B18423  18.059   0.023   6.247  0.0860  0.0682  0.0829
 1172loPI   C4B18424  18.278  -0.109   6.618 -0.2571 -0.0778 -0.0580
 1173loPI    C118425   0.156   3.135   4.395  0.1382 -0.0307 -0.0894
 1173loPI    C218426   0.018   3.485   4.258 -0.1620 -0.0877  0.0583
 1173loPI    C318427   0.158   3.210   4.002  0.1513  0.1680 -0.0522
 1173loPI   PO418428   0.395   3.217   4.591  0.1120 -0.1662  0.0972
 1173loPI   GL118429   0.224   3.258   5.033  0.2100 -0.0822 -0.0075
 1173loPI   GL218430  -0.100   3.312   5.144 -0.1660 -0.2654  0.0092
 1173loPI   C1A18431   0.422   3.256   5.354 -0.0242  0.0675  0.0702
 1173loPI   C2A18432   0.587   3.360   5.800  0.0536 -0.3274  0.0920
 1173loPI   C3A18433   0.907   3.654   6.074 -0.0276 -0.4853 -0.1093
 1173loPI   C4A18434   1.165   3.840   6.413  0.0284 -0.1038  0.1380
 1173loPI   C5A18435   1.462   3.820   6.766 -0.1195 -0.4396  0.0066
 1173loPI   C6A18436   1.910   3.882   6.788 -0.0029 -0.1198 -0.1997
 1173loPI   C1B18437  -0.035   3.284   5.603 -0.0458  0.2488  0.1604
 1173loPI   C2B18438   0.020   3.204   6.028 -0.4361 -0.0394 -0.2020
 1173loPI   C3B18439  -0.011   3.301   6.486  0.2408  0.1765 -0.0695
 1173loPI   C4B18440  -0.385   3.097   6.782  0.2243  0.0629  0.1796
 1174loPI    C118441  19.398  11.784   4.419  0.2302 -0.0689  0.0249
 1174loPI    C218442  19.780  11.789   4.300  0.2147 -0.1771 -0.0301
 1174loPI    C318443  19.536  11.495   4.180 -0.0466  0.2147 -0.4946
 1174loPI   PO418444  19.446  11.852   4.712  0.2591  0.0323 -0.2911
 1174loPI   GL118445  19.476  12.171   5.010 -0.0577 -0.1458  0.3303
 1174loPI   GL218446  19.839  12.287   5.084 -0.1816  0.0432 -0.1780
 1174loPI   C1A18447  19.302  12.259   5.328 -0.0558 -0.0147  0.2785
 1174loPI   C2A18448  19.223  12.520   5.697 -0.2788 -0.4740 -0.1128
 1174loPI   C3A18449  19.318  12.637   6.134 -0.1263  0.2585  0.0787
 1174loPI   C4A18450  19.410  12.598   6.498 -0.0067  0.2678  0.2817
 1174loPI   C5A18451  19.524  12.745   6.863 -0.1068  0.0580 -0.1766
 1174loPI   C6A18452  19.480  12.801   7.261  0.3599 -0.3359  0.1156
 1174loPI   C1B18453  19.833  12.337   5.404  0.4332 -0.0868  0.0160
 1174loPI   C2B18454  19.677  12.345   5.803 -0.1669  0.1372  0.0164
 1174loPI   C3B18455  19.828  12.532   6.166 -0.1503  0.1477  0.0365
 1174loPI   C4B18456  19.922  12.662   6.660  0.2332 -0.0122  0.3657
 1175loPI    C118457  16.071   6.676   4.857 -0.4046  0.1118 -0.0742
 1175loPI    C218458  16.258   6.691   4.503 -0.0043  0.1782  0.1337
 1175loPI    C318459  16.261   6.353   4.716 -0.2801  0.1260  0.0588
 1175loPI   PO418460  16.180   6.903   5.007 -0.0913 -0.3652  0.1247
 1175loPI   GL118461  16.157   7.030   5.413 -0.0670 -0.0422  0.0901
 1175loPI   GL218462  16.310   7.112   5.652 -0.1713  0.2247 -0.0461
 1175loPI   C1A18463  15.863   7.113   5.755 -0.1396  0.3395 -0.1915
 1175loPI   C2A18464  15.707   7.219   6.148 -0.2140 -0.1049 -0.1781
 1175loPI   C3A18465  15.442   7.491   6.430 -0.1138  0.1339  0.0539
 1175loPI   C4A18466  15.504   7.818   6.749 -0.0755  0.3286  0.0526
 1175loPI   C5A18467  15.273   8.016   7.173 -0.0599 -0.1472 -0.0661
 1175loPI   C6A18468  15.161   8.405   7.405 -0.2086  0.2327  0.2259
 1175loPI   C1B18469  16.236   7.424   5.965 -0.1029 -0.1946 -0.0926
 1175loPI   C2B18470  16.384   7.531   6.442 -0.1725  0.2209 -0.1613
 1175loPI   C3B18471  16.234   7.185   6.939  0.2765 -0.0178  0.1483
 1175loPI   C4B18472  16.484   7.339   7.166 -0.0475 -0.0731  0.2298
 1176loPI    C118473  15.595   6.680   4.946  0.0801 -0.1816 -0.0455
 1176loPI    C218474  15.258   6.882   4.871  0.1667  0.0090  0.0720
 1176loPI    C318475  15.570   6.914   4.623  0.1854  0.0319  0.0982
 1176loPI   PO418476  15.626   6.700   5.192 -0.3161  0.1688 -0.1717
 1176loPI   GL118477  15.624   6.691   5.602  0.1061  0.4819 -0.0076
 1176loPI   GL218478  15.927   6.577   5.583 -0.1274 -0.1744  0.0150
 1176loPI   C1A18479  15.388   6.909   5.819 -0.0347  0.2893  0.0669
 1176loPI   C2A18480  15.266   6.927   6.310  0.0057 -0.1217  0.1168
 1176loPI   C3A18481  15.250   6.866   6.745 -0.2235 -0.2039 -0.0457
 1176loPI   C4A18482  15.436   7.233   6.956  0.4108  0.1117  0.1057
 1176loPI   C5A18483  15.692   7.520   7.100  0.1479  0.1816  0.4777
 1176loPI   C6A18484  15.721   7.759   7.449  0.0208 -0.0865 -0.0933
 1176loPI   C1B18485  15.792   6.726   6.061  0.0205  0.2208  0.0625
 1176loPI   C2B18486  15.783   6.728   6.454  0.0640 -0.0364  0.4142
 1176loPI   C3B18487  15.742   6.846   6.885 -0.2619 -0.0153 -0.2405
 1176loPI   C4B18488  15.827   7.075   7.253 -0.1481  0.3579 -0.0158
 1177loPI    C118489  14.713   1.959   4.668  0.1811 -0.0639 -0.0389
 1177loPI    C218490  14.606   1.936   4.284  0.2800 -0.2062 -0.0586
 1177loPI    C318491  14.786   2.265   4.421 -0.3356  0.1134  0.0170
 1177loPI   PO418492  14.798   1.729   4.749  0.0276  0.0597  0.0582
 1177loPI   GL118493  15.049   1.457   5.068 -0.1065  0.0640  0.0992
 1177loPI   GL218494  14.839   1.501   5.298  0.0279  0.0917 -0.2851
 1177loPI   C1A18495  15.166   1.209   5.536 -0.0415  0.3933 -0.0698
 1177loPI   C2A18496  15.129   1.178   5.996 -0.1220  0.1346  0.1025
 1177loPI   C3A18497  15.289   1.315   6.430 -0.1469  0.2052  0.3468
 1177loPI   C4A18498  15.281   1.448   6.764  0.0021  0.2379  0.1989
 1177loPI   C5A18499  15.292   1.737   7.100 -0.0326  0.1758 -0.4016
 1177loPI   C6A18500  15.542   1.638   7.543  0.0159 -0.1400  0.2287
 1177loPI   C1B18501  14.486   1.548   5.578  0.0160  0.3825 -0.1256
 1177loPI   C2B18502  14.558   1.775   5.946 -0.1676 -0.1472  0.0965
 1177loPI   C3B18503  14.381   1.903   6.320  0.0209 -0.0438  0.2812
 1177loPI   C4B18504  14.493   2.142   6.637  0.2287 -0.1141 -0.0196
 1178loPI    C118505   3.737   5.648   4.615  0.1259 -0.0569  0.1649
 1178loPI    C218506   4.019   5.628   4.332  0.1238  0.1205  0.1489
 1178loPI    C318507   3.923   5.302   4.543  0.3338  0.0567  0.1481
 1178loPI   PO418508   3.844   5.809   4.857 -0.0196 -0.0654 -0.2013
 1178loPI   GL118509   3.714   5.688   5.255  0.0035 -0.2729  0.0414
 1178loPI   GL218510   3.865   5.978   5.372 -0.0863  0.1933 -0.1875
 1178loPI   C1A18511   3.598   5.629   5.635  0.1466 -0.0177 -0.3905
 1178loPI   C2A18512   3.618   5.730   6.114  0.3859 -0.0689  0.0906
 1178loPI   C3A18513   3.675   5.826   6.480  0.0162  0.2559 -0.1384
 1178loPI   C4A18514   3.863   5.763   6.809 -0.1551  0.1454  0.0496
 1178loPI   C5A18515   4.152   5.718   7.276  0.0789 -0.0427  0.2630
 1178loPI   C6A18516   4.060   5.678   7.701 -0.0357  0.2165  0.2496
 1178loPI   C1B18517   3.804   6.497   5.474 -0.1390 -0.1302  0.0957
 1178loPI   C2B18518   3.852   6.645   5.792 -0.1175 -0.0105 -0.2601
 1178loPI   C3B18519   3.688   6.657   6.220 -0.0479 -0.3137 -0.1637
 1178loPI   C4B18520   3.790   6.811   6.571 -0.0127 -0.3699 -0.0970
 1179loPI    C118521   5.299  17.922   4.665 -0.0271  0.0288  0.0262
 1179loPI    C218522   5.653  17.996   4.835 -0.0042 -0.1565  0.0617
 1179loPI    C318523   5.533  18.212   4.521  0.0718  0.0089  0.1449
 1179loPI   PO418524   5.117  17.913   4.819  0.4912 -0.3722 -0.3885
 1179loPI   GL118525   4.942  17.961   5.251 -0.0400  0.0610 -0.0080
 1179loPI   GL218526   4.587  18.090   5.310  0.1928  0.1478  0.1178
 1179loPI   C1A18527   5.050  17.877   5.639 -0.3090 -0.4399  0.0262
 1179loPI   C2A18528   5.095  18.038   6.001  0.2007  0.3021  0.2957
 1179loPI   C3A18529   5.398  18.088   6.361 -0.0087  0.2108 -0.0375
 1179loPI   C4A18530   5.568  17.864   6.761  0.3019 -0.0139 -0.1714
 1179loPI   C5A18531   5.755  17.853   7.186 -0.2204 -0.0442 -0.1633
 1179loPI   C6A18532   6.156  18.061   7.300  0.2328  0.1842  0.0389
 1179loPI   C1B18533   4.617  18.179   5.734  0.3431  0.0613 -0.0379
 1179loPI   C2B18534   4.575  18.041   6.063  0.0406 -0.0195  0.1379
 1179loPI   C3B18535   4.721  17.996   6.508 -0.1295 -0.2037  0.1401
 1179loPI   C4B18536   5.046  17.849   6.806 -0.0499  0.1641 -0.1939
 1180loPI    C118537  10.378  11.143   4.712  0.4936 -0.2451 -0.1613
 1180loPI    C218538  10.230  10.811   4.546 -0.0316  0.0560 -0.3186
 1180loPI    C318539  10.286  11.138   4.323  0.0057  0.2256 -0.0648
 1180loPI   PO418540  10.247  11.291   4.922 -0.1717  0.0823 -0.3343
 1180loPI   GL118541  10.251  11.280   5.373 -0.0439  0.1989 -0.1520
 1180loPI   GL218542  10.510  11.547   5.271  0.0051  0.2075  0.0845
 1180loPI   C1A18543  10.266  11.168   5.790 -0.2528 -0.2105 -0.0942
 1180loPI   C2A18544  10.533  11.299   6.026 -0.0762 -0.1034  0.0436
 1180loPI   C3A18545  10.821  11.350   6.347 -0.3069 -0.3260  0.0222
 1180loPI   C4A18546  11.044  11.405   6.738 -0.0577  0.3185  0.0151
 1180loPI   C5A18547  11.443  11.350   6.847 -0.0066  0.1247 -0.3677
 1180loPI   C6A18548  11.676  11.425   7.138  0.0007 -0.2965 -0.2474
 1180loPI   C1B18549  10.305  11.717   5.610  0.1041  0.0678  0.1653
 1180loPI   C2B18550  10.268  11.843   6.013 -0.4139  0.1260  0.0524
 1180loPI   C3B18551  10.424  11.700   6.311 -0.2391 -0.0509 -0.3143
 1180loPI   C4B18552  10.380  11.372   6.579  0.1171 -0.0265 -0.2456
 1181loPI    C118553   1.983  13.086   4.808 -0.1852  0.0404  0.1635
 1181loPI    C218554   1.694  12.838   4.687  0.0705 -0.0436 -0.2997
 1181loPI    C318555   1.870  13.082   4.424  0.1114  0.3337  0.0683
 1181loPI   PO418556   1.961  13.184   4.989 -0.0345  0.0560  0.0362
 1181loPI   GL118557   1.965  13.141   5.360 -0.3361 -0.0618  0.0038
 1181loPI   GL218558   2.286  13.143   5.542 -0.1573 -0.2774 -0.0384
 1181loPI   C1A18559   1.891  13.161   5.838 -0.2596  0.0765 -0.0694
 1181loPI   C2A18560   1.914  13.214   6.306  0.4362 -0.0398 -0.0267
 1181loPI   C3A18561   1.648  13.111   6.572  0.1714 -0.0042 -0.1574
 1181loPI   C4A18562   1.460  12.873   6.886 -0.4151 -0.1393  0.0708
 1181loPI   C5A18563   1.377  12.479   7.040  0.1477  0.0938  0.3258
 1181loPI   C6A18564   1.089  12.198   7.249  0.2305  0.2289 -0.4492
 1181loPI   C1B18565   2.325  13.070   6.026  0.1074  0.2291 -0.1070
 1181loPI   C2B18566   2.470  13.082   6.411 -0.0441 -0.2905 -0.2706
 1181loPI   C3B18567   2.558  13.112   6.871  0.1716  0.1730  0.0889
 1181loPI   C4B18568   2.357  12.996   7.215  0.3643 -0.0026  0.0975
 1182loPI    C118569   3.788   0.236   4.804 -0.3781  0.2926 -0.0891
 1182loPI    C218570   3.965   0.471   4.533 -0.2354  0.0176 -0.2388
 1182loPI    C318571   3.899   0.085   4.450 -0.0655 -0.1037  0.1686
 1182loPI   PO418572   3.944   0.279   5.081 -0.0602 -0.1778  0.2029
 1182loPI   GL118573   3.761   0.584   5.422 -0.1259  0.3793 -0.0315
 1182loPI   GL218574   4.038   0.567   5.731 -0.1608  0.0297  0.2265
 1182loPI   C1A18575   3.626   0.232   5.669 -0.0957  0.2102  0.1089
 1182loPI   C2A18576   3.734  -0.209   5.818 -0.1385 -0.1296 -0.1534
 1182loPI   C3A18577   3.707  -0.379   6.269 -0.1113  0.0252 -0.2532
 1182loPI   C4A18578   3.912  -0.426   6.654 -0.0150 -0.2142 -0.1714
 1182loPI   C5A18579   3.848  -0.264   7.070  0.0713 -0.0050 -0.2388
 1182loPI   C6A18580   3.574  -0.218   7.477  0.1740 -0.2331 -0.3026
 1182loPI   C1B18581   4.253   0.775   6.050 -0.0051  0.1790  0.2390
 1182loPI   C2B18582   4.365   0.794   6.536 -0.1512 -0.1332 -0.1297
 1182loPI   C3B18583   4.759   0.627   6.785  0.3052  0.1114  0.0405
 1182loPI   C4B18584   4.858   0.291   7.125  0.1312 -0.2337 -0.1477
 1183loPI    C118585   0.634  11.946   4.771 -0.0639  0.0421  0.0480
 1183loPI    C218586   0.698  11.634   4.528 -0.0567 -0.0601  0.1794
 1183loPI    C318587   0.816  12.001   4.419 -0.2759 -0.0634 -0.0795
 1183loPI   PO418588   0.400  11.869   4.888  0.1901 -0.1517  0.0665
 1183loPI   GL118589   0.212  11.698   5.190  0.3739 -0.0797  0.1046
 1183loPI   GL218590  -0.071  11.752   5.231 -0.0848  0.1864 -0.0656
 1183loPI   C1A18591   0.273  11.857   5.586 -0.1302 -0.1377 -0.0333
 1183loPI   C2A18592   0.344  11.771   6.015 -0.0788  0.1088  0.2138
 1183loPI   C3A18593   0.409  11.778   6.440  0.1470  0.2234 -0.2675
 1183loPI   C4A18594   0.512  11.578   6.858 -0.3898  0.4443 -0.4530
 1183loPI   C5A18595   0.465  11.585   7.302 -0.2221 -0.0761 -0.1356
 1183loPI   C6A18596   0.214  11.217   7.420  0.1192  0.0265  0.2412
 1183loPI   C1B18597  -0.246  11.746   5.606  0.1239 -0.0246  0.1580
 1183loPI   C2B18598  -0.177  11.974   5.857 -0.0068 -0.0557 -0.0549
 1183loPI   C3B18599   0.019  12.140   6.251 -0.2472 -0.0024  0.4846
 1183loPI   C4B18600   0.167  12.195   6.648  0.2597 -0.0986 -0.2693
 1184loPI    C118601   6.442  13.554   4.919  0.0229  0.0938 -0.0143
 1184loPI    C218602   6.141  13.718   4.713  0.0036  0.1609  0.0666
 1184loPI    C318603   6.518  13.833   4.644 -0.0120  0.2568  0.1393
 1184loPI   PO418604   6.365  13.597   5.192  0.2919  0.1792  0.0459
 1184loPI   GL118605   6.586  13.564   5.578 -0.0340 -0.1445  0.0099
 1184loPI   GL218606   6.824  13.747   5.682 -0.1337  0.0270 -0.1548
 1184loPI   C1A18607   6.479  13.355   6.034 -0.1895  0.1052  0.0016
 1184loPI   C2A18608   6.483  13.402   6.442  0.1105 -0.1906  0.0880
 1184loPI   C3A18609   6.302  13.533   6.735 -0.1088  0.2298 -0.0464
 1184loPI   C4A18610   6.097  13.668   7.089  0.3153 -0.0653  0.0869
 1184loPI   C5A18611   5.773  13.286   7.324  0.1575 -0.0603 -0.0932
 1184loPI   C6A18612   5.524  13.123   7.615  0.0517 -0.3994  0.0273
 1184loPI   C1B18613   6.845  13.657   6.202 -0.2637 -0.4029  0.0326
 1184loPI   C2B18614   6.861  13.699   6.652 -0.0402  0.2026  0.2466
 1184loPI   C3B18615   6.632  13.612   7.125  0.0539 -0.2262 -0.0315
 1184loPI   C4B18616   6.347  13.537   7.466  0.1094 -0.0052  0.2710
 1185loPI    C118617   8.913  15.429   4.751 -0.1281 -0.1286 -0.0736
 1185loPI    C218618   9.145  15.678   4.541 -0.0901  0.1869  0.3301
 1185loPI    C318619   9.305  15.356   4.715 -0.1075 -0.0321 -0.0478
 1185loPI   PO418620   8.735  15.543   4.819 -0.3931  0.1638 -0.1739
 1185loPI   GL118621   8.751  15.621   5.230  0.0321  0.1190 -0.0883
 1185loPI   GL218622   8.427  15.464   5.318 -0.0540  0.1086  0.1598
 1185loPI   C1A18623   8.532  15.554   5.746 -0.0406  0.2402 -0.1681
 1185loPI   C2A18624   8.440  15.550   6.160  0.2003 -0.0859 -0.0761
 1185loPI   C3A18625   8.115  15.523   6.491 -0.2647  0.0636  0.2866
 1185loPI   C4A18626   7.710  15.578   6.724  0.1498  0.1384 -0.0321
 1185loPI   C5A18627   7.540  15.494   7.105 -0.1473  0.1027 -0.1678
 1185loPI   C6A18628   7.369  15.309   7.439  0.0364  0.1962  0.0438
 1185loPI   C1B18629   8.587  15.150   5.494 -0.0514 -0.0186  0.3613
 1185loPI   C2B18630   8.579  15.035   5.960  0.1386 -0.0930  0.0338
 1185loPI   C3B18631   8.255  15.073   6.237 -0.0043 -0.1629 -0.1031
 1185loPI   C4B18632   8.040  14.995   6.621  0.0298 -0.0080  0.0531
 1186loPI    C118633   6.114   5.017   4.670 -0.0121  0.2539 -0.0896
 1186loPI    C218634   5.936   5.001   4.312  0.0634  0.0326 -0.1188
 1186loPI    C318635   6.293   5.178   4.350  0.0465  0.0734 -0.1491
 1186loPI   PO418636   5.963   4.981   4.853 -0.4569 -0.1255 -0.0356
 1186loPI   GL118637   6.041   5.216   5.211 -0.1372  0.2057 -0.1465
 1186loPI   GL218638   6.298   5.568   5.161 -0.0314 -0.0425 -0.0064
 1186loPI   C1A18639   6.213   5.329   5.629 -0.2887  0.1636 -0.1347
 1186loPI   C2A18640   6.282   5.502   6.030 -0.1445  0.1505 -0.0324
 1186loPI   C3A18641   6.238   5.809   6.226  0.1953  0.0132  0.1129
 1186loPI   C4A18642   6.376   5.899   6.601 -0.0602  0.0629 -0.1330
 1186loPI   C5A18643   6.434   6.065   7.013  0.0873  0.1191  0.3453
 1186loPI   C6A18644   6.398   5.911   7.445 -0.0158  0.0311 -0.1948
 1186loPI   C1B18645   6.543   5.704   5.463  0.1396  0.0356  0.0829
 1186loPI   C2B18646   6.685   5.726   5.915  0.1233 -0.1280  0.0890
 1186loPI   C3B18647   6.750   5.849   6.315  0.1430  0.1852 -0.2427
 1186loPI   C4B18648   6.800   6.053   6.702 -0.1004  0.0433  0.2698
 1187loPI    C118649  14.308   0.440   4.319 -0.0705 -0.0095  0.0365
 1187loPI    C218650  14.027   0.493   4.039 -0.1180  0.1305  0.1099
 1187loPI    C318651  14.100   0.782   4.306  0.1154  0.1066  0.0738
 1187loPI   PO418652  14.251   0.300   4.486  0.1175 -0.1009  0.2844
 1187loPI   GL118653  14.078   0.086   4.768  0.1928  0.5162  0.4801
 1187loPI   GL218654  13.836   0.147   4.777  0.0766  0.0631 -0.0244
 1187loPI   C1A18655  14.207   0.167   5.174  0.0362  0.1673 -0.1966
 1187loPI   C2A18656  14.065   0.177   5.619 -0.2627 -0.1805  0.2193
 1187loPI   C3A18657  13.940   0.303   6.014 -0.3514 -0.1564 -0.0535
 1187loPI   C4A18658  13.739   0.307   6.390  0.0932  0.1815 -0.0479
 1187loPI   C5A18659  13.610  -0.038   6.761  0.0342  0.0997 -0.1293
 1187loPI   C6A18660  13.587  -0.201   7.239 -0.2516  0.1148  0.1730
 1187loPI   C1B18661  13.676   0.251   5.169  0.0834 -0.1908  0.0331
 1187loPI   C2B18662  13.434   0.359   5.521  0.4470 -0.1975 -0.2118
 1187loPI   C3B18663  13.411   0.277   5.898  0.0615  0.3684 -0.1279
 1187loPI   C4B18664  13.334   0.040   6.346  0.3295  0.2728  0.1447
 1188loPI    C118665   9.334   2.180   4.540 -0.2291  0.0369 -0.3664
 1188loPI    C218666   9.467   1.924   4.263 -0.2011 -0.2111 -0.1282
 1188loPI    C318667   9.096   2.073   4.237 -0.2269 -0.2954 -0.2552
 1188loPI   PO418668   9.391   2.337   4.633  0.0851  0.0019 -0.1928
 1188loPI   GL118669   9.296   2.358   5.072  0.0207 -0.2902  0.1463
 1188loPI   GL218670   9.139   2.509   5.095 -0.0801  0.3778 -0.0113
 1188loPI   C1A18671   9.546   2.414   5.441 -0.1516  0.1191 -0.0888
 1188loPI   C2A18672   9.774   2.489   5.839 -0.0995 -0.2688 -0.3124
 1188loPI   C3A18673  10.093   2.636   6.171  0.0846  0.0952  0.4673
 1188loPI   C4A18674  10.256   2.728   6.497 -0.0820 -0.0282  0.0478
 1188loPI   C5A18675  10.161   2.765   6.770 -0.5447  0.0739 -0.2125
 1188loPI   C6A18676  10.068   2.478   7.116  0.2375  0.2680 -0.3619
 1188loPI   C1B18677   9.096   2.650   5.492 -0.1938 -0.2795 -0.1507
 1188loPI   C2B18678   9.249   2.502   5.917  0.0976  0.3498  0.1558
 1188loPI   C3B18679   9.469   2.353   6.256 -0.0878 -0.1894 -0.0494
 1188loPI   C4B18680   9.518   1.958   6.573 -0.0772 -0.3832  0.2784
 1189loPI    C118681  10.784  17.003   4.260  0.2087 -0.0366 -0.0879
 1189loPI    C218682  10.586  17.104   3.928 -0.0660 -0.1294  0.0447
 1189loPI    C318683  10.738  16.736   3.965 -0.0440 -0.1223  0.0264
 1189loPI   PO418684  10.566  17.150   4.479 -0.2093  0.3281 -0.1672
 1189loPI   GL118685  10.599  17.025   4.965 -0.0844  0.3042 -0.0585
 1189loPI   GL218686  10.269  17.039   4.993  0.3579  0.5220 -0.0036
 1189loPI   C1A18687  10.715  16.947   5.399 -0.2951  0.3071  0.2185
 1189loPI   C2A18688  10.943  16.953   5.732 -0.1071  0.1468  0.0388
 1189loPI   C3A18689  10.978  16.844   6.156  0.1919  0.0986 -0.2097
 1189loPI   C4A18690  11.059  16.818   6.502 -0.0474 -0.0366 -0.2704
 1189loPI   C5A18691  10.931  16.758   6.861  0.2767  0.0092 -0.2873
 1189loPI   C6A18692  10.475  16.607   7.073 -0.0253 -0.2118 -0.1111
 1189loPI   C1B18693  10.192  16.902   5.388 -0.2214 -0.1546 -0.1168
 1189loPI   C2B18694  10.348  16.856   5.830 -0.0614 -0.1794 -0.0965
 1189loPI   C3B18695  10.453  16.784   6.217 -0.2301  0.2475 -0.1639
 1189loPI   C4B18696  10.390  16.736   6.613 -0.0098  0.1613 -0.1429
 1190loPI    C118697   2.642   5.532   4.230  0.1045  0.0049 -0.0781
 1190loPI    C218698   2.524   5.828   3.988  0.3340  0.2264  0.0763
 1190loPI    C318699   2.877   5.650   3.929  0.2036 -0.0095 -0.0067
 1190loPI   PO418700   2.601   5.598   4.534  0.1043  0.0047  0.1937
 1190loPI   GL118701   2.498   5.452   4.920 -0.2116  0.1505 -0.1628
 1190loPI   GL218702   2.749   5.155   5.071 -0.1017  0.0413 -0.4815
 1190loPI   C1A18703   2.328   5.472   5.359  0.1543 -0.0884 -0.2485
 1190loPI   C2A18704   2.354   5.486   5.861  0.0438  0.1508  0.1414
 1190loPI   C3A18705   2.340   5.528   6.370  0.3027  0.1115 -0.2353
 1190loPI   C4A18706   2.065   5.409   6.625 -0.1593 -0.1057  0.1702
 1190loPI   C5A18707   2.114   5.559   7.040 -0.0307  0.0503 -0.3483
 1190loPI   C6A18708   2.171   5.524   7.537 -0.0879  0.2068 -0.1813
 1190loPI   C1B18709   2.334   4.998   5.334  0.0239 -0.1346 -0.1763
 1190loPI   C2B18710   2.077   5.143   5.700 -0.1285  0.0377 -0.0876
 1190loPI   C3B18711   1.861   5.471   6.016 -0.1849  0.1091  0.2640
 1190loPI   C4B18712   1.634   5.586   6.410  0.1733 -0.2101 -0.1607
 1191loPI    C118713   1.862   9.821   4.963 -0.3072 -0.0152 -0.2662
 1191loPI    C218714   1.979   9.773   4.584  0.0653  0.0839 -0.1682
 1191loPI    C318715   1.729  10.070   4.679 -0.2062 -0.0762 -0.3678
 1191loPI   PO418716   1.702   9.593   5.069  0.2055 -0.2610 -0.2529
 1191loPI   GL118717   1.717   9.453   5.491 -0.1055 -0.0409  0.4338
 1191loPI   GL218718   1.368   9.242   5.445 -0.0444  0.0208 -0.1051
 1191loPI   C1A18719   1.861   9.132   5.784 -0.0625  0.0732  0.0196
 1191loPI   C2A18720   2.046   8.830   5.932 -0.1332  0.1183  0.1993
 1191loPI   C3A18721   2.058   8.544   6.325  0.2699 -0.1117  0.1193
 1191loPI   C4A18722   2.185   8.531   6.789 -0.1920 -0.0428 -0.0416
 1191loPI   C5A18723   2.061   8.362   7.081  0.0370 -0.0761  0.2116
 1191loPI   C6A18724   2.122   7.994   7.378  0.1715  0.3129 -0.1933
 1191loPI   C1B18725   1.391   9.410   5.867 -0.2524 -0.2529 -0.2493
 1191loPI   C2B18726   1.662   9.162   6.253 -0.2528  0.0681  0.2382
 1191loPI   C3B18727   1.638   8.715   6.505 -0.1627  0.0884 -0.4811
 1191loPI   C4B18728   1.662   8.730   6.967 -0.1382 -0.2065 -0.0339
 1192loPI    C118729   2.223   4.203   4.357  0.0317  0.2290  0.0942
 1192loPI    C218730   2.399   4.321   4.696  0.0652 -0.0183  0.1642
 1192loPI    C318731   2.620   4.243   4.372  0.0422  0.1183  0.1150
 1192loPI   PO418732   2.081   4.037   4.418  0.1572  0.0218 -0.2160
 1192loPI   GL118733   2.033   3.983   4.847 -0.0295 -0.1349  0.0673
 1192loPI   GL218734   1.786   4.116   4.956 -0.2535 -0.0527  0.0424
 1192loPI   C1A18735   2.107   4.241   5.278 -0.3560 -0.1123 -0.2682
 1192loPI   C2A18736   2.132   4.596   5.642  0.1944 -0.1888 -0.1214
 1192loPI   C3A18737   2.162   4.774   6.053  0.0730  0.0555  0.0156
 1192loPI   C4A18738   2.121   4.840   6.566  0.0363  0.0710 -0.0643
 1192loPI   C5A18739   2.245   4.807   7.127  0.2190 -0.0810  0.3232
 1192loPI   C6A18740   2.198   4.698   7.515 -0.4317 -0.2811  0.1927
 1192loPI   C1B18741   1.622   4.367   5.236  0.1216  0.0966 -0.1356
 1192loPI   C2B18742   1.662   4.441   5.558 -0.4371  0.1056 -0.0999
 1192loPI   C3B18743   1.556   4.331   5.906 -0.0150 -0.1780  0.1252
 1192loPI   C4B18744   1.798   4.535   6.323  0.0180  0.2046 -0.0931
 1193loPI    C118745  14.588   9.099   4.528  0.0478 -0.0996 -0.1024
 1193loPI    C218746  14.730   8.945   4.187  0.1994 -0.0365 -0.0686
 1193loPI    C318747  14.416   9.192   4.179 -0.0270 -0.3203 -0.1260
 1193loPI   PO418748  14.760   9.115   4.669 -0.2297  0.0182  0.0454
 1193loPI   GL118749  14.907   8.949   5.111 -0.3162  0.1113 -0.2454
 1193loPI   GL218750  15.153   8.679   5.101 -0.1272  0.0329 -0.0720
 1193loPI   C1A18751  14.540   8.980   5.330  0.0170  0.2081  0.0964
 1193loPI   C2A18752  14.355   8.656   5.645  0.1019  0.0011 -0.1415
 1193loPI   C3A18753  14.229   8.496   6.074  0.1297  0.1509 -0.0139
 1193loPI   C4A18754  14.260   8.618   6.411 -0.0314  0.0294  0.4751
 1193loPI   C5A18755  14.391   8.567   6.718 -0.0822  0.0330  0.0811
 1193loPI   C6A18756  14.759   8.657   6.955  0.0724 -0.0683 -0.0497
 1193loPI   C1B18757  14.799   8.545   5.375 -0.1104  0.0509 -0.0347
 1193loPI   C2B18758  14.777   8.356   5.821  0.2184 -0.1490  0.0039
 1193loPI   C3B18759  14.744   8.449   6.327 -0.0996  0.1908 -0.1133
 1193loPI   C4B18760  14.883   8.772   6.477  0.0504 -0.1027 -0.3276
 1194loPI    C118761   4.942  16.094   4.803 -0.1585  0.4501  0.0017
 1194loPI    C218762   5.023  15.968   4.432  0.3040 -0.0180  0.2478
 1194loPI    C318763   5.078  16.352   4.529  0.0719  0.1330 -0.1895
 1194loPI   PO418764   5.034  16.039   4.983 -0.1207  0.1659  0.4256
 1194loPI   GL118765   4.879  15.957   5.413  0.1142  0.0686 -0.1001
 1194loPI   GL218766   4.781  15.609   5.192  0.1860 -0.0242 -0.1654
 1194loPI   C1A18767   4.985  15.820   5.898  0.4183  0.0624 -0.3805
 1194loPI   C2A18768   5.158  15.744   6.340 -0.1895 -0.2454 -0.1660
 1194loPI   C3A18769   5.308  16.053   6.625  0.1478  0.2214 -0.1457
 1194loPI   C4A18770   5.408  16.393   6.899  0.0445 -0.2789  0.1609
 1194loPI   C5A18771   5.728  16.394   7.235  0.0444 -0.0355 -0.2064
 1194loPI   C6A18772   6.012  16.310   7.515 -0.0770  0.0309 -0.0394
 1194loPI   C1B18773   5.021  15.426   5.538 -0.1248  0.0480 -0.1187
 1194loPI   C2B18774   5.069  15.260   5.962  0.2275 -0.0456  0.0980
 1194loPI   C3B18775   5.088  15.269   6.389  0.0854  0.2320 -0.4673
 1194loPI   C4B18776   5.433  15.158   6.765 -0.0085  0.2944 -0.0946
 1195loPI    C118777  15.926   3.726   4.950 -0.1281 -0.0367 -0.0573
 1195loPI    C218778  15.788   3.528   4.631 -0.2010  0.1829 -0.1637
 1195loPI    C318779  16.077   3.802   4.588 -0.0583  0.0597 -0.0083
 1195loPI   PO418780  15.704   3.720   5.122 -0.1585  0.0052  0.4152
 1195loPI   GL118781  15.725   3.692   5.420 -0.1622 -0.0001  0.1498
 1195loPI   GL218782  15.384   3.809   5.529 -0.1134 -0.0774  0.2725
 1195loPI   C1A18783  15.772   3.699   5.843 -0.0111  0.0614  0.1283
 1195loPI   C2A18784  15.783   3.377   6.138  0.0766 -0.0152  0.0901
 1195loPI   C3A18785  16.110   3.335   6.601 -0.0680 -0.0576  0.0751
 1195loPI   C4A18786  15.905   3.708   6.858  0.1577  0.1591 -0.0350
 1195loPI   C5A18787  15.808   3.817   7.202  0.2909  0.0627 -0.1356
 1195loPI   C6A18788  15.807   3.992   7.585 -0.1798 -0.1070  0.0211
 1195loPI   C1B18789  15.316   4.308   5.711  0.0054 -0.0471  0.0642
 1195loPI   C2B18790  15.539   4.527   5.985  0.2597  0.1026 -0.0934
 1195loPI   C3B18791  15.502   4.408   6.398  0.2949 -0.0952  0.1035
 1195loPI   C4B18792  15.161   4.414   6.672 -0.2274  0.2523  0.0592
 1196loPI    C118793  14.812   7.878   4.316 -0.0160  0.0255  0.2160
 1196loPI    C218794  14.428   7.820   4.219  0.0356  0.0955 -0.0377
 1196loPI    C318795  14.691   7.521   4.184  0.0252  0.0777  0.0340
 1196loPI   PO418796  14.749   7.976   4.547 -0.1553  0.0252  0.1688
 1196loPI   GL118797  14.826   8.032   4.889  0.0531 -0.0196 -0.0301
 1196loPI   GL218798  15.012   7.850   4.976 -0.3849 -0.3425  0.0535
 1196loPI   C1A18799  14.657   8.000   5.275 -0.0623  0.0129 -0.3916
 1196loPI   C2A18800  14.368   8.160   5.694 -0.0756  0.1473 -0.0573
 1196loPI   C3A18801  14.206   8.024   6.118 -0.0768  0.2511 -0.0735
 1196loPI   C4A18802  14.117   8.153   6.560  0.2907 -0.0746  0.2288
 1196loPI   C5A18803  13.802   7.976   6.896  0.1304 -0.0654 -0.1051
 1196loPI   C6A18804  13.391   7.944   7.167 -0.0845  0.0828 -0.4608
 1196loPI   C1B18805  15.151   8.156   5.230  0.1945 -0.1540  0.0610
 1196loPI   C2B18806  15.191   7.970   5.672  0.3104  0.0958  0.2592
 1196loPI   C3B18807  15.572   8.000   5.909 -0.0093 -0.1946  0.0857
 1196loPI   C4B18808  15.592   8.093   6.308 -0.0235  0.1018  0.1518
 1197loPI    C118809   1.800   5.085   4.260 -0.0360  0.2426  0.1922
 1197loPI    C218810   1.458   5.267   4.163 -0.0602  0.1820  0.1630
 1197loPI    C318811   1.800   5.475   4.169 -0.0357  0.1586 -0.1861
 1197loPI   PO418812   1.699   4.897   4.419 -0.0585  0.0116 -0.0117
 1197loPI   GL118813   1.529   4.818   4.775 -0.1486  0.1057  0.1174
 1197loPI   GL218814   1.439   4.495   4.814 -0.0554 -0.1343  0.1204
 1197loPI   C1A18815   1.315   5.107   5.136 -0.0012  0.1672 -0.2656
 1197loPI   C2A18816   1.405   5.212   5.603  0.0846  0.1602 -0.0898
 1197loPI   C3A18817   1.408   5.214   6.029  0.1552 -0.0749  0.0823
 1197loPI   C4A18818   1.223   5.176   6.392  0.3750 -0.0854 -0.0409
 1197loPI   C5A18819   1.195   5.321   6.817 -0.0585 -0.0520  0.1183
 1197loPI   C6A18820   1.040   5.523   7.206 -0.1074 -0.0259  0.0825
 1197loPI   C1B18821   1.247   4.645   5.261  0.0557  0.2282 -0.0649
 1197loPI   C2B18822   1.257   4.657   5.709  0.0069  0.0480 -0.1298
 1197loPI   C3B18823   1.371   4.726   6.148  0.1176 -0.0942 -0.0288
 1197loPI   C4B18824   1.415   4.837   6.674  0.2252  0.1320  0.3133
 1198loPI    C118825  14.416   1.182   4.551 -0.2204  0.0703 -0.1577
 1198loPI    C218826  14.505   0.799   4.624 -0.2104  0.0718 -0.1617
 1198loPI    C318827  14.581   0.957   4.265 -0.1354  0.1009 -0.1334
 1198loPI   PO418828  14.505   1.266   4.707  0.1014  0.0601 -0.3175
 1198loPI   GL118829  14.685   1.103   5.024  0.0755  0.0855  0.0595
 1198loPI   GL218830  14.358   0.961   5.081  0.0807  0.1199 -0.1086
 1198loPI   C1A18831  14.698   1.068   5.417 -0.1175  0.2847  0.0745
 1198loPI   C2A18832  14.647   1.192   5.877  0.0451  0.2058 -0.1974
 1198loPI   C3A18833  14.410   1.309   6.230 -0.3759 -0.0536 -0.3860
 1198loPI   C4A18834  14.303   1.013   6.508 -0.3383 -0.1061 -0.0433
 1198loPI   C5A18835  14.513   0.781   6.780  0.0510 -0.0492 -0.2721
 1198loPI   C6A18836  14.793   0.456   6.887  0.1859 -0.1144 -0.1532
 1198loPI   C1B18837  14.604   0.572   5.259  0.0326  0.1271 -0.2114
 1198loPI   C2B18838  14.685   0.183   5.428 -0.0282 -0.2590 -0.2494
 1198loPI   C3B18839  14.630  -0.091   5.875  0.4260  0.0225 -0.0213
 1198loPI   C4B18840  14.332  -0.078   6.146 -0.0725 -0.2018  0.1148
 1199loPI    C118841  11.558   1.761   4.217  0.5176 -0.0277 -0.0111
 1199loPI    C218842  11.723   1.484   3.981  0.2716 -0.0420 -0.1694
 1199loPI    C318843  11.325   1.503   4.018  0.2978  0.1317  0.0360
 1199loPI   PO418844  11.607   1.679   4.503 -0.0547 -0.1893  0.0631
 1199loPI   GL118845  11.394   1.499   4.897  0.0037 -0.0197  0.1369
 1199loPI   GL218846  11.677   1.464   5.138 -0.0895  0.0681  0.1476
 1199loPI   C1A18847  11.281   1.172   5.303  0.0979 -0.0289 -0.0204
 1199loPI   C2A18848  11.420   1.008   5.695 -0.2740  0.0086  0.1260
 1199loPI   C3A18849  11.370   1.295   6.102  0.2036  0.0795 -0.0887
 1199loPI   C4A18850  11.090   1.398   6.384  0.1954  0.0900 -0.0854
 1199loPI   C5A18851  10.801   1.608   6.585  0.2655  0.0328  0.1791
 1199loPI   C6A18852  10.455   1.563   6.775  0.2666 -0.0423 -0.4213
 1199loPI   C1B18853  11.811   1.327   5.516 -0.1992  0.1664  0.1525
 1199loPI   C2B18854  11.863   1.122   5.975  0.0323 -0.3251  0.4209
 1199loPI   C3B18855  11.757   0.996   6.390 -0.1297 -0.1532  0.0519
 1199loPI   C4B18856  11.689   0.897   6.835  0.1747  0.0126  0.0334
 1200loPI    C118857  14.983  19.247   4.461 -0.1339 -0.0129  0.2625
 1200loPI    C218858  14.784  19.549   4.292 -0.4146 -0.1779  0.2912
 1200loPI    C318859  15.096  19.624   4.531 -0.1235  0.0652 -0.1501
 1200loPI   PO418860  14.798  19.072   4.534  0.2851  0.0220  0.2189
 1200loPI   GL118861  14.620  19.090   4.823 -0.2247  0.0042 -0.4293
 1200loPI   GL218862  14.343  19.182   4.938  0.1113 -0.1706 -0.1311
 1200loPI   C1A18863  14.447  18.759   5.179  0.1546 -0.1282  0.2009
 1200loPI   C2A18864  14.473  18.686   5.473 -0.0392  0.1606  0.2398
 1200loPI   C3A18865  14.549  18.945   5.754  0.0012  0.4836  0.0047
 1200loPI   C4A18866  14.642  19.028   6.229  0.0144  0.1234 -0.2316
 1200loPI   C5A18867  14.465  19.240   6.600  0.0505  0.0879  0.0273
 1200loPI   C6A18868  14.253  19.412   7.005 -0.0835 -0.0980 -0.2686
 1200loPI   C1B18869  14.392  19.250   5.382 -0.2783  0.2465 -0.0353
 1200loPI   C2B18870  14.092  19.184   5.736 -0.1933 -0.0404  0.2843
 1200loPI   C3B18871  14.056  18.917   6.091  0.2250  0.1522  0.2468
 1200loPI   C4B18872  14.240  18.736   6.504 -0.0178 -0.2263 -0.0246
 1201loPI    C118873   9.373  17.378   4.815 -0.0958  0.0023 -0.0261
 1201loPI    C218874   9.293  17.750   4.694 -0.1966 -0.0151 -0.0138
 1201loPI    C318875   9.669  17.645   4.780 -0.1606  0.0693 -0.0665
 1201loPI   PO418876   9.204  17.260   4.868  0.1343 -0.2083  0.0559
 1201loPI   GL118877   8.909  17.040   5.130 -0.0819  0.0037  0.1181
 1201loPI   GL218878   9.127  16.844   5.333  0.3131 -0.0129  0.2744
 1201loPI   C1A18879   8.795  17.255   5.548  0.3084  0.0384 -0.3103
 1201loPI   C2A18880   8.759  17.065   6.023 -0.2380 -0.1772  0.0935
 1201loPI   C3A18881   8.826  17.136   6.481  0.1719  0.1754 -0.0798
 1201loPI   C4A18882   9.017  17.140   6.892 -0.4173 -0.2387 -0.1161
 1201loPI   C5A18883   9.244  17.219   7.234  0.0225  0.2028 -0.0709
 1201loPI   C6A18884   9.565  17.525   7.380  0.0531  0.0363 -0.1912
 1201loPI   C1B18885   9.235  16.743   5.767  0.0434  0.0905  0.2835
 1201loPI   C2B18886   9.113  16.767   6.196 -0.1690  0.1698 -0.1017
 1201loPI   C3B18887   9.163  16.688   6.624 -0.2541  0.0084  0.4174
 1201loPI   C4B18888   9.047  16.377   6.926 -0.0237 -0.2127  0.3925
 1202loPI    C118889  11.664   6.241   4.851 -0.0222 -0.0470 -0.1486
 1202loPI    C218890  11.746   6.326   4.469  0.0073 -0.0033 -0.1327
 1202loPI    C318891  11.448   6.074   4.559  0.1259 -0.1664 -0.1912
 1202loPI   PO418892  11.831   6.198   4.939 -0.3733 -0.1095  0.1380
 1202loPI   GL118893  11.953   6.233   5.294 -0.0653 -0.0071  0.0105
 1202loPI   GL218894  11.710   6.093   5.543  0.2289  0.1323  0.0305
 1202loPI   C1A18895  12.323   6.080   5.550 -0.0685  0.0642  0.0985
 1202loPI   C2A18896  12.365   6.161   5.990 -0.2545  0.1031 -0.0312
 1202loPI   C3A18897  12.630   5.990   6.197 -0.1402 -0.6761  0.2044
 1202loPI   C4A18898  12.790   5.964   6.612  0.1824  0.1022 -0.0309
 1202loPI   C5A18899  13.169   6.025   6.958 -0.0885 -0.1727  0.1541
 1202loPI   C6A18900  13.127   5.991   7.446 -0.2710 -0.6251  0.0598
 1202loPI   C1B18901  11.932   6.258   5.850  0.0473  0.1101  0.0020
 1202loPI   C2B18902  12.016   6.445   6.289  0.1124  0.1172  0.4698
 1202loPI   C3B18903  12.257   6.213   6.553  0.1954  0.0898  0.2167
 1202loPI   C4B18904  12.393   6.127   6.982  0.2456  0.2535 -0.0075
 1203loPI    C118905  11.231   8.902   4.730  0.0755 -0.1476 -0.1246
 1203loPI    C218906  11.007   8.690   4.475 -0.1010  0.1247 -0.2000
 1203loPI    C318907  10.851   9.007   4.663  0.0014 -0.1181  0.3129
 1203loPI   PO418908  11.336   8.772   4.906 -0.0775  0.0178 -0.1381
 1203loPI   GL118909  11.552   8.763   5.334  0.0306 -0.1228 -0.0736
 1203loPI   GL218910  11.477   9.076   5.346 -0.0244  0.2237  0.1507
 1203loPI   C1A18911  11.691   8.988   5.721  0.1557  0.2432  0.1385
 1203loPI   C2A18912  11.814   9.257   5.897 -0.2040 -0.0733 -0.2225
 1203loPI   C3A18913  11.761   9.220   6.403 -0.0896  0.0158 -0.2087
 1203loPI   C4A18914  11.863   9.175   6.824 -0.0364  0.2721  0.0456
 1203loPI   C5A18915  11.967   9.173   7.270  0.0266  0.1061  0.1119
 1203loPI   C6A18916  12.436   9.344   7.403  0.1382  0.0656  0.2320
 1203loPI   C1B18917  11.249   9.119   5.741 -0.1904 -0.1342 -0.3490
 1203loPI   C2B18918  11.024   9.218   6.146  0.3180 -0.0323 -0.0645
 1203loPI   C3B18919  10.793   9.325   6.437 -0.2497  0.4549 -0.2039
 1203loPI   C4B18920  10.669   9.479   6.805 -0.0661 -0.0114 -0.0487
 1204loPI    C118921  16.635  19.089   4.295 -0.3197 -0.1051 -0.0280
 1204loPI    C218922  16.978  19.052   4.093 -0.3027 -0.0152 -0.0163
 1204loPI    C318923  16.632  18.955   3.919 -0.3013  0.1881 -0.1352
 1204loPI   PO418924  16.716  19.004   4.547  0.0206 -0.2138 -0.1342
 1204loPI   GL118925  16.804  18.653   4.743 -0.0900  0.0085  0.2480
 1204loPI   GL218926  16.461  18.656   4.711 -0.0126  0.0485 -0.1627
 1204loPI   C1A18927  16.884  18.450   5.120  0.3141 -0.3271 -0.5101
 1204loPI   C2A18928  16.951  18.357   5.603 -0.2081 -0.4172 -0.0085
 1204loPI   C3A18929  16.952  18.656   5.989 -0.0265  0.0707 -0.2002
 1204loPI   C4A18930  17.044  18.600   6.383 -0.0912  0.0008 -0.2169
 1204loPI   C5A18931  17.204  18.724   6.824 -0.0178  0.1765 -0.1903
 1204loPI   C6A18932  17.502  18.782   7.184 -0.2255 -0.0503  0.0426
 1204loPI   C1B18933  16.466  18.774   5.177  0.2944  0.1888  0.5116
 1204loPI   C2B18934  16.424  18.759   5.585 -0.0977  0.1393  0.0468
 1204loPI   C3B18935  16.365  18.543   5.925 -0.1508 -0.1428  0.0088
 1204loPI   C4B18936  16.521  18.514   6.370 -0.0676  0.0801 -0.3293
 1205loPI    C118937  17.030   1.884   4.439  0.0574  0.2740 -0.0643
 1205loPI    C218938  16.652   1.866   4.310  0.0810 -0.0906 -0.0901
 1205loPI    C318939  16.910   1.575   4.216  0.2410 -0.0912  0.3297
 1205loPI   PO418940  17.008   1.897   4.618  0.0310 -0.0428 -0.3377
 1205loPI   GL118941  17.063   1.641   5.122  0.0242 -0.0795  0.2533
 1205loPI   GL218942  16.850   1.919   5.100  0.1643 -0.0974 -0.4474
 1205loPI   C1A18943  16.846   1.296   5.395 -0.0968  0.1360 -0.0788
 1205loPI   C2A18944  16.901   1.059   5.774 -0.1106 -0.0366  0.4296
 1205loPI   C3A18945  16.801   0.765   6.132  0.0475 -0.0497 -0.2634
 1205loPI   C4A18946  16.955   0.667   6.471 -0.1055  0.2842  0.0188
 1205loPI   C5A18947  17.259   0.571   6.819  0.0445  0.0928 -0.1568
 1205loPI   C6A18948  17.698   0.551   7.029 -0.0493 -0.0449  0.0151
 1205loPI   C1B18949  16.886   1.825   5.523  0.1641 -0.0439  0.0638
 1205loPI   C2B18950  16.806   1.613   5.882 -0.3842  0.2629  0.0965
 1205loPI   C3B18951  16.960   1.544   6.352 -0.0186  0.2333  0.4052
 1205loPI   C4B18952  17.137   1.464   6.783 -0.2230  0.2005 -0.1101
 1206loPI    C118953   6.046  19.052   4.569 -0.6185 -0.0463 -0.1672
 1206loPI    C218954   6.282  18.814   4.349 -0.3999 -0.1626  0.1845
 1206loPI    C318955   6.197  19.184   4.223 -0.2861 -0.2298 -0.0971
 1206loPI   PO418956   5.872  18.892   4.670 -0.2446  0.0275  0.2034
 1206loPI   GL118957   5.747  19.005   5.030 -0.0055 -0.2543  0.0485
 1206loPI   GL218958   5.643  18.703   5.031  0.3143  0.1161  0.0305
 1206loPI   C1A18959   5.801  19.094   5.443  0.1987 -0.0200 -0.0561
 1206loPI   C2A18960   5.794  19.295   5.805 -0.0889  0.2756 -0.1010
 1206loPI   C3A18961   5.895  19.626   5.881 -0.2631  0.3435  0.0265
 1206loPI   C4A18962   6.024  19.937   6.122 -0.3308  0.2164 -0.0645
 1206loPI   C5A18963   6.286  20.000   6.483  0.2609  0.2177 -0.2109
 1206loPI   C6A18964   6.525  19.648   6.694  0.2327  0.2101  0.2931
 1206loPI   C1B18965   5.939  18.625   5.400  0.2037  0.1946  0.0230
 1206loPI   C2B18966   5.967  18.815   5.759  0.3421 -0.0334 -0.0062
 1206loPI   C3B18967   5.774  18.947   6.146 -0.1110  0.0820 -0.0300
 1206loPI   C4B18968   5.815  18.943   6.519 -0.1308 -0.3168  0.0357
 1207loPI    C118969   8.031   1.495   4.359 -0.0739  0.1916 -0.1031
 1207loPI    C218970   8.175   1.219   4.108 -0.0638  0.0886  0.0148
 1207loPI    C318971   7.824   1.160   4.290 -0.1018  0.1922 -0.0238
 1207loPI   PO418972   8.265   1.543   4.679 -0.0742  0.1090  0.1158
 1207loPI   GL118973   8.336   1.295   5.132 -0.2433 -0.1291  0.0165
 1207loPI   GL218974   8.193   0.929   5.166 -0.1034  0.2730  0.2306
 1207loPI   C1A18975   8.657   1.408   5.454  0.2564 -0.1200 -0.5683
 1207loPI   C2A18976   8.712   1.767   5.717  0.1921  0.0641 -0.0949
 1207loPI   C3A18977   8.592   1.734   6.078  0.0332 -0.0345 -0.3500
 1207loPI   C4A18978   8.750   1.933   6.439 -0.0108 -0.2035 -0.1732
 1207loPI   C5A18979   9.042   2.033   6.729  0.1136 -0.1208 -0.0011
 1207loPI   C6A18980   9.387   2.263   6.911  0.1367  0.0104 -0.1853
 1207loPI   C1B18981   8.304   1.031   5.557 -0.1214 -0.0323 -0.3237
 1207loPI   C2B18982   8.333   0.993   6.032 -0.0302  0.1663  0.0062
 1207loPI   C3B18983   8.344   0.749   6.382 -0.1690  0.1171  0.0724
 1207loPI   C4B18984   8.438   0.557   6.760 -0.0922  0.2806 -0.0671
 1208loPI    C118985  18.177  16.528   4.526 -0.0052  0.1041 -0.1699
 1208loPI    C218986  18.545  16.684   4.535  0.0375 -0.0001 -0.0920
 1208loPI    C318987  18.400  16.532   4.194  0.0272  0.1339 -0.1478
 1208loPI   PO418988  18.117  16.413   4.726  0.1961 -0.1696  0.1051
 1208loPI   GL118989  17.786  16.540   4.971 -0.1155  0.0269 -0.1770
 1208loPI   GL218990  18.175  16.761   5.043 -0.0700  0.0935 -0.0194
 1208loPI   C1A18991  17.746  16.840   5.332 -0.0221  0.1121  0.0028
 1208loPI   C2A18992  17.868  16.928   5.674 -0.1534  0.1240 -0.1148
 1208loPI   C3A18993  18.033  16.946   6.112 -0.2824  0.2094 -0.1126
 1208loPI   C4A18994  18.109  17.173   6.449 -0.0972 -0.3247  0.1553
 1208loPI   C5A18995  17.952  17.593   6.553 -0.0267 -0.2083  0.2096
 1208loPI   C6A18996  18.187  17.850   6.852  0.1923 -0.0467 -0.0506
 1208loPI   C1B18997  18.138  16.557   5.394  0.1868 -0.0028 -0.3372
 1208loPI   C2B18998  18.061  16.337   5.827  0.0589  0.5796  0.0947
 1208loPI   C3B18999  17.919  16.143   6.199 -0.2501 -0.1545 -0.0060
 1208loPI   C4B19000  17.758  15.908   6.460 -0.0372 -0.1178  0.0119
 1209loPI    C119001  18.821  10.629   4.940  0.1663 -0.1697 -0.2012
 1209loPI    C219002  18.564  10.367   5.099  0.0326 -0.0274 -0.1804
 1209loPI    C319003  18.638  10.360   4.706 -0.2091  0.1030 -0.2300
 1209loPI   PO419004  19.075  10.558   5.152  0.0803  0.2701 -0.2258
 1209loPI   GL119005  19.194  10.540   5.572  0.1099  0.1156 -0.0703
 1209loPI   GL219006  19.398  10.259   5.562  0.0357  0.0551  0.0255
 1209loPI   C1A19007  19.229  10.510   5.997  0.3489  0.1073 -0.1300
 1209loPI   C2A19008  18.970  10.432   6.291  0.0160  0.1567 -0.1763
 1209loPI   C3A19009  18.629  10.709   6.536  0.1813  0.0190  0.0190
 1209loPI   C4A19010  18.452  11.093   6.643 -0.0933 -0.2815 -0.1471
 1209loPI   C5A19011  18.476  11.509   6.658 -0.1159 -0.1218  0.0534
 1209loPI   C6A19012  18.518  11.822   6.833  0.3926 -0.0474 -0.0994
 1209loPI   C1B19013  19.665  10.112   5.927 -0.2388 -0.1103 -0.0598
 1209loPI   C2B19014  19.787   9.963   6.337  0.2074 -0.1001 -0.1238
 1209loPI   C3B19015  19.648   9.830   6.753 -0.1097 -0.0809  0.0185
 1209loPI   C4B19016  19.408   9.957   7.072 -0.2869  0.1794  0.2759
 1210loPI    C119017  12.073  14.285   4.715 -0.0929 -0.0152  0.0817
 1210loPI    C219018  12.258  14.169   5.049  0.1994  0.0451 -0.0557
 1210loPI    C319019  12.459  14.374   4.771 -0.0750  0.1057 -0.2127
 1210loPI   PO419020  11.847  14.400   4.846  0.4362  0.1643 -0.2715
 1210loPI   GL119021  11.836  14.658   5.246 -0.1647  0.0172 -0.3552
 1210loPI   GL219022  11.811  15.002   5.180  0.2367 -0.0124  0.1162
 1210loPI   C1A19023  11.660  14.551   5.574  0.0598 -0.0644 -0.3274
 1210loPI   C2A19024  11.647  14.306   5.881 -0.1895  0.3800 -0.0844
 1210loPI   C3A19025  11.612  14.279   6.374 -0.0380  0.2346  0.2338
 1210loPI   C4A19026  11.201  14.320   6.602 -0.0592 -0.1095  0.0462
 1210loPI   C5A19027  10.913  14.214   6.896  0.2118  0.1710 -0.1493
 1210loPI   C6A19028  10.716  14.164   7.337 -0.2050  0.2393 -0.1044
 1210loPI   C1B19029  11.697  15.056   5.708 -0.0321  0.0243  0.0818
 1210loPI   C2B19030  11.719  15.205   6.179  0.1468  0.1746  0.3185
 1210loPI   C3B19031  11.687  15.270   6.627 -0.1417 -0.0207  0.0198
 1210loPI   C4B19032  11.811  15.182   7.012 -0.1833  0.0915 -0.0477
 1211loPI    C119033  19.174   7.592   4.639 -0.2817 -0.1961 -0.0068
 1211loPI    C219034  19.051   7.923   4.451  0.0337  0.0010  0.1262
 1211loPI    C319035  19.411   7.769   4.370 -0.1812 -0.4170 -0.0658
 1211loPI   PO419036  19.135   7.700   4.980  0.0018  0.1596  0.0031
 1211loPI   GL119037  18.938   7.568   5.381 -0.1767 -0.3080 -0.0301
 1211loPI   GL219038  18.655   7.642   5.593  0.0661  0.0773  0.1073
 1211loPI   C1A19039  19.102   7.478   5.818 -0.2979 -0.0165 -0.1325
 1211loPI   C2A19040  19.043   7.715   6.155  0.0245 -0.0383 -0.1035
 1211loPI   C3A19041  19.074   7.962   6.495 -0.2069 -0.0961  0.5092
 1211loPI   C4A19042  19.165   7.888   6.917 -0.0447 -0.0622  0.0615
 1211loPI   C5A19043  19.528   7.749   7.083 -0.0609 -0.1608 -0.2529
 1211loPI   C6A19044  19.705   7.372   7.358  0.1430 -0.4393 -0.1062
 1211loPI   C1B19045  18.567   7.629   5.985 -0.2676  0.1586 -0.0886
 1211loPI   C2B19046  18.464   7.701   6.340 -0.4136 -0.0450 -0.3200
 1211loPI   C3B19047  18.539   7.698   6.876  0.0819  0.1595  0.1240
 1211loPI   C4B19048  18.464   8.194   7.025 -0.2873 -0.0598 -0.0032
 1212loPI    C119049  14.635  12.425   4.575 -0.0384 -0.0457  0.1408
 1212loPI    C219050  14.834  12.732   4.414  0.0458 -0.1146  0.1131
 1212loPI    C319051  14.710  12.431   4.182 -0.2459  0.0118  0.1006
 1212loPI   PO419052  14.649  12.551   4.866 -0.2945  0.0172 -0.0440
 1212loPI   GL119053  14.703  12.597   5.209  0.1960 -0.0457 -0.2113
 1212loPI   GL219054  14.772  12.265   5.212  0.1385  0.3701 -0.2643
 1212loPI   C1A19055  14.422  12.424   5.671 -0.4366 -0.1696  0.2880
 1212loPI   C2A19056  14.348  12.385   6.042  0.3554  0.1928 -0.1038
 1212loPI   C3A19057  14.313  12.143   6.493  0.1057  0.0112  0.0119
 1212loPI   C4A19058  14.110  11.703   6.591 -0.0071  0.2055  0.0871
 1212loPI   C5A19059  13.989  11.361   6.852  0.2775  0.3267  0.4693
 1212loPI   C6A19060  13.885  11.104   7.177 -0.0017 -0.0708 -0.2386
 1212loPI   C1B19061  14.701  12.009   5.559 -0.1255 -0.1457  0.0116
 1212loPI   C2B19062  14.621  11.965   5.931  0.1811  0.2714  0.1376
 1212loPI   C3B19063  14.828  12.003   6.357  0.1635  0.1551  0.1332
 1212loPI   C4B19064  14.912  12.056   6.763  0.0271  0.4703 -0.0900
 1213loPI    C119065  19.309   4.037   4.357  0.0355  0.0952 -0.1443
 1213loPI    C219066  18.936   4.000   4.219  0.0084 -0.3020  0.0209
 1213loPI    C319067  19.240   3.835   4.019  0.0956 -0.0029 -0.0987
 1213loPI   PO419068  19.348   3.891   4.591 -0.0650  0.2053  0.2037
 1213loPI   GL119069  19.383   3.927   5.037 -0.1852 -0.0741  0.0447
 1213loPI   GL219070  19.410   4.098   5.266  0.3620  0.0110 -0.0905
 1213loPI   C1A19071  19.760   3.751   5.358  0.1522  0.4942 -0.1945
 1213loPI   C2A19072  19.736   3.658   5.759  0.0299 -0.4218  0.3788
 1213loPI   C3A19073  19.859   3.587   6.159 -0.1162  0.3016  0.5251
 1213loPI   C4A19074  20.092   3.544   6.423 -0.0308 -0.1377 -0.1648
 1213loPI   C5A19075  19.933   3.628   6.746 -0.1313 -0.0740 -0.0750
 1213loPI   C6A19076  19.768   3.760   7.146 -0.1842  0.2355 -0.1708
 1213loPI   C1B19077  19.202   4.319   5.604  0.0052  0.0285 -0.2450
 1213loPI   C2B19078  19.038   4.146   5.902 -0.3948  0.0249 -0.0615
 1213loPI   C3B19079  19.042   4.094   6.275 -0.0011 -0.1747  0.1443
 1213loPI   C4B19080  19.041   4.035   6.722 -0.0284  0.1424  0.0638
 1214loPI    C119081  18.295   4.296   4.809  0.1716 -0.1516  0.0048
 1214loPI    C219082  18.423   3.919   4.771  0.1262 -0.1541 -0.1301
 1214loPI    C319083  18.220   4.092   4.473 -0.0280 -0.0902  0.0106
 1214loPI   PO419084  18.520   4.374   5.037 -0.0671  0.1547 -0.0430
 1214loPI   GL119085  18.479   4.340   5.372 -0.1972  0.0801 -0.0688
 1214loPI   GL219086  18.413   3.970   5.281 -0.2507 -0.2350  0.1337
 1214loPI   C1A19087  18.739   4.364   5.648 -0.0091  0.2435 -0.0515
 1214loPI   C2A19088  18.683   4.489   6.114  0.3074  0.1663  0.3429
 1214loPI   C3A19089  18.712   4.420   6.454  0.3325 -0.0857  0.2790
 1214loPI   C4A19090  18.606   4.366   6.882  0.0808 -0.1309  0.3528
 1214loPI   C5A19091  18.722   3.902   7.094  0.2539 -0.0849  0.1025
 1214loPI   C6A19092  18.946   3.437   7.160  0.0921  0.0767 -0.1957
 1214loPI   C1B19093  18.706   3.829   5.687 -0.2794 -0.0681  0.2003
 1214loPI   C2B19094  18.779   3.694   6.062 -0.1528 -0.3056  0.1697
 1214loPI   C3B19095  19.033   3.594   6.471 -0.0956  0.4774 -0.3727
 1214loPI   C4B19096  19.296   3.598   6.883 -0.0415 -0.1359  0.1176
 1215loPI    C119097   3.980  11.199   4.736  0.4529  0.1419  0.3170
 1215loPI    C219098   3.781  11.449   4.496 -0.1078 -0.2698  0.3316
 1215loPI    C319099   4.141  11.551   4.637 -0.0783  0.2800 -0.1052
 1215loPI   PO419100   3.834  11.234   4.925 -0.4435  0.0520 -0.1524
 1215loPI   GL119101   3.680  11.407   5.300 -0.0296 -0.0472 -0.1067
 1215loPI   GL219102   3.389  11.447   5.412  0.0329 -0.1134  0.2466
 1215loPI   C1A19103   3.807  11.308   5.651 -0.0055  0.2109  0.1951
 1215loPI   C2A19104   3.988  11.419   6.005 -0.2205 -0.1425  0.0996
 1215loPI   C3A19105   4.118  11.343   6.424  0.0315  0.0374  0.0850
 1215loPI   C4A19106   4.012  11.273   6.862 -0.0585 -0.1206 -0.0309
 1215loPI   C5A19107   3.802  11.176   7.318  0.1556  0.1754  0.2098
 1215loPI   C6A19108   3.502  11.357   7.524  0.2313 -0.0711  0.1175
 1215loPI   C1B19109   2.996  11.600   5.675 -0.0495  0.2504  0.1588
 1215loPI   C2B19110   2.786  11.357   6.048 -0.1152  0.1051  0.1083
 1215loPI   C3B19111   3.016  10.989   6.244 -0.0418  0.0224 -0.5088
 1215loPI   C4B19112   2.927  10.532   6.243  0.0516 -0.0697  0.2057
 1216loPI    C119113   0.703  16.200   4.520  0.1325 -0.1949 -0.0183
 1216loPI    C219114   0.876  16.093   4.176  0.1525 -0.1828 -0.0121
 1216loPI    C319115   0.617  16.398   4.183  0.1991 -0.1433 -0.0052
 1216loPI   PO419116   0.862  16.122   4.677  0.1525  0.1845 -0.1688
 1216loPI   GL119117   0.943  16.167   5.081  0.2281  0.1192 -0.0757
 1216loPI   GL219118   0.609  16.392   5.067  0.0645 -0.0298  0.1904
 1216loPI   C1A19119   0.699  16.090   5.425 -0.1586  0.0990 -0.1704
 1216loPI   C2A19120   0.373  16.121   5.746 -0.0446 -0.0810  0.4445
 1216loPI   C3A19121   0.348  16.169   6.208 -0.0154  0.5498 -0.0574
 1216loPI   C4A19122   0.353  16.059   6.568  0.2649  0.0422  0.1333
 1216loPI   C5A19123   0.310  15.917   6.911 -0.0396  0.0745  0.4900
 1216loPI   C6A19124   0.393  16.097   7.307 -0.0511 -0.0488 -0.0375
 1216loPI   C1B19125   0.910  16.691   5.279  0.1070 -0.3843 -0.1387
 1216loPI   C2B19126   1.167  16.753   5.606  0.0830  0.1308  0.1888
 1216loPI   C3B19127   1.326  16.768   6.019 -0.0837 -0.0038 -0.1527
 1216loPI   C4B19128   1.357  16.495   6.464 -0.2750 -0.2884  0.2011
 1217loPI    C119129   7.933   7.105   4.560  0.2639  0.1218 -0.0080
 1217loPI    C219130   7.840   6.745   4.414  0.0121  0.0747  0.2586
 1217loPI    C319131   8.216   6.880   4.389  0.0865 -0.1604  0.0635
 1217loPI   PO419132   7.812   7.102   4.748 -0.1282  0.0623 -0.2379
 1217loPI   GL119133   7.940   7.129   5.138  0.1182  0.0255 -0.0088
 1217loPI   GL219134   7.773   6.968   5.240 -0.0997  0.1960 -0.0869
 1217loPI   C1A19135   8.182   6.984   5.492  0.3034 -0.2622 -0.1101
 1217loPI   C2A19136   8.230   6.989   5.891 -0.0138 -0.0808  0.2136
 1217loPI   C3A19137   8.289   7.000   6.306  0.3275  0.2306  0.2410
 1217loPI   C4A19138   8.349   7.188   6.652  0.2565 -0.1170  0.2924
 1217loPI   C5A19139   8.078   7.225   6.986  0.1640  0.0641  0.1970
 1217loPI   C6A19140   7.765   7.416   7.287 -0.6242  0.1594  0.1657
 1217loPI   C1B19141   7.826   7.352   5.649 -0.0691 -0.0176 -0.4244
 1217loPI   C2B19142   7.781   7.230   6.048  0.1676  0.0572 -0.0272
 1217loPI   C3B19143   7.743   7.154   6.356  0.0581 -0.1303  0.2100
 1217loPI   C4B19144   7.587   7.430   6.676 -0.0409 -0.0072  0.0310
 1218loPI    C119145  17.828   9.110   4.587 -0.1888  0.1073 -0.1542
 1218loPI    C219146  17.511   8.901   4.712 -0.0278  0.0512  0.1710
 1218loPI    C319147  17.461   9.209   4.462 -0.3324  0.0156  0.1838
 1218loPI   PO419148  17.973   9.078   4.864 -0.0368  0.0019  0.1975
 1218loPI   GL119149  18.020   9.351   5.265 -0.0584  0.1416 -0.0573
 1218loPI   GL219150  18.201   9.264   5.267 -0.0917  0.1324 -0.1439
 1218loPI   C1A19151  18.042   9.562   5.606 -0.0493  0.2141 -0.0633
 1218loPI   C2A19152  18.232   9.546   5.859 -0.1621 -0.0166  0.0436
 1218loPI   C3A19153  18.419   9.564   6.228  0.0282  0.0533  0.0133
 1218loPI   C4A19154  18.656   9.518   6.586 -0.3413  0.0219  0.0727
 1218loPI   C5A19155  19.001   9.219   6.690  0.0570 -0.0835  0.0533
 1218loPI   C6A19156  19.347   9.040   6.648  0.2083 -0.2454 -0.0261
 1218loPI   C1B19157  18.103   9.048   5.656  0.0900  0.5099 -0.1124
 1218loPI   C2B19158  18.128   9.112   6.132  0.1549  0.2888  0.0670
 1218loPI   C3B19159  18.170   9.264   6.477 -0.0819 -0.4131  0.2597
 1218loPI   C4B19160  18.141   9.537   6.796 -0.2827 -0.3651  0.1160
 1219loPI    C119161  13.965  12.724   4.479  0.2111 -0.2582  0.1191
 1219loPI    C219162  14.356  12.808   4.463  0.1695 -0.0914 -0.0780
 1219loPI    C319163  14.217  12.471   4.298  0.2296 -0.1519 -0.0058
 1219loPI   PO419164  13.794  12.709   4.743  0.0258 -0.0161  0.1904
 1219loPI   GL119165  13.901  12.493   5.174 -0.0351 -0.2950 -0.1804
 1219loPI   GL219166  14.240  12.170   5.264  0.0112 -0.1307 -0.0712
 1219loPI   C1A19167  13.955  12.515   5.610  0.2927 -0.1421  0.1983
 1219loPI   C2A19168  13.883  12.532   6.041  0.0918  0.0004  0.0147
 1219loPI   C3A19169  13.979  12.612   6.485 -0.0040  0.0027 -0.0542
 1219loPI   C4A19170  14.276  12.557   6.836  0.0944  0.2226  0.0308
 1219loPI   C5A19171  14.474  12.810   6.984 -0.0461  0.0923 -0.0793
 1219loPI   C6A19172  14.715  12.920   7.268  0.1032  0.0313 -0.1058
 1219loPI   C1B19173  14.140  12.031   5.651  0.0202 -0.0403 -0.0151
 1219loPI   C2B19174  14.024  11.977   6.084 -0.0235 -0.0740 -0.1426
 1219loPI   C3B19175  13.792  12.168   6.428  0.1152 -0.1853 -0.5280
 1219loPI   C4B19176  13.749  12.350   6.841 -0.0374  0.1201 -0.3470
 1220loPI    C119177  15.029  18.212   4.040  0.0102 -0.0638  0.0130
 1220loPI    C219178  15.421  18.279   3.992 -0.0275  0.1225 -0.0433
 1220loPI    C319179  15.156  18.565   3.901 -0.1770 -0.0016 -0.0030
 1220loPI   PO419180  15.004  18.122   4.195  0.2555 -0.0123 -0.0950
 1220loPI   GL119181  15.277  17.960   4.384  0.2419  0.2446  0.2623
 1220loPI   GL219182  15.518  18.116   4.489 -0.0304 -0.2304 -0.1132
 1220loPI   C1A19183  15.127  18.009   4.900  0.0502 -0.2306 -0.1494
 1220loPI   C2A19184  15.156  18.058   5.347 -0.3834 -0.0847 -0.0842
 1220loPI   C3A19185  15.287  18.211   5.791  0.3387  0.1126 -0.0180
 1220loPI   C4A19186  15.220  18.279   6.172  0.1484 -0.0069 -0.3783
 1220loPI   C5A19187  15.407  18.414   6.501 -0.0777  0.0909 -0.0883
 1220loPI   C6A19188  15.745  18.400   6.828  0.0111 -0.3496 -0.2035
 1220loPI   C1B19189  15.459  18.350   4.916 -0.1072  0.2285 -0.0172
 1220loPI   C2B19190  15.530  18.674   5.265  0.2530  0.1979 -0.0117
 1220loPI   C3B19191  15.482  18.694   5.729  0.1902 -0.3538 -0.2882
 1220loPI   C4B19192  15.546  18.669   6.115 -0.0553  0.1922  0.0327
 1221loPI    C119193  14.149   6.105   4.674  0.0979  0.1359  0.0010
 1221loPI    C219194  14.201   6.379   4.387 -0.0082  0.1499 -0.0054
 1221loPI    C319195  13.847   6.345   4.569  0.0912  0.2178  0.2037
 1221loPI   PO419196  14.407   6.153   4.842  0.2361 -0.0489  0.2850
 1221loPI   GL119197  14.539   6.497   5.135 -0.0220  0.0046  0.2102
 1221loPI   GL219198  14.734   6.542   4.837 -0.2108  0.0210  0.0576
 1221loPI   C1A19199  14.532   6.690   5.493  0.0984 -0.2086 -0.0283
 1221loPI   C2A19200  14.601   6.825   5.944 -0.0046 -0.3286  0.2062
 1221loPI   C3A19201  14.757   6.782   6.362  0.0287 -0.1525  0.2423
 1221loPI   C4A19202  14.713   6.669   6.803 -0.0868 -0.1444  0.0016
 1221loPI   C5A19203  14.694   6.468   7.231 -0.1058 -0.1948  0.2435
 1221loPI   C6A19204  14.336   6.304   7.507 -0.1018  0.0030 -0.0243
 1221loPI   C1B19205  15.051   6.553   5.236 -0.2876 -0.1997  0.1261
 1221loPI   C2B19206  15.086   6.625   5.582 -0.1017 -0.0069 -0.0655
 1221loPI   C3B19207  15.041   6.628   6.013  0.1914  0.1359  0.2209
 1221loPI   C4B19208  15.401   6.450   6.315  0.0123  0.1647  0.0037
 1222loPI    C119209  17.813  15.751   4.254 -0.0220  0.0656  0.0426
 1222loPI    C219210  18.096  15.498   4.380  0.0875  0.1180 -0.0955
 1222loPI    C319211  18.163  15.729   4.061 -0.1923 -0.0248 -0.2604
 1222loPI   PO419212  17.670  15.874   4.502 -0.0033 -0.1220 -0.1816
 1222loPI   GL119213  17.797  16.061   4.850  0.1530  0.1633  0.0537
 1222loPI   GL219214  17.611  15.732   4.952  0.0557 -0.2234 -0.0134
 1222loPI   C1A19215  17.923  16.003   5.364 -0.0458 -0.0285  0.0042
 1222loPI   C2A19216  17.700  16.020   5.690 -0.0715 -0.2675  0.2535
 1222loPI   C3A19217  17.611  15.753   5.959  0.4467 -0.1557 -0.0364
 1222loPI   C4A19218  17.284  15.792   6.234  0.3582  0.0215  0.1577
 1222loPI   C5A19219  17.038  15.546   6.566  0.0115 -0.0851  0.0803
 1222loPI   C6A19220  16.998  15.105   6.691  0.0053  0.0602  0.3313
 1222loPI   C1B19221  17.423  15.737   5.337 -0.0596  0.0070  0.1151
 1222loPI   C2B19222  17.067  15.666   5.679  0.0266  0.2011 -0.0974
 1222loPI   C3B19223  17.025  15.326   6.117 -0.2077 -0.1267  0.0774
 1222loPI   C4B19224  16.671  15.094   6.288  0.0590  0.1179 -0.2602
 1223loPI    C119225  18.473   5.825   4.649  0.2202 -0.0142 -0.0231
 1223loPI    C219226  18.744   6.030   4.438  0.0699  0.1690 -0.0411
 1223loPI    C319227  18.442   5.847   4.251 -0.0885  0.3686  0.0151
 1223loPI   PO419228  18.477   5.941   4.898  0.1822 -0.3487  0.0443
 1223loPI   GL119229  18.785   6.090   5.194  0.0067 -0.2564 -0.0018
 1223loPI   GL219230  18.943   6.455   5.374  0.1457 -0.0813  0.2024
 1223loPI   C1A19231  18.567   6.019   5.589 -0.1079 -0.0436 -0.2552
 1223loPI   C2A19232  18.308   5.817   5.796  0.1756 -0.1189  0.1499
 1223loPI   C3A19233  18.237   5.724   6.170 -0.0056 -0.1885  0.0425
 1223loPI   C4A19234  18.177   5.677   6.632 -0.0073 -0.2416 -0.0325
 1223loPI   C5A19235  17.969   5.612   7.038 -0.0129  0.1513  0.3423
 1223loPI   C6A19236  17.781   5.665   7.459  0.2154  0.1097 -0.1089
 1223loPI   C1B19237  19.251   6.328   5.707  0.0979 -0.2373  0.0813
 1223loPI   C2B19238  19.384   6.310   6.213 -0.1134 -0.4381 -0.3921
 1223loPI   C3B19239  19.458   6.157   6.687  0.3076 -0.1219  0.1153
 1223loPI   C4B19240  19.569   6.418   7.078 -0.0196  0.1495 -0.0495
 1224loPI    C119241   2.882   9.005   4.633  0.0143  0.2465  0.0705
 1224loPI    C219242   3.172   9.074   4.366 -0.2333 -0.0135 -0.2749
 1224loPI    C319243   2.796   9.183   4.285 -0.2724  0.1289  0.0785
 1224loPI   PO419244   2.979   8.971   4.923 -0.3030  0.0204 -0.1616
 1224loPI   GL119245   2.974   9.010   5.344  0.2896  0.0595  0.4721
 1224loPI   GL219246   3.229   8.801   5.382 -0.1263  0.0909  0.1443
 1224loPI   C1A19247   2.905   9.056   5.690  0.3523  0.4672 -0.1780
 1224loPI   C2A19248   2.768   9.183   6.084  0.0709  0.0085  0.0510
 1224loPI   C3A19249   2.596   9.264   6.491 -0.1393 -0.0483 -0.1344
 1224loPI   C4A19250   2.536   9.364   6.800  0.4280 -0.0519 -0.2668
 1224loPI   C5A19251   2.639   9.719   7.011  0.0226 -0.1186 -0.0784
 1224loPI   C6A19252   2.686  10.171   7.131 -0.2371 -0.3093  0.1056
 1224loPI   C1B19253   3.296   8.784   5.860  0.2391 -0.2647  0.2041
 1224loPI   C2B19254   3.489   8.855   6.241 -0.1905 -0.3319  0.0145
 1224loPI   C3B19255   3.598   8.982   6.686 -0.1647 -0.1200 -0.1392
 1224loPI   C4B19256   3.862   8.786   7.022 -0.0966  0.1441 -0.2679
 1225loPI    C119257  10.131   0.734   4.457  0.1054 -0.2862  0.2184
 1225loPI    C219258  10.349   1.031   4.301 -0.1489 -0.1510  0.1147
 1225loPI    C319259  10.407   0.655   4.179 -0.0857 -0.0948 -0.0308
 1225loPI   PO419260  10.162   0.788   4.649  0.1324 -0.2779  0.0031
 1225loPI   GL119261  10.155   0.542   5.067 -0.0490  0.0585  0.1489
 1225loPI   GL219262  10.464   0.653   5.100  0.0135 -0.0811 -0.4147
 1225loPI   C1A19263   9.980   0.768   5.334 -0.0530 -0.1031  0.0018
 1225loPI   C2A19264   9.704   0.948   5.740 -0.0854  0.5984  0.0100
 1225loPI   C3A19265   9.854   0.930   6.251  0.0644  0.1031  0.0746
 1225loPI   C4A19266   9.791   0.577   6.657 -0.2313 -0.0143  0.1539
 1225loPI   C5A19267   9.348   0.575   6.752  0.3847 -0.0230 -0.1903
 1225loPI   C6A19268   8.990   0.629   7.051 -0.3323 -0.1254 -0.0682
 1225loPI   C1B19269  10.406   0.712   5.521 -0.0786 -0.2081  0.1192
 1225loPI   C2B19270  10.671   0.769   5.892 -0.1801  0.0350  0.0024
 1225loPI   C3B19271  10.973   1.024   6.072 -0.1389 -0.2194  0.3229
 1225loPI   C4B19272  11.240   0.902   6.436 -0.0980 -0.1684  0.0531
 1226loPI    C119273  14.198  15.941   3.866 -0.2357 -0.0906  0.1600
 1226loPI    C219274  13.830  16.065   3.768 -0.1542  0.1867  0.1952
 1226loPI    C319275  14.147  16.192   3.559 -0.0802 -0.0842  0.1387
 1226loPI   PO419276  14.183  15.909   4.204 -0.1142 -0.0555 -0.1031
 1226loPI   GL119277  14.299  16.254   4.512  0.0342  0.2753 -0.1368
 1226loPI   GL219278  14.164  16.204   4.833 -0.5081  0.0959 -0.0878
 1226loPI   C1A19279  14.671  16.366   4.812  0.1744  0.1215 -0.4743
 1226loPI   C2A19280  14.786  16.514   5.166  0.1865 -0.1028 -0.0064
 1226loPI   C3A19281  14.763  16.480   5.560 -0.0685 -0.2538  0.0710
 1226loPI   C4A19282  14.772  16.591   5.960  0.2061 -0.0519 -0.1068
 1226loPI   C5A19283  14.856  16.907   6.327 -0.1810  0.0472 -0.1903
 1226loPI   C6A19284  14.822  17.062   6.691  0.0337 -0.1036 -0.0448
 1226loPI   C1B19285  14.351  16.182   5.168  0.1862  0.0410  0.0025
 1226loPI   C2B19286  14.400  16.099   5.669  0.1261  0.2276 -0.3797
 1226loPI   C3B19287  14.550  16.182   6.039 -0.1467 -0.1740  0.2581
 1226loPI   C4B19288  14.678  15.958   6.386 -0.1857 -0.3124  0.3508
 1227loPI    C119289   6.807  13.218   5.005 -0.0183  0.0790  0.0233
 1227loPI    C219290   6.822  13.385   4.642  0.0720  0.0880  0.0311
 1227loPI    C319291   7.004  13.035   4.708 -0.0334  0.0346  0.0404
 1227loPI   PO419292   6.859  13.466   5.144 -0.0241  0.0469 -0.0681
 1227loPI   GL119293   7.089  13.303   5.567 -0.0666  0.0925 -0.0459
 1227loPI   GL219294   6.950  13.025   5.475  0.2366  0.0976  0.0225
 1227loPI   C1A19295   7.015  13.241   5.984  0.2863  0.0195 -0.0793
 1227loPI   C2A19296   6.894  13.152   6.406  0.3103 -0.0736  0.4222
 1227loPI   C3A19297   6.708  13.145   6.820 -0.3397  0.0750 -0.2048
 1227loPI   C4A19298   6.706  13.099   7.229  0.2022 -0.1742  0.0260
 1227loPI   C5A19299   6.410  13.054   7.539 -0.0007 -0.1316  0.2500
 1227loPI   C6A19300   6.053  12.918   7.594  0.1263  0.3108  0.0791
 1227loPI   C1B19301   6.664  12.916   5.830 -0.2907  0.1848  0.0454
 1227loPI   C2B19302   6.480  12.894   6.209  0.1021 -0.1278 -0.0238
 1227loPI   C3B19303   6.291  12.985   6.535 -0.0298 -0.0158  0.1260
 1227loPI   C4B19304   6.379  12.683   6.921  0.0384  0.0723 -0.3008
 1228loPI    C119305  10.013   2.556   4.020  0.1288 -0.1356  0.3568
 1228loPI    C219306  10.170   2.214   3.885  0.0640 -0.1120  0.2200
 1228loPI    C319307   9.774   2.272   3.871  0.0790 -0.0129  0.2006
 1228loPI   PO419308  10.125   2.649   4.274 -0.3092 -0.1229 -0.0023
 1228loPI   GL119309  10.174   2.491   4.687 -0.0167 -0.3988  0.2176
 1228loPI   GL219310  10.509   2.597   4.689  0.1704 -0.1313 -0.1652
 1228loPI   C1A19311  10.054   2.557   5.118 -0.2008 -0.0646 -0.2876
 1228loPI   C2A19312  10.073   2.850   5.557  0.1949 -0.1155 -0.0816
 1228loPI   C3A19313  10.131   3.160   5.926  0.0099 -0.0008  0.0592
 1228loPI   C4A19314  10.049   3.172   6.354 -0.0678 -0.1749 -0.0627
 1228loPI   C5A19315   9.913   3.179   6.752 -0.5339  0.2755  0.1171
 1228loPI   C6A19316  10.135   3.328   7.135  0.0554  0.1799 -0.0589
 1228loPI   C1B19317  10.810   2.790   4.945 -0.0330  0.0310  0.1949
 1228loPI   C2B19318  11.090   2.843   5.219 -0.2801 -0.0467 -0.2339
 1228loPI   C3B19319  11.186   2.695   5.656  0.0897 -0.2578  0.0615
 1228loPI   C4B19320  11.519   2.589   5.923  0.1516 -0.3023  0.2843
 1229loPI    C119321  16.854   6.141   4.583 -0.0712  0.1988 -0.0429
 1229loPI    C219322  17.180   6.017   4.388 -0.2093  0.2074 -0.2836
 1229loPI    C319323  16.840   5.808   4.362 -0.1447  0.0280  0.2151
 1229loPI   PO419324  16.798   6.205   4.803  0.2074  0.2602 -0.0042
 1229loPI   GL119325  16.524   6.186   5.208  0.0351 -0.1389  0.2367
 1229loPI   GL219326  16.352   6.422   5.266 -0.1619  0.0947  0.1109
 1229loPI   C1A19327  16.574   6.129   5.692 -0.1523 -0.0019 -0.1756
 1229loPI   C2A19328  16.471   6.013   6.250  0.2130  0.1585 -0.1892
 1229loPI   C3A19329  16.533   5.659   6.469  0.1808 -0.2864 -0.1271
 1229loPI   C4A19330  16.388   5.282   6.480  0.0292  0.0895 -0.3050
 1229loPI   C5A19331  16.246   4.897   6.438 -0.0378  0.2075  0.1190
 1229loPI   C6A19332  16.164   4.418   6.360  0.2615  0.2501  0.2015
 1229loPI   C1B19333  16.412   6.570   5.606 -0.1369  0.3018  0.0984
 1229loPI   C2B19334  16.322   6.831   6.035  0.3187  0.0370 -0.0365
 1229loPI   C3B19335  16.177   7.085   6.320 -0.0854  0.1101 -0.1003
 1229loPI   C4B19336  15.847   7.364   6.603  0.1419  0.1793 -0.0698
 1230loPI    C119337  11.845  10.620   4.658  0.0488 -0.0683 -0.1098
 1230loPI    C219338  11.905  10.881   4.361 -0.1710  0.3166  0.1735
 1230loPI    C319339  11.590  10.634   4.350  0.2053 -0.1692 -0.2455
 1230loPI   PO419340  12.094  10.524   4.740 -0.0160 -0.1578  0.0582
 1230loPI   GL119341  12.377  10.502   4.979  0.1212  0.3690  0.0037
 1230loPI   GL219342  12.325  10.272   5.253  0.2160  0.1004  0.1459
 1230loPI   C1A19343  12.629  10.623   5.402  0.0419 -0.0403  0.0598
 1230loPI   C2A19344  12.941  10.526   5.776 -0.3775  0.0407  0.0137
 1230loPI   C3A19345  13.000  10.465   6.154 -0.0971  0.0019  0.0065
 1230loPI   C4A19346  13.060  10.223   6.564 -0.2576 -0.3018 -0.0694
 1230loPI   C5A19347  13.287  10.242   6.862 -0.0452  0.4442 -0.1679
 1230loPI   C6A19348  13.142  10.282   7.264 -0.0427  0.0568  0.2703
 1230loPI   C1B19349  12.630  10.101   5.393 -0.2230 -0.1193 -0.1100
 1230loPI   C2B19350  12.791  10.069   5.779  0.2074 -0.4089 -0.0773
 1230loPI   C3B19351  12.837   9.887   6.263  0.0164 -0.0809  0.0365
 1230loPI   C4B19352  13.094   9.722   6.643 -0.0557 -0.2672  0.0486
 1231loPI    C119353   2.792   1.855   4.869 -0.0057  0.1884  0.0215
 1231loPI    C219354   2.826   2.156   4.608  0.1298 -0.0157 -0.2004
 1231loPI    C319355   2.925   1.784   4.499  0.1975 -0.1036  0.1461
 1231loPI   PO419356   2.880   1.951   5.111 -0.3366 -0.2655  0.3393
 1231loPI   GL119357   2.959   1.951   5.533 -0.2225 -0.1518 -0.0289
 1231loPI   GL219358   2.822   2.271   5.525  0.0891  0.1762  0.3776
 1231loPI   C1A19359   2.991   1.909   6.013 -0.1710  0.0056 -0.2857
 1231loPI   C2A19360   2.629   1.817   6.310 -0.1971 -0.0564  0.0736
 1231loPI   C3A19361   2.311   1.790   6.614 -0.2442 -0.0282 -0.1977
 1231loPI   C4A19362   2.419   1.736   7.021 -0.0093 -0.2425 -0.0457
 1231loPI   C5A19363   2.575   1.626   7.452 -0.1437 -0.1477 -0.3670
 1231loPI   C6A19364   2.740   1.408   7.851 -0.2675  0.0336  0.0289
 1231loPI   C1B19365   2.807   2.401   5.860 -0.2036 -0.0368 -0.2062
 1231loPI   C2B19366   2.763   2.355   6.233  0.0875  0.1568 -0.1391
 1231loPI   C3B19367   2.622   2.195   6.625 -0.1233 -0.1786 -0.0309
 1231loPI   C4B19368   2.566   2.270   7.052 -0.2608  0.1598  0.2045
 1232loPI    C119369  17.355  17.327   4.004 -0.2326 -0.0093 -0.0268
 1232loPI    C219370  17.213  17.362   3.632  0.0018  0.0255 -0.1144
 1232loPI    C319371  17.354  17.010   3.760 -0.0116  0.0317 -0.0828
 1232loPI   PO419372  17.399  17.585   4.118  0.0166  0.0285  0.1184
 1232loPI   GL119373  17.505  17.657   4.596 -0.2081 -0.0167 -0.2628
 1232loPI   GL219374  17.504  17.354   4.508 -0.0901  0.1597  0.0209
 1232loPI   C1A19375  17.675  17.622   5.006 -0.2945  0.1151 -0.1884
 1232loPI   C2A19376  17.734  17.874   5.390 -0.0670 -0.1941 -0.0013
 1232loPI   C3A19377  17.523  18.030   5.653 -0.0415 -0.2392 -0.1897
 1232loPI   C4A19378  17.580  18.034   6.084 -0.0013  0.2732 -0.2526
 1232loPI   C5A19379  17.484  17.955   6.483 -0.2235  0.1473  0.0867
 1232loPI   C6A19380  17.318  18.248   6.775 -0.0350 -0.1095 -0.3910
 1232loPI   C1B19381  17.320  17.281   4.939 -0.2522 -0.1303  0.0277
 1232loPI   C2B19382  17.206  17.058   5.284 -0.0032  0.3376 -0.0895
 1232loPI   C3B19383  17.060  16.764   5.627 -0.0832 -0.2102  0.1423
 1232loPI   C4B19384  17.074  16.642   6.043 -0.2452  0.0387  0.0482
 1233loPI    C119385  10.968   6.612   4.879  0.2472 -0.0787  0.1147
 1233loPI    C219386  11.225   6.537   4.582  0.1788  0.1820 -0.0140
 1233loPI    C319387  10.995   6.863   4.569 -0.0257  0.0493  0.1917
 1233loPI   PO419388  11.089   6.601   5.095  0.1789  0.0098 -0.0483
 1233loPI   GL119389  10.971   6.702   5.517 -0.2686  0.0868  0.0502
 1233loPI   GL219390  10.636   6.655   5.718 -0.2160  0.0817  0.0845
 1233loPI   C1A19391  11.120   6.643   5.899  0.1787 -0.1857  0.1062
 1233loPI   C2A19392  11.121   6.685   6.366 -0.2307  0.1560  0.2656
 1233loPI   C3A19393  11.270   6.445   6.717  0.1027 -0.0650  0.2436
 1233loPI   C4A19394  11.234   6.116   6.969 -0.0994 -0.0247  0.0019
 1233loPI   C5A19395  11.024   5.879   7.231 -0.2628 -0.0236 -0.1804
 1233loPI   C6A19396  10.850   5.693   7.585 -0.3809  0.4080  0.0529
 1233loPI   C1B19397  10.677   6.603   6.173 -0.0427  0.1758  0.1031
 1233loPI   C2B19398  10.697   6.472   6.624 -0.2144  0.0100  0.3541
 1233loPI   C3B19399  10.629   6.210   6.899  0.2729 -0.1211 -0.1294
 1233loPI   C4B19400  10.433   5.961   7.221  0.2004  0.0137 -0.1229
 1234loPI    C119401  16.913   5.170   4.884 -0.1072  0.1875  0.1455
 1234loPI    C219402  16.761   5.465   4.662 -0.2926  0.1190  0.1799
 1234loPI    C319403  16.638   5.089   4.605 -0.0829  0.0524  0.1602
 1234loPI   PO419404  16.942   5.233   5.161 -0.1908  0.2786 -0.0309
 1234loPI   GL119405  16.735   5.359   5.452 -0.1812 -0.0959 -0.1954
 1234loPI   GL219406  16.518   5.183   5.578  0.0261 -0.1036  0.0003
 1234loPI   C1A19407  17.008   5.444   5.793 -0.0064  0.0593 -0.3956
 1234loPI   C2A19408  17.251   5.349   6.192 -0.1624  0.0997 -0.0964
 1234loPI   C3A19409  17.069   5.327   6.578 -0.1774  0.2551 -0.1474
 1234loPI   C4A19410  16.765   5.500   6.888 -0.1126 -0.2198  0.1012
 1234loPI   C5A19411  16.211   5.473   6.968  0.2130 -0.0615  0.2188
 1234loPI   C6A19412  15.858   5.482   7.199  0.1567 -0.2972 -0.0351
 1234loPI   C1B19413  16.172   5.230   5.952 -0.5012  0.1769  0.1407
 1234loPI   C2B19414  15.933   5.279   6.317 -0.0211 -0.0057 -0.0502
 1234loPI   C3B19415  15.791   5.290   6.734 -0.2487  0.1648  0.3791
 1234loPI   C4B19416  15.420   5.212   6.934 -0.0752 -0.2667 -0.0397
 1235loPI    C119417  18.996   2.015   4.480 -0.0801 -0.1192  0.0992
 1235loPI    C219418  18.875   1.714   4.246 -0.2357 -0.0368  0.0716
 1235loPI    C319419  18.871   2.089   4.106  0.2345 -0.0505  0.0049
 1235loPI   PO419420  18.844   1.996   4.758  0.0028  0.1328 -0.1809
 1235loPI   GL119421  18.773   1.963   5.276 -0.3237 -0.2255 -0.1155
 1235loPI   GL219422  19.084   2.138   5.218 -0.6109 -0.2342  0.0857
 1235loPI   C1A19423  18.716   1.848   5.656  0.2324  0.1315 -0.1461
 1235loPI   C2A19424  18.820   1.657   6.140  0.0201  0.1191 -0.1855
 1235loPI   C3A19425  18.834   1.350   6.465 -0.1294 -0.1149 -0.1267
 1235loPI   C4A19426  19.175   1.240   6.671 -0.0633 -0.0510  0.1235
 1235loPI   C5A19427  19.445   1.337   6.982 -0.2537 -0.0340 -0.0290
 1235loPI   C6A19428  19.668   1.608   7.191  0.1576 -0.2714 -0.4787
 1235loPI   C1B19429  19.402   1.944   5.484 -0.2198  0.1852 -0.1275
 1235loPI   C2B19430  19.811   1.901   5.812  0.2219 -0.1313  0.1851
 1235loPI   C3B19431  19.662   1.970   6.289  0.1640 -0.2728 -0.0379
 1235loPI   C4B19432  19.434   2.280   6.477 -0.0416 -0.0154  0.0125
 1236loPI    C119433   1.604   3.372   4.493  0.3500 -0.0405  0.1358
 1236loPI    C219434   1.635   3.733   4.663 -0.0011  0.1816 -0.2536
 1236loPI    C319435   1.647   3.698   4.265 -0.2011 -0.2104 -0.2301
 1236loPI   PO419436   1.341   3.266   4.594  0.1230  0.2180  0.0102
 1236loPI   GL119437   1.130   3.139   4.939  0.1593 -0.0345  0.1173
 1236loPI   GL219438   0.744   3.171   4.973  0.1774  0.0983 -0.0944
 1236loPI   C1A19439   1.319   3.260   5.377 -0.0878 -0.2744 -0.0075
 1236loPI   C2A19440   1.519   3.078   5.700  0.1415 -0.1650 -0.0092
 1236loPI   C3A19441   1.715   2.977   6.118  0.0177  0.1026 -0.0314
 1236loPI   C4A19442   2.003   2.720   6.403  0.0898 -0.0909 -0.0653
 1236loPI   C5A19443   2.164   2.460   6.572 -0.2807  0.2324  0.0628
 1236loPI   C6A19444   2.091   2.159   6.872 -0.3788 -0.2704 -0.0385
 1236loPI   C1B19445   0.907   3.550   5.370 -0.1240 -0.1999  0.2878
 1236loPI   C2B19446   1.270   3.609   5.724  0.1359  0.0020 -0.0142
 1236loPI   C3B19447   1.391   3.865   5.973  0.1205 -0.3148  0.2892
 1236loPI   C4B19448   1.631   3.996   6.337  0.0516 -0.3827 -0.2111
 1237loPI    C119449   4.496   0.731   4.765 -0.2332 -0.0406 -0.0001
 1237loPI    C219450   4.509   0.790   4.369  0.2071 -0.0558  0.0065
 1237loPI    C319451   4.635   1.076   4.618 -0.0657 -0.0473  0.1389
 1237loPI   PO419452   4.292   0.680   4.830 -0.1589  0.1701 -0.1433
 1237loPI   GL119453   4.247   0.676   5.296  0.2497 -0.1035 -0.0885
 1237loPI   GL219454   4.105   0.950   5.375 -0.1444  0.1061 -0.1587
 1237loPI   C1A19455   4.532   0.569   5.613 -0.3140 -0.1953  0.2376
 1237loPI   C2A19456   4.521   0.328   5.959 -0.2725  0.1598  0.3550
 1237loPI   C3A19457   4.641   0.417   6.322 -0.1159 -0.1844  0.0003
 1237loPI   C4A19458   4.723   0.170   6.678  0.2908  0.1418 -0.0071
 1237loPI   C5A19459   4.366  -0.156   7.011  0.2007 -0.3603  0.1222
 1237loPI   C6A19460   4.438  -0.182   7.412  0.0106 -0.2535  0.0237
 1237loPI   C1B19461   4.188   1.202   5.692  0.2170  0.2621  0.0784
 1237loPI   C2B19462   4.322   1.306   6.045 -0.0820 -0.1226 -0.0947
 1237loPI   C3B19463   4.533   1.396   6.428  0.1791 -0.2206  0.0183
 1237loPI   C4B19464   4.571   1.799   6.712 -0.0763  0.0831  0.0593
 1238loPI    C119465  18.899   3.630   4.602  0.1309 -0.1367  0.2013
 1238loPI    C219466  18.746   3.261   4.581 -0.1963  0.0122 -0.1499
 1238loPI    C319467  18.911   3.428   4.257 -0.0250  0.1665  0.0141
 1238loPI   PO419468  18.966   3.630   4.944 -0.0510  0.0538  0.3425
 1238loPI   GL119469  18.946   3.615   5.295 -0.1942  0.1248  0.2291
 1238loPI   GL219470  18.950   3.956   5.271 -0.0393  0.1089 -0.0708
 1238loPI   C1A19471  18.961   3.354   5.662  0.0170 -0.1709  0.0509
 1238loPI   C2A19472  19.017   3.165   6.129 -0.1761 -0.2182 -0.0103
 1238loPI   C3A19473  19.024   2.741   6.514  0.2205  0.3531  0.1518
 1238loPI   C4A19474  18.850   2.409   6.519 -0.1719 -0.0758  0.1085
 1238loPI   C5A19475  19.016   2.000   6.377 -0.2741 -0.1297  0.2200
 1238loPI   C6A19476  19.303   1.643   6.351  0.0647  0.0925  0.0150
 1238loPI   C1B19477  19.240   3.775   5.636  0.0867  0.3233  0.0646
 1238loPI   C2B19478  19.348   3.740   6.072 -0.4978 -0.3176  0.0677
 1238loPI   C3B19479  19.535   3.845   6.508 -0.2667 -0.0423 -0.1666
 1238loPI   C4B19480  19.562   4.185   6.796  0.0254 -0.0864  0.0068
 1239loPI    C119481   8.390   3.989   4.495 -0.0072 -0.0615 -0.0926
 1239loPI    C219482   8.334   4.384   4.468  0.1847 -0.0339 -0.1017
 1239loPI    C319483   8.486   4.181   4.158  0.1150 -0.1103 -0.0863
 1239loPI   PO419484   8.425   3.914   4.784  0.0237  0.0904  0.2363
 1239loPI   GL119485   8.436   3.798   5.215  0.0669 -0.5775  0.1739
 1239loPI   GL219486   8.228   3.613   5.137 -0.3027 -0.2132 -0.1229
 1239loPI   C1A19487   8.694   3.584   5.506  0.2617  0.0094 -0.3041
 1239loPI   C2A19488   8.693   3.343   5.877 -0.0343 -0.2242  0.2084
 1239loPI   C3A19489   8.493   3.269   6.208 -0.0252 -0.1615 -0.1162
 1239loPI   C4A19490   8.340   3.204   6.550  0.1633 -0.1032 -0.2385
 1239loPI   C5A19491   8.151   3.492   6.852  0.1322  0.2830 -0.0356
 1239loPI   C6A19492   7.745   3.705   7.005 -0.0471  0.1268  0.2568
 1239loPI   C1B19493   8.143   3.576   5.533 -0.2858  0.3256  0.4774
 1239loPI   C2B19494   8.039   3.499   5.832 -0.0127  0.0212 -0.2980
 1239loPI   C3B19495   8.014   3.501   6.256 -0.0331  0.1219 -0.1804
 1239loPI   C4B19496   7.738   3.528   6.525 -0.2811 -0.0466 -0.2161
 1240loPI    C119497  19.435   5.263   4.421  0.2273  0.1398 -0.4127
 1240loPI    C219498  19.107   5.046   4.493  0.2627  0.2506  0.1242
 1240loPI    C319499  19.149   5.235   4.143 -0.1148  0.0113 -0.0566
 1240loPI   PO419500  19.538   5.296   4.696 -0.0354  0.4893 -0.0031
 1240loPI   GL119501  19.281   5.486   4.971 -0.2262 -0.2177 -0.0067
 1240loPI   GL219502  19.305   5.820   5.140  0.1616  0.0101  0.1713
 1240loPI   C1A19503  19.292   5.346   5.390  0.1353 -0.3706  0.0106
 1240loPI   C2A19504  19.207   5.420   5.875 -0.1944 -0.1353 -0.0590
 1240loPI   C3A19505  19.148   5.299   6.324 -0.1451 -0.1505  0.1732
 1240loPI   C4A19506  19.293   5.215   6.795 -0.1708  0.4933 -0.1723
 1240loPI   C5A19507  19.669   5.261   7.072  0.2129  0.2933 -0.4400
 1240loPI   C6A19508  19.968   5.115   7.326 -0.2052 -0.0730 -0.2072
 1240loPI   C1B19509  19.103   5.838   5.541  0.0511 -0.2200 -0.6163
 1240loPI   C2B19510  18.850   5.876   5.972  0.1084  0.2349 -0.1723
 1240loPI   C3B19511  18.881   6.226   6.137  0.0178 -0.1160 -0.0636
 1240loPI   C4B19512  19.004   6.221   6.544  0.0492 -0.0207  0.0795
 1241loPI    C119513   1.132  11.424   4.761 -0.2823  0.0374 -0.0638
 1241loPI    C219514   1.189  11.686   4.465  0.1824  0.0078 -0.0067
 1241loPI    C319515   1.105  11.305   4.380 -0.0537  0.0776 -0.0940
 1241loPI   PO419516   0.998  11.674   4.988 -0.0525  0.1575 -0.1695
 1241loPI   GL119517   0.848  12.077   5.193  0.0286 -0.2073  0.0467
 1241loPI   GL219518   0.769  11.788   5.445  0.1604 -0.0719 -0.0065
 1241loPI   C1A19519   0.759  12.361   5.490  0.1503  0.1787 -0.0839
 1241loPI   C2A19520   0.650  12.513   5.865 -0.2630  0.1003 -0.1766
 1241loPI   C3A19521   0.642  12.871   6.195  0.2359 -0.0587 -0.0544
 1241loPI   C4A19522   0.675  13.062   6.634 -0.0905  0.2630  0.0550
 1241loPI   C5A19523   0.861  13.012   7.009  0.0254 -0.1054  0.2075
 1241loPI   C6A19524   1.035  12.858   7.328 -0.2464  0.1375 -0.2112
 1241loPI   C1B19525   0.844  11.933   5.900  0.0428 -0.0569  0.0677
 1241loPI   C2B19526   0.729  12.141   6.221  0.1266 -0.1953 -0.0039
 1241loPI   C3B19527   0.667  12.132   6.653  0.0465  0.1147 -0.0831
 1241loPI   C4B19528   0.536  12.061   7.002 -0.0835 -0.1132 -0.1015
 1242loPI    C119529   2.312   5.245   4.031 -0.1208  0.0998  0.1048
 1242loPI    C219530   2.310   4.885   3.858  0.1764  0.1991 -0.1143
 1242loPI    C319531   2.088   5.181   3.706 -0.0717  0.1103  0.0687
 1242loPI   PO419532   2.259   5.171   4.324  0.2692  0.0207  0.1532
 1242loPI   GL119533   2.117   4.969   4.650 -0.3592 -0.0627 -0.3987
 1242loPI   GL219534   2.422   4.798   4.858  0.0660 -0.3518  0.3015
 1242loPI   C1A19535   1.850   5.162   4.980 -0.1729  0.2384 -0.2611
 1242loPI   C2A19536   1.743   5.424   5.354 -0.1882 -0.1132 -0.1924
 1242loPI   C3A19537   1.591   5.748   5.681 -0.1761  0.1515  0.0535
 1242loPI   C4A19538   1.466   5.861   6.022  0.1736 -0.1443 -0.0849
 1242loPI   C5A19539   1.179   5.665   6.359  0.1209  0.0139 -0.1611
 1242loPI   C6A19540   0.956   5.837   6.784  0.2480  0.0990  0.0135
 1242loPI   C1B19541   2.054   4.707   5.079  0.0876  0.2994 -0.1616
 1242loPI   C2B19542   1.742   4.859   5.349  0.0559 -0.2447 -0.0231
 1242loPI   C3B19543   1.737   4.795   5.843 -0.2012 -0.0587 -0.0732
 1242loPI   C4B19544   1.789   5.080   6.317 -0.2504 -0.0848 -0.3921
 1243loPI    C119545   1.890  15.985   4.650 -0.0312  0.1854 -0.0148
 1243loPI    C219546   1.690  15.739   4.406  0.3333 -0.1379  0.0022
 1243loPI    C319547   1.883  16.055   4.256 -0.1721  0.1733 -0.0148
 1243loPI   PO419548   1.938  15.802   4.874  0.1180  0.0249 -0.3540
 1243loPI   GL119549   1.679  15.535   5.055 -0.0765  0.0119 -0.0064
 1243loPI   GL219550   2.017  15.396   5.141 -0.0047  0.1037  0.0844
 1243loPI   C1A19551   1.443  15.255   5.296  0.1080  0.0652 -0.2444
 1243loPI   C2A19552   1.235  15.266   5.624  0.1897  0.2194 -0.1137
 1243loPI   C3A19553   1.096  15.266   6.029 -0.1976  0.2541  0.1870
 1243loPI   C4A19554   1.120  15.485   6.474  0.1678  0.1707  0.0419
 1243loPI   C5A19555   1.198  15.566   6.905  0.2070  0.0703  0.0891
 1243loPI   C6A19556   1.269  15.854   7.348 -0.1439  0.0707 -0.0711
 1243loPI   C1B19557   1.919  15.221   5.427  0.0510 -0.2187 -0.3709
 1243loPI   C2B19558   1.958  15.151   5.757 -0.3713  0.2882  0.2072
 1243loPI   C3B19559   2.028  15.028   6.163 -0.0771  0.1350  0.4133
 1243loPI   C4B19560   2.300  15.134   6.529  0.0601 -0.1653 -0.0262
 1244loPI    C119561   1.120  15.712   4.380  0.0936  0.0328  0.0186
 1244loPI    C219562   1.327  15.453   4.156  0.2692 -0.0843  0.3106
 1244loPI    C319563   1.013  15.646   4.000  0.2806 -0.2943  0.0192
 1244loPI   PO419564   1.205  15.699   4.617  0.2725 -0.1270 -0.0328
 1244loPI   GL119565   1.382  15.932   4.914  0.1055  0.1155  0.0957
 1244loPI   GL219566   1.471  16.144   4.990  0.1249 -0.0322  0.0406
 1244loPI   C1A19567   1.250  15.735   5.312 -0.0527 -0.2512 -0.1883
 1244loPI   C2A19568   1.161  15.801   5.666 -0.2925 -0.0161 -0.1811
 1244loPI   C3A19569   0.935  15.928   5.990  0.1594 -0.1853 -0.0900
 1244loPI   C4A19570   0.938  15.978   6.393  0.0331 -0.0172  0.1232
 1244loPI   C5A19571   1.253  15.935   6.642 -0.2391 -0.1958  0.1517
 1244loPI   C6A19572   1.433  16.152   6.965 -0.0609 -0.2038  0.1142
 1244loPI   C1B19573   1.306  16.385   5.250  0.3911  0.2209  0.1027
 1244loPI   C2B19574   1.339  16.270   5.727  0.1748  0.1136 -0.1909
 1244loPI   C3B19575   1.360  16.148   6.129  0.1457  0.1219  0.1123
 1244loPI   C4B19576   1.384  15.750   6.164  0.0376 -0.1837 -0.1682
 1245loPI    C119577  16.128   8.416   4.984 -0.2794  0.1018 -0.0741
 1245loPI    C219578  16.245   8.187   4.677 -0.0121 -0.0243  0.1180
 1245loPI    C319579  16.040   8.524   4.609  0.1620  0.0195 -0.2065
 1245loPI   PO419580  16.329   8.323   5.207 -0.1259  0.0088  0.0790
 1245loPI   GL119581  16.291   8.523   5.604 -0.0341 -0.1834 -0.1276
 1245loPI   GL219582  16.411   8.874   5.624 -0.3247 -0.0493  0.1104
 1245loPI   C1A19583  16.507   8.533   6.021  0.0463 -0.0875 -0.0383
 1245loPI   C2A19584  16.679   8.702   6.336  0.0089  0.0232 -0.0126
 1245loPI   C3A19585  16.719   8.960   6.625  0.0181  0.0469  0.1824
 1245loPI   C4A19586  16.878   9.216   6.884  0.2815 -0.1989  0.4053
 1245loPI   C5A19587  16.802   9.098   7.186  0.0023  0.0600 -0.1589
 1245loPI   C6A19588  16.595   9.010   7.578  0.1277 -0.1855 -0.0427
 1245loPI   C1B19589  16.156   8.925   5.997  0.0955 -0.0197 -0.0807
 1245loPI   C2B19590  16.174   8.970   6.385 -0.0034  0.1590 -0.1742
 1245loPI   C3B19591  16.188   8.661   6.670 -0.1603 -0.1088  0.1963
 1245loPI   C4B19592  15.898   8.577   7.075 -0.0360  0.0937 -0.2738
 1246loPI    C119593  17.881  13.557   4.360 -0.1968  0.0153  0.1083
 1246loPI    C219594  17.953  13.681   3.987 -0.0990 -0.2036  0.0522
 1246loPI    C319595  17.583  13.701   4.136 -0.0665  0.2547  0.0861
 1246loPI   PO419596  18.085  13.704   4.538  0.2022 -0.0547 -0.1396
 1246loPI   GL119597  18.238  13.594   5.024  0.0371 -0.0060 -0.0134
 1246loPI   GL219598  18.271  13.863   5.081 -0.0968 -0.1637 -0.1668
 1246loPI   C1A19599  18.230  13.445   5.470 -0.1493  0.1009 -0.0545
 1246loPI   C2A19600  18.031  13.585   5.888 -0.0205  0.1638 -0.2638
 1246loPI   C3A19601  17.948  13.831   6.315  0.1119  0.2202  0.3948
 1246loPI   C4A19602  17.660  14.060   6.509  0.0415 -0.0460  0.0738
 1246loPI   C5A19603  17.547  14.208   6.887 -0.0605  0.0451  0.0995
 1246loPI   C6A19604  17.241  14.325   7.126  0.1606 -0.1590  0.0507
 1246loPI   C1B19605  18.085  13.923   5.489  0.2526  0.3950 -0.0038
 1246loPI   C2B19606  18.056  14.132   5.849  0.0501 -0.1913  0.2365
 1246loPI   C3B19607  17.943  14.364   6.267  0.0308 -0.1224  0.1659
 1246loPI   C4B19608  18.114  14.553   6.545 -0.0020  0.0995 -0.0339
 1247loPI    C119609   2.546   8.106   4.774 -0.2527 -0.1060  0.0516
 1247loPI    C219610   2.793   7.995   4.480 -0.0222  0.1060  0.1624
 1247loPI    C319611   2.530   8.290   4.419 -0.1262  0.0011  0.1007
 1247loPI   PO419612   2.666   8.036   4.939 -0.2228 -0.0775 -0.1256
 1247loPI   GL119613   2.850   8.107   5.274  0.2146  0.0157 -0.1837
 1247loPI   GL219614   3.205   8.003   5.300 -0.2177 -0.0432  0.1825
 1247loPI   C1A19615   2.732   8.059   5.733 -0.1424  0.2490  0.0533
 1247loPI   C2A19616   2.679   7.792   6.106  0.1626  0.0635 -0.0676
 1247loPI   C3A19617   2.701   7.450   6.252 -0.3397 -0.1817 -0.2425
 1247loPI   C4A19618   2.360   7.086   6.448  0.0199  0.0182  0.1365
 1247loPI   C5A19619   2.127   6.790   6.827 -0.0746  0.0648  0.0424
 1247loPI   C6A19620   1.815   6.451   6.893 -0.0173 -0.0147 -0.0111
 1247loPI   C1B19621   3.004   7.696   5.590 -0.5016  0.0431  0.1064
 1247loPI   C2B19622   2.742   7.451   5.778  0.1182  0.0628  0.2182
 1247loPI   C3B19623   2.426   7.243   5.885 -0.4011  0.4078 -0.0186
 1247loPI   C4B19624   2.058   7.099   6.044  0.1178  0.3523  0.3516
 1248loPI    C119625  16.102  14.168   4.482  0.2199  0.0425  0.0143
 1248loPI    C219626  15.780  14.085   4.260  0.0591  0.0849  0.2275
 1248loPI    C319627  16.023  14.386   4.156  0.0054  0.0819  0.0909
 1248loPI   PO419628  16.054  14.193   4.678 -0.3864  0.3602 -0.3584
 1248loPI   GL119629  15.891  14.293   5.060 -0.0733 -0.1355  0.4849
 1248loPI   GL219630  15.814  14.011   5.217 -0.4855  0.0388  0.1304
 1248loPI   C1A19631  16.119  14.322   5.484  0.0769 -0.0543  0.2054
 1248loPI   C2A19632  16.396  14.447   5.849  0.1375 -0.0382  0.2113
 1248loPI   C3A19633  16.314  14.689   6.186  0.4405 -0.3245 -0.0255
 1248loPI   C4A19634  16.112  15.190   6.299  0.1057  0.0127 -0.0205
 1248loPI   C5A19635  15.785  15.339   6.632 -0.1468  0.0329  0.1374
 1248loPI   C6A19636  15.475  15.477   6.738 -0.2883  0.0697 -0.0248
 1248loPI   C1B19637  15.538  14.170   5.413 -0.0657 -0.0565  0.1776
 1248loPI   C2B19638  15.461  14.451   5.685 -0.2977  0.2158 -0.3279
 1248loPI   C3B19639  15.448  14.537   6.082 -0.1474 -0.0371 -0.0186
 1248loPI   C4B19640  15.295  14.508   6.505  0.1635  0.1358 -0.1024
 1249loPI    C119641   4.033  18.275   4.417  0.0623  0.1612 -0.0529
 1249loPI    C219642   4.153  17.904   4.506  0.0662  0.2252  0.2175
 1249loPI    C319643   4.156  18.029   4.126 -0.1591 -0.1295  0.0939
 1249loPI   PO419644   4.185  18.379   4.673 -0.1341 -0.1775  0.0376
 1249loPI   GL119645   4.274  18.463   5.141  0.0739 -0.1219 -0.2898
 1249loPI   GL219646   4.022  18.473   5.211 -0.1222 -0.0393 -0.1334
 1249loPI   C1A19647   4.167  18.200   5.554  0.1445 -0.3842  0.1824
 1249loPI   C2A19648   4.071  18.222   5.931  0.0839 -0.1841  0.0822
 1249loPI   C3A19649   3.900  17.967   6.308 -0.0532  0.1271  0.0717
 1249loPI   C4A19650   3.796  17.558   6.578  0.0219 -0.3535 -0.1575
 1249loPI   C5A19651   3.652  17.203   6.906  0.2493 -0.2341  0.2042
 1249loPI   C6A19652   3.587  16.983   7.183 -0.1755 -0.3296  0.1073
 1249loPI   C1B19653   4.078  18.728   5.575 -0.0673  0.2981 -0.0609
 1249loPI   C2B19654   4.089  18.957   5.939 -0.1381  0.1660  0.0350
 1249loPI   C3B19655   4.233  18.873   6.350 -0.0597 -0.3159 -0.0521
 1249loPI   C4B19656   4.342  18.729   6.766 -0.1070  0.0405  0.1284
 1250loPI    C119657  16.092  10.836   4.645 -0.0272 -0.1903 -0.0927
 1250loPI    C219658  16.475  10.735   4.702  0.0054 -0.0460 -0.0534
 1250loPI    C319659  16.336  10.793   4.331  0.0013 -0.1757 -0.0725
 1250loPI   PO419660  15.938  10.637   4.852 -0.0850 -0.1202 -0.1792
 1250loPI   GL119661  15.904  10.596   5.280  0.2641 -0.0625 -0.4687
 1250loPI   GL219662  16.234  10.597   5.250  0.0769 -0.0705 -0.0601
 1250loPI   C1A19663  16.103  10.430   5.647  0.0284  0.4643 -0.0511
 1250loPI   C2A19664  16.196  10.466   6.112  0.4580  0.2618 -0.1635
 1250loPI   C3A19665  16.132  10.366   6.649  0.0114 -0.2709 -0.2750
 1250loPI   C4A19666  16.396  10.502   7.017  0.1270  0.0069  0.2210
 1250loPI   C5A19667  16.434  10.804   7.205 -0.2353 -0.0220  0.0148
 1250loPI   C6A19668  16.816  11.019   7.304  0.0501  0.1528 -0.0607
 1250loPI   C1B19669  16.279  10.897   5.691 -0.0837 -0.3500  0.1158
 1250loPI   C2B19670  16.547  11.181   5.813  0.3141  0.1093 -0.0049
 1250loPI   C3B19671  17.047  11.060   5.851 -0.0864  0.2860 -0.0810
 1250loPI   C4B19672  17.084  10.837   6.310 -0.0966  0.0099 -0.1559
 1251loPI    C119673   4.694  16.519   4.778  0.0156 -0.0256  0.3410
 1251loPI    C219674   4.343  16.351   4.684  0.1947 -0.2168 -0.0083
 1251loPI    C319675   4.443  16.705   4.528  0.2931 -0.3153 -0.1723
 1251loPI   PO419676   4.662  16.440   5.010  0.2422 -0.4227  0.1098
 1251loPI   GL119677   4.820  16.644   5.299  0.1995  0.0616  0.1887
 1251loPI   GL219678   4.951  17.032   5.302 -0.0373  0.1308 -0.2007
 1251loPI   C1A19679   4.540  17.057   5.543  0.4269  0.2464  0.1218
 1251loPI   C2A19680   4.462  17.146   5.968  0.2949  0.3885  0.0947
 1251loPI   C3A19681   4.476  17.089   6.396 -0.2629  0.2349 -0.0773
 1251loPI   C4A19682   4.659  16.764   6.688  0.0941  0.2334  0.1357
 1251loPI   C5A19683   4.945  16.513   6.882  0.2907 -0.3506  0.2239
 1251loPI   C6A19684   4.996  16.113   6.966  0.0615  0.1865 -0.1286
 1251loPI   C1B19685   5.122  17.014   5.710 -0.0513 -0.2990 -0.1563
 1251loPI   C2B19686   4.974  17.071   6.156 -0.3427 -0.1319 -0.1644
 1251loPI   C3B19687   4.970  17.218   6.591  0.1796 -0.1400  0.0505
 1251loPI   C4B19688   4.954  17.110   7.003  0.3662  0.0038 -0.0592
 1252loPI    C119689  10.834  11.349   4.555  0.0288 -0.0016 -0.1260
 1252loPI    C219690  11.136  11.130   4.411  0.0735 -0.0110 -0.0188
 1252loPI    C319691  11.077  11.502   4.276  0.0821 -0.0389 -0.1000
 1252loPI   PO419692  10.832  11.306   4.857 -0.1636 -0.0377 -0.3066
 1252loPI   GL119693  10.681  11.020   5.140  0.0500 -0.2654 -0.1356
 1252loPI   GL219694  10.924  10.748   5.226  0.0963  0.0416 -0.1025
 1252loPI   C1A19695  10.708  11.068   5.576  0.0400  0.1622 -0.0821
 1252loPI   C2A19696  10.926  10.896   5.906 -0.1921 -0.2543 -0.2077
 1252loPI   C3A19697  10.996  10.912   6.282 -0.1689 -0.3016  0.1149
 1252loPI   C4A19698  11.303  10.623   6.439 -0.0627 -0.1070  0.1139
 1252loPI   C5A19699  11.769  10.561   6.332  0.2324 -0.1067 -0.0123
 1252loPI   C6A19700  12.059  10.227   6.354 -0.2082 -0.4666  0.3453
 1252loPI   C1B19701  11.087  10.577   5.532 -0.2027 -0.1392 -0.0825
 1252loPI   C2B19702  11.227  10.548   5.916 -0.1820  0.1748  0.2556
 1252loPI   C3B19703  11.701  10.571   5.794  0.5029 -0.2334 -0.1606
 1252loPI   C4B19704  12.089  10.582   5.554  0.1199  0.0713 -0.1625
 1253loPI    C119705  16.440   1.079   4.408 -0.2536 -0.1217 -0.0676
 1253loPI    C219706  16.242   0.745   4.311 -0.0954 -0.1644 -0.2498
 1253loPI    C319707  16.599   0.822   4.146  0.0324 -0.0784  0.0595
 1253loPI   PO419708  16.399   1.067   4.660  0.1569  0.0992  0.3623
 1253loPI   GL119709  16.284   0.784   5.061  0.0054  0.0348 -0.0168
 1253loPI   GL219710  16.050   0.760   5.166  0.3513  0.1907 -0.0396
 1253loPI   C1A19711  16.387   0.997   5.378  0.1958  0.3330 -0.3343
 1253loPI   C2A19712  16.434   1.273   5.695  0.0116 -0.1613  0.1914
 1253loPI   C3A19713  16.627   1.234   6.143  0.2235  0.0067  0.0959
 1253loPI   C4A19714  16.728   1.117   6.493  0.1780 -0.0928  0.3418
 1253loPI   C5A19715  16.792   0.914   6.872 -0.2788 -0.1193  0.2020
 1253loPI   C6A19716  16.560   0.763   7.319  0.0125 -0.0167  0.3129
 1253loPI   C1B19717  16.196   0.471   5.422  0.0504  0.1787 -0.0970
 1253loPI   C2B19718  16.163   0.222   5.734 -0.0641  0.1893  0.0470
 1253loPI   C3B19719  15.946  -0.030   6.009 -0.1756 -0.2742  0.1184
 1253loPI   C4B19720  15.520  -0.384   6.151  0.0284  0.3973  0.3284
 1254loPI    C119721   6.931   3.340   4.854 -0.0857 -0.1190  0.1368
 1254loPI    C219722   7.229   3.347   4.587 -0.1026 -0.0552  0.1194
 1254loPI    C319723   7.144   3.675   4.800 -0.1382 -0.0835  0.1490
 1254loPI   PO419724   6.896   3.101   4.800  0.0667 -0.0531  0.2521
 1254loPI   GL119725   6.971   2.892   5.133  0.1269 -0.0401  0.0325
 1254loPI   GL219726   6.606   2.771   5.217  0.2094  0.0854  0.0850
 1254loPI   C1A19727   7.101   3.031   5.588 -0.1305  0.0293 -0.1329
 1254loPI   C2A19728   7.111   3.460   5.917 -0.0424 -0.1736 -0.0805
 1254loPI   C3A19729   6.950   3.536   6.369  0.3026  0.0361  0.0685
 1254loPI   C4A19730   6.743   3.563   6.774  0.0047 -0.1490 -0.1191
 1254loPI   C5A19731   6.443   3.380   7.122 -0.1038 -0.1727 -0.0036
 1254loPI   C6A19732   6.152   3.281   7.506  0.0043  0.0506  0.0445
 1254loPI   C1B19733   6.612   2.779   5.645 -0.2734  0.0970  0.1888
 1254loPI   C2B19734   6.454   2.589   5.969  0.2489  0.0214 -0.0824
 1254loPI   C3B19735   6.466   2.576   6.278 -0.1585  0.1000  0.1838
 1254loPI   C4B19736   6.342   2.615   6.676 -0.0180  0.1586  0.4855
 1255loPI    C119737  14.050   9.622   4.691  0.2907 -0.2029 -0.0390
 1255loPI    C219738  13.991   9.401   4.363 -0.2253 -0.0474 -0.0607
 1255loPI    C319739  14.030   9.798   4.333  0.0534 -0.0645  0.0398
 1255loPI   PO419740  13.805   9.527   4.823  0.0257  0.0795 -0.0055
 1255loPI   GL119741  13.425   9.581   5.162 -0.1125  0.1643  0.1729
 1255loPI   GL219742  13.614   9.380   5.387 -0.1293  0.0282 -0.0602
 1255loPI   C1A19743  13.507   9.876   5.448  0.0490 -0.1851 -0.0468
 1255loPI   C2A19744  13.419   9.887   5.866 -0.0827  0.3741 -0.1508
 1255loPI   C3A19745  13.322   9.972   6.199 -0.0484 -0.0082 -0.1286
 1255loPI   C4A19746  13.540   9.947   6.607 -0.0281 -0.0476  0.1479
 1255loPI   C5A19747  13.845   9.861   6.852 -0.1425  0.0454  0.1222
 1255loPI   C6A19748  14.289  10.069   7.049  0.1212  0.2983  0.1269
 1255loPI   C1B19749  13.357   9.266   5.776  0.2632 -0.2965 -0.1934
 1255loPI   C2B19750  13.554   9.095   6.095 -0.2385 -0.1249 -0.2217
 1255loPI   C3B19751  13.700   8.915   6.490  0.0753 -0.1680 -0.1734
 1255loPI   C4B19752  13.987   8.905   6.757 -0.0677 -0.1315  0.1086
 1256loPI    C119753  18.452  11.886   4.555 -0.2172 -0.2204 -0.0682
 1256loPI    C219754  18.740  11.782   4.296  0.0205  0.1119  0.0563
 1256loPI    C319755  18.365  11.653   4.241  0.2145 -0.4416 -0.0319
 1256loPI   PO419756  18.439  11.828   4.883  0.2069 -0.0418 -0.0049
 1256loPI   GL119757  18.738  11.748   5.145  0.0973 -0.0512  0.0935
 1256loPI   GL219758  18.931  11.881   5.260 -0.0289 -0.1198 -0.1179
 1256loPI   C1A19759  18.788  11.576   5.638  0.0805 -0.1888  0.1283
 1256loPI   C2A19760  18.982  11.648   6.051  0.2347 -0.6544 -0.1910
 1256loPI   C3A19761  18.786  11.790   6.373 -0.1279  0.1016 -0.1284
 1256loPI   C4A19762  19.048  11.987   6.714  0.4456 -0.3243 -0.0988
 1256loPI   C5A19763  19.078  12.474   6.932 -0.1044 -0.1825  0.1232
 1256loPI   C6A19764  18.906  12.745   7.006  0.0925  0.0199 -0.0880
 1256loPI   C1B19765  18.871  12.090   5.567 -0.0691  0.3229  0.0461
 1256loPI   C2B19766  18.988  12.170   6.058 -0.0571  0.1401  0.2258
 1256loPI   C3B19767  18.925  12.376   6.382  0.0241  0.2332  0.2543
 1256loPI   C4B19768  19.023  12.837   6.476  0.2275 -0.3311 -0.1681
 1257loPI    C119769   6.692   9.996   5.236 -0.0964 -0.2144 -0.1066
 1257loPI    C219770   6.895  10.100   4.907 -0.0012  0.0066  0.0202
 1257loPI    C319771   6.495  10.124   4.912 -0.0098 -0.1006 -0.1150
 1257loPI   PO419772   6.854  10.033   5.478  0.0831 -0.3555  0.0812
 1257loPI   GL119773   7.159   9.983   5.818 -0.0891 -0.0157  0.0794
 1257loPI   GL219774   6.822  10.198   5.968 -0.0667  0.0651  0.1198
 1257loPI   C1A19775   7.236   9.905   6.296 -0.1532 -0.1354 -0.0226
 1257loPI   C2A19776   7.153   9.917   6.718 -0.2124 -0.0128 -0.2537
 1257loPI   C3A19777   7.123   9.902   7.191 -0.2940 -0.1090 -0.2271
 1257loPI   C4A19778   6.924  10.129   7.486 -0.0135  0.0952  0.0421
 1257loPI   C5A19779   6.512  10.452   7.578  0.0850  0.2100  0.0087
 1257loPI   C6A19780   6.228  10.737   7.384  0.0105 -0.2532  0.3917
 1257loPI   C1B19781   6.820  10.390   6.395 -0.3015 -0.0639 -0.3045
 1257loPI   C2B19782   6.881  10.357   6.822 -0.0427  0.0152 -0.0012
 1257loPI   C3B19783   7.303  10.388   7.023 -0.2143  0.2972  0.3070
 1257loPI   C4B19784   7.784  10.491   6.967  0.1028  0.1221  0.2044
 1258loPI    C119785   4.369  13.986   4.677  0.1032  0.0848  0.0599
 1258loPI    C219786   4.564  14.307   4.539 -0.0612  0.1564 -0.0088
 1258loPI    C319787   4.298  14.120   4.306  0.1655 -0.1400 -0.0347
 1258loPI   PO419788   4.221  14.071   5.050 -0.2646  0.1311  0.0371
 1258loPI   GL119789   3.816  13.999   5.352  0.2276 -0.2831  0.3507
 1258loPI   GL219790   3.628  14.232   5.509  0.0030 -0.1166 -0.3323
 1258loPI   C1A19791   3.996  13.972   5.757  0.3297 -0.0361 -0.0161
 1258loPI   C2A19792   3.867  14.107   6.136 -0.0083  0.1880  0.0063
 1258loPI   C3A19793   3.990  13.923   6.539 -0.1253 -0.0012  0.0008
 1258loPI   C4A19794   4.053  13.656   6.948  0.0992  0.1106 -0.3651
 1258loPI   C5A19795   3.700  13.360   7.218  0.0329 -0.0045  0.1554
 1258loPI   C6A19796   3.380  13.189   7.461 -0.1762 -0.0063 -0.0830
 1258loPI   C1B19797   3.682  14.503   5.913  0.0205 -0.2214  0.0683
 1258loPI   C2B19798   3.684  14.441   6.426 -0.0027 -0.0711  0.1763
 1258loPI   C3B19799   3.542  14.384   6.789  0.1430  0.1313  0.3064
 1258loPI   C4B19800   3.551  14.282   7.265  0.0024  0.1333 -0.0542
 1259loPI    C119801   3.480  14.435   4.526 -0.1653 -0.1294  0.3461
 1259loPI    C219802   3.321  14.670   4.244  0.3856  0.1156  0.2274
 1259loPI    C319803   3.287  14.273   4.216  0.1661  0.1496 -0.0164
 1259loPI   PO419804   3.307  14.623   4.778 -0.0043  0.3359  0.2748
 1259loPI   GL119805   3.169  14.706   5.177  0.0251 -0.1802 -0.0341
 1259loPI   GL219806   3.408  14.677   5.376  0.1441  0.2985 -0.0501
 1259loPI   C1A19807   2.954  14.782   5.688  0.2403 -0.0431  0.0950
 1259loPI   C2A19808   3.132  14.716   6.078  0.0544 -0.0683  0.1518
 1259loPI   C3A19809   3.251  14.782   6.499  0.1497  0.0534  0.0378
 1259loPI   C4A19810   3.433  14.819   6.919 -0.0869 -0.1246 -0.0469
 1259loPI   C5A19811   3.633  14.830   7.280  0.3570  0.0349 -0.3105
 1259loPI   C6A19812   3.945  14.998   7.462  0.1769  0.1450 -0.0552
 1259loPI   C1B19813   3.495  14.902   5.732 -0.0775  0.1705  0.1842
 1259loPI   C2B19814   3.680  14.913   6.199 -0.1282  0.0354 -0.0525
 1259loPI   C3B19815   3.933  14.872   6.559 -0.3499  0.3537 -0.2406
 1259loPI   C4B19816   4.266  14.937   6.806  0.0505 -0.1215 -0.0076
 1260loPI    C119817   0.102   5.835   4.450  0.3126 -0.0001  0.1305
 1260loPI    C219818  -0.215   6.040   4.317  0.0955 -0.1682  0.3789
 1260loPI    C319819  -0.128   5.682   4.161  0.1584 -0.1264  0.3174
 1260loPI   PO419820   0.071   5.757   4.663  0.3756 -0.2526 -0.2456
 1260loPI   GL119821   0.265   5.674   5.045 -0.0519  0.1888 -0.3006
 1260loPI   GL219822   0.224   6.012   5.062 -0.0979 -0.4705 -0.0694
 1260loPI   C1A19823   0.206   5.757   5.528  0.2718  0.1228  0.2409
 1260loPI   C2A19824  -0.069   5.851   5.907 -0.0792 -0.4728 -0.3241
 1260loPI   C3A19825  -0.189   5.783   6.333  0.0466 -0.0374 -0.2005
 1260loPI   C4A19826  -0.542   5.713   6.629  0.0741  0.2982  0.0942
 1260loPI   C5A19827  -0.930   5.933   6.468 -0.3796 -0.3033  0.0153
 1260loPI   C6A19828  -1.114   6.175   6.177  0.3515  0.1983 -0.0984
 1260loPI   C1B19829   0.166   6.285   5.384 -0.1069 -0.1205  0.0202
 1260loPI   C2B19830   0.233   6.259   5.799 -0.0160 -0.1752 -0.2453
 1260loPI   C3B19831   0.369   6.416   6.276  0.1124  0.1669 -0.1149
 1260loPI   C4B19832   0.179   6.638   6.662  0.0590 -0.1958  0.1182
 1261loPI    C119833  12.007   7.606   4.665  0.2392 -0.1932 -0.0176
 1261loPI    C219834  12.251   7.790   4.406  0.0166  0.0247 -0.0769
 1261loPI    C319835  11.856   7.784   4.340 -0.0094 -0.2147  0.0835
 1261loPI   PO419836  12.162   7.705   4.885 -0.0408 -0.4637  0.2523
 1261loPI   GL119837  12.536   7.583   5.134  0.0942  0.0342 -0.0903
 1261loPI   GL219838  12.394   7.314   5.176 -0.0418 -0.1707 -0.0508
 1261loPI   C1A19839  12.518   7.850   5.554  0.1674 -0.1420 -0.0201
 1261loPI   C2A19840  12.507   7.881   6.119 -0.0907  0.1241  0.0118
 1261loPI   C3A19841  12.463   7.875   6.548 -0.2469  0.0703  0.1199
 1261loPI   C4A19842  12.286   7.989   6.906  0.1277  0.2155  0.1900
 1261loPI   C5A19843  12.136   7.942   7.357  0.0490  0.2691 -0.0975
 1261loPI   C6A19844  12.323   8.161   7.703 -0.2890 -0.2903  0.2180
 1261loPI   C1B19845  12.483   6.935   5.502 -0.0884 -0.0527 -0.2428
 1261loPI   C2B19846  12.691   6.603   5.618 -0.0436 -0.2013 -0.0201
 1261loPI   C3B19847  12.880   6.406   5.967 -0.0770  0.2099 -0.2378
 1261loPI   C4B19848  13.007   6.480   6.403  0.0001 -0.1614 -0.2059
 1262loPI    C119849  16.809  11.807   4.283  0.1399 -0.0533  0.1165
 1262loPI    C219850  16.986  11.470   4.159 -0.0737 -0.1154 -0.0256
 1262loPI    C319851  16.885  11.752   3.894 -0.2448 -0.1090  0.0453
 1262loPI   PO419852  16.676  11.734   4.510 -0.1738  0.0681  0.1016
 1262loPI   GL119853  16.652  11.960   4.925  0.4507  0.1269  0.0707
 1262loPI   GL219854  16.813  11.841   5.129  0.1293 -0.0333  0.1664
 1262loPI   C1A19855  16.317  12.122   5.260 -0.0245 -0.0052  0.0658
 1262loPI   C2A19856  16.360  12.133   5.647 -0.0668  0.5038  0.1524
 1262loPI   C3A19857  16.211  12.076   6.038 -0.1530  0.3825  0.0772
 1262loPI   C4A19858  16.193  11.996   6.454  0.1428  0.1587  0.3490
 1262loPI   C5A19859  16.371  12.143   6.777  0.3741 -0.2047  0.3136
 1262loPI   C6A19860  16.522  12.304   7.175  0.1147 -0.1933  0.2478
 1262loPI   C1B19861  16.421  11.565   5.349 -0.1894  0.5178 -0.0508
 1262loPI   C2B19862  16.246  11.603   5.752 -0.1086 -0.0220 -0.1265
 1262loPI   C3B19863  16.444  11.533   6.196 -0.2016  0.1004 -0.1179
 1262loPI   C4B19864  16.561  11.670   6.639  0.1269  0.1494 -0.0124
 1263loPI    C119865   5.948  11.256   5.234  0.1474  0.0491  0.0313
 1263loPI    C219866   6.117  10.915   5.357  0.0702 -0.0724 -0.1927
 1263loPI    C319867   5.771  10.905   5.157 -0.1581  0.1673  0.1773
 1263loPI   PO419868   5.887  11.429   5.385  0.0230  0.0907  0.1544
 1263loPI   GL119869   5.506  11.579   5.758 -0.1345  0.2013 -0.0183
 1263loPI   GL219870   5.817  11.719   5.828  0.2728  0.0263 -0.1100
 1263loPI   C1A19871   5.612  11.500   6.258  0.2091 -0.2582  0.1243
 1263loPI   C2A19872   5.550  11.591   6.711  0.0087  0.1650  0.3451
 1263loPI   C3A19873   5.529  11.716   7.205 -0.1109 -0.3994  0.1934
 1263loPI   C4A19874   5.568  11.966   7.573  0.0520 -0.0367 -0.1145
 1263loPI   C5A19875   5.771  11.933   7.982  0.0355 -0.1933 -0.0514
 1263loPI   C6A19876   5.488  12.161   8.278 -0.0305  0.1855 -0.0891
 1263loPI   C1B19877   6.095  11.622   6.152  0.0727  0.2301 -0.0903
 1263loPI   C2B19878   6.128  11.627   6.622 -0.0559  0.1913 -0.3155
 1263loPI   C3B19879   5.992  11.518   6.952 -0.1897  0.0025  0.2737
 1263loPI   C4B19880   6.075  11.585   7.405 -0.0418 -0.3305 -0.1015
 1264loPI    C119881   5.080   2.352   5.232  0.0155 -0.2303 -0.1492
 1264loPI    C219882   5.024   2.393   4.838  0.1732  0.1282 -0.1389
 1264loPI    C319883   5.322   2.164   4.975  0.1933  0.0996 -0.2298
 1264loPI   PO419884   4.849   2.393   5.277 -0.1633  0.0502  0.0967
 1264loPI   GL119885   4.678   2.659   5.600  0.0611  0.1630 -0.1599
 1264loPI   GL219886   4.404   2.540   5.449 -0.0556 -0.2940  0.1682
 1264loPI   C1A19887   4.707   2.451   6.027  0.2141 -0.0985  0.1418
 1264loPI   C2A19888   5.013   2.475   6.429 -0.1405 -0.1724  0.0723
 1264loPI   C3A19889   5.182   2.413   6.791  0.3473 -0.1981 -0.2850
 1264loPI   C4A19890   5.540   2.004   6.879  0.1703  0.4237  0.1526
 1264loPI   C5A19891   5.809   1.736   7.013  0.1327  0.3558 -0.0085
 1264loPI   C6A19892   6.157   1.368   7.019 -0.1162  0.0910  0.0798
 1264loPI   C1B19893   4.269   2.680   5.822  0.2219  0.2110 -0.0641
 1264loPI   C2B19894   4.359   2.769   6.150  0.2217  0.1426 -0.1454
 1264loPI   C3B19895   4.529   2.704   6.467 -0.0831  0.0725  0.1121
 1264loPI   C4B19896   4.714   2.743   6.853  0.1552 -0.0498 -0.1064
 1265loPI    C119897  14.535   2.998   4.688  0.0278 -0.0074 -0.0145
 1265loPI    C219898  14.466   2.719   4.410  0.1759 -0.0298 -0.0298
 1265loPI    C319899  14.644   3.063   4.309 -0.0495  0.0919 -0.0200
 1265loPI   PO419900  14.657   2.851   4.887  0.1869 -0.1326 -0.4092
 1265loPI   GL119901  14.716   2.815   5.333  0.1430 -0.2112 -0.0853
 1265loPI   GL219902  14.638   3.114   5.518 -0.1857 -0.3928 -0.1487
 1265loPI   C1A19903  14.911   2.725   5.765  0.0867  0.1218 -0.0037
 1265loPI   C2A19904  15.095   2.523   6.225  0.1973 -0.1161  0.4502
 1265loPI   C3A19905  15.268   2.317   6.539 -0.1851 -0.0575 -0.0512
 1265loPI   C4A19906  15.042   1.936   6.729 -0.3248  0.0456  0.4202
 1265loPI   C5A19907  14.664   1.783   6.900 -0.4803 -0.0585  0.1668
 1265loPI   C6A19908  14.271   1.625   6.718  0.0526 -0.3046 -0.4861
 1265loPI   C1B19909  14.787   3.235   5.885 -0.2098 -0.0925  0.0108
 1265loPI   C2B19910  14.954   3.016   6.367  0.2628 -0.0227  0.2469
 1265loPI   C3B19911  14.939   2.745   6.667  0.0470  0.1016  0.0298
 1265loPI   C4B19912  14.998   2.370   7.002  0.0472 -0.1820 -0.0513
 1266loPI    C119913   1.300  13.249   4.264 -0.0430 -0.1404  0.0479
 1266loPI    C219914   1.638  13.436   4.159 -0.0103 -0.1960  0.0532
 1266loPI    C319915   1.505  13.127   3.943 -0.0979 -0.1269  0.0076
 1266loPI   PO419916   1.335  13.116   4.512 -0.6021 -0.0528  0.0674
 1266loPI   GL119917   1.344  13.187   4.991  0.1408  0.0909  0.1519
 1266loPI   GL219918   1.132  13.290   5.034  0.0637 -0.0702 -0.4391
 1266loPI   C1A19919   1.440  13.261   5.410 -0.0608 -0.3408  0.2410
 1266loPI   C2A19920   1.466  13.480   5.709  0.0390 -0.3352  0.1471
 1266loPI   C3A19921   1.457  13.460   6.138 -0.2129  0.0380  0.1513
 1266loPI   C4A19922   1.741  13.636   6.507 -0.0556 -0.1219  0.1215
 1266loPI   C5A19923   1.966  13.825   6.911  0.2234  0.0657  0.2851
 1266loPI   C6A19924   2.350  13.585   7.070  0.1798 -0.0351 -0.0458
 1266loPI   C1B19925   1.143  13.679   5.352 -0.1725  0.2908 -0.3456
 1266loPI   C2B19926   1.152  13.929   5.744 -0.2254 -0.2907  0.2622
 1266loPI   C3B19927   1.167  13.900   6.172 -0.0952  0.1396  0.2375
 1266loPI   C4B19928   1.268  13.686   6.586  0.1201  0.0797 -0.1339
 1267loPI    C119929   9.164   4.974   4.542  0.0178  0.0025 -0.0393
 1267loPI    C219930   9.348   5.033   4.191  0.0852  0.0351  0.0012
 1267loPI    C319931   8.954   5.096   4.224  0.0809  0.0425 -0.0658
 1267loPI   PO419932   9.283   5.031   4.725  0.0508  0.0795 -0.0243
 1267loPI   GL119933   9.378   4.977   5.247 -0.0869  0.0313  0.0938
 1267loPI   GL219934   9.237   5.230   5.226 -0.1360 -0.2435  0.1443
 1267loPI   C1A19935   9.475   4.757   5.527  0.1221  0.0173  0.2132
 1267loPI   C2A19936   9.488   4.546   5.988 -0.1887  0.1503  0.1844
 1267loPI   C3A19937   9.402   4.357   6.401 -0.0199 -0.0475 -0.0887
 1267loPI   C4A19938   9.508   4.381   6.903  0.0354  0.1811  0.0504
 1267loPI   C5A19939   9.732   4.163   7.207 -0.0466 -0.0753 -0.0517
 1267loPI   C6A19940  10.115   4.097   7.373 -0.0340 -0.2335 -0.0103
 1267loPI   C1B19941   9.317   5.394   5.662 -0.0079 -0.1374 -0.1299
 1267loPI   C2B19942   9.280   5.254   6.151  0.0022 -0.1596 -0.0930
 1267loPI   C3B19943   9.502   4.895   6.380  0.3084  0.2093  0.1172
 1267loPI   C4B19944   9.445   4.892   6.754  0.2703 -0.1435 -0.3977
 1268loPI    C119945  17.041   1.127   4.315 -0.0462  0.1249 -0.0045
 1268loPI    C219946  17.151   0.901   4.004  0.0078  0.1468 -0.0014
 1268loPI    C319947  17.273   1.281   4.028  0.1756  0.0845  0.1506
 1268loPI   PO419948  16.967   0.930   4.507  0.1292 -0.2666  0.0154
 1268loPI   GL119949  16.859   0.834   4.999 -0.1788  0.2711 -0.1652
 1268loPI   GL219950  17.026   1.146   4.959 -0.0413 -0.0842 -0.1189
 1268loPI   C1A19951  16.751   0.702   5.449 -0.2329  0.0559 -0.2087
 1268loPI   C2A19952  16.548   0.605   5.759 -0.4955  0.0673 -0.0761
 1268loPI   C3A19953  16.411   0.369   6.122  0.0676  0.0182 -0.1135
 1268loPI   C4A19954  16.121   0.269   6.423 -0.3287  0.0642  0.1583
 1268loPI   C5A19955  15.795   0.239   6.737  0.1773 -0.1751  0.0635
 1268loPI   C6A19956  15.476  -0.049   6.612  0.2415 -0.0365 -0.0096
 1268loPI   C1B19957  17.242   0.933   5.327 -0.1379 -0.0336  0.1844
 1268loPI   C2B19958  17.479   0.681   5.324 -0.2368 -0.2227  0.2735
 1268loPI   C3B19959  17.639   0.477   5.592  0.1803 -0.0271 -0.0278
 1268loPI   C4B19960  17.692   0.259   5.972 -0.0617 -0.1962  0.1521
 1269loPI    C119961  18.379   1.711   4.267 -0.2434 -0.0197  0.1528
 1269loPI    C219962  18.051   1.749   4.040 -0.0341 -0.2787 -0.2036
 1269loPI    C319963  18.351   2.012   4.005 -0.0651 -0.2306 -0.1133
 1269loPI   PO419964  18.349   1.771   4.561  0.3120 -0.3690 -0.2177
 1269loPI   GL119965  18.214   1.516   4.884  0.0537 -0.0011 -0.0663
 1269loPI   GL219966  18.343   1.815   5.091  0.1369  0.4396  0.1127
 1269loPI   C1A19967  18.346   1.486   5.470 -0.2314 -0.0152 -0.1950
 1269loPI   C2A19968  18.167   1.278   5.750 -0.3190 -0.3396  0.1956
 1269loPI   C3A19969  17.960   1.269   6.048  0.0035  0.2409 -0.1285
 1269loPI   C4A19970  17.735   1.062   6.402 -0.1047 -0.1782 -0.0315
 1269loPI   C5A19971  17.961   1.004   6.812 -0.2935  0.0044  0.2381
 1269loPI   C6A19972  17.832   1.041   7.191  0.1536 -0.4322 -0.1249
 1269loPI   C1B19973  18.302   1.988   5.396 -0.2030 -0.0804 -0.0507
 1269loPI   C2B19974  18.286   1.777   5.865  0.2800  0.2291 -0.0771
 1269loPI   C3B19975  18.350   1.491   6.146 -0.1881 -0.1204 -0.0144
 1269loPI   C4B19976  18.309   1.136   6.406 -0.1315 -0.1168 -0.0722
 1270loPI    C119977  12.679   4.583   4.472  0.0697 -0.0599 -0.0348
 1270loPI    C219978  12.417   4.364   4.264 -0.0860  0.0320  0.0622
 1270loPI    C319979  12.741   4.513   4.083 -0.1094 -0.0672 -0.0628
 1270loPI   PO419980  12.493   4.675   4.700  0.3700  0.1806 -0.0442
 1270loPI   GL119981  12.193   4.511   5.093 -0.2389  0.1733  0.0717
 1270loPI   GL219982  11.956   4.211   5.040 -0.1532 -0.2599  0.0541
 1270loPI   C1A19983  12.158   4.311   5.479 -0.0116 -0.1560  0.2661
 1270loPI   C2A19984  12.303   4.288   5.905 -0.0602 -0.0403 -0.0838
 1270loPI   C3A19985  12.374   3.989   6.318 -0.0550 -0.1739 -0.2779
 1270loPI   C4A19986  12.058   4.185   6.645  0.1281 -0.2297  0.1624
 1270loPI   C5A19987  12.154   4.493   6.999  0.0043 -0.2377  0.1008
 1270loPI   C6A19988  12.567   4.651   7.217 -0.0888  0.2231 -0.0753
 1270loPI   C1B19989  11.641   4.168   5.268 -0.0032  0.0809 -0.3205
 1270loPI   C2B19990  11.719   4.088   5.702  0.2773 -0.1909  0.2065
 1270loPI   C3B19991  11.418   4.049   6.109 -0.4205  0.0420 -0.1072
 1270loPI   C4B19992  11.267   4.179   6.425 -0.1558 -0.4155 -0.0956
 1271loPI    C119993   2.549  16.524   4.411  0.0478  0.0958 -0.0954
 1271loPI    C219994   2.299  16.810   4.287 -0.0178  0.0642 -0.0365
 1271loPI    C319995   2.198  16.425   4.246  0.0393  0.0509 -0.0506
 1271loPI   PO419996   2.609  16.611   4.644  0.1417 -0.5351 -0.1612
 1271loPI   GL119997   2.620  16.661   5.080  0.1929  0.0342  0.1162
 1271loPI   GL219998   2.680  16.427   5.309 -0.2738 -0.1167 -0.0044
 1271loPI   C1A19999   2.291  16.753   5.324  0.1567 -0.0154 -0.1773
 1271loPI   C2A20000   2.238  16.804   5.727  0.0514 -0.1167 -0.4548
 1271loPI   C3A20001   2.254  16.959   6.105  0.2508  0.0872 -0.0825
 1271loPI   C4A20002   2.210  16.770   6.416  0.1297 -0.2291 -0.1919
 1271loPI   C5A20003   2.278  16.688   6.791  0.3158 -0.0653  0.0153
 1271loPI   C6A20004   2.331  16.529   7.195  0.2331 -0.1428 -0.2970
 1271loPI   C1B20005   2.604  16.489   5.747  0.3621  0.1216  0.3890
 1271loPI   C2B20006   2.629  16.710   6.166  0.2474 -0.0048 -0.0072
 1271loPI   C3B20007   2.807  16.833   6.525 -0.1796  0.1722  0.0801
 1271loPI   C4B20008   3.101  16.971   6.870  0.1762 -0.2382  0.0462
 1272loPI    C120009   9.296   5.597   4.881  0.0786  0.1644  0.0107
 1272loPI    C220010   9.108   5.598   4.528 -0.0190  0.1604  0.0621
 1272loPI    C320011   9.480   5.454   4.556 -0.0969 -0.0560  0.0060
 1272loPI   PO420012   9.164   5.794   5.019 -0.1641  0.0697  0.0131
 1272loPI   GL120013   9.305   5.812   5.414  0.0479 -0.2398  0.1322
 1272loPI   GL220014   9.060   5.985   5.474  0.1042 -0.4411  0.0697
 1272loPI   C1A20015   9.504   6.032   5.764  0.2178  0.3472 -0.0424
 1272loPI   C2A20016   9.678   6.361   5.995 -0.1380 -0.0233  0.0208
 1272loPI   C3A20017   9.845   6.657   6.222 -0.0177  0.1207  0.0035
 1272loPI   C4A20018   9.671   6.882   6.581 -0.2355  0.4223 -0.1871
 1272loPI   C5A20019   9.748   7.097   6.948 -0.4058 -0.0930 -0.2393
 1272loPI   C6A20020  10.012   7.436   7.115  0.2018 -0.0271 -0.3086
 1272loPI   C1B20021   9.077   5.829   5.890 -0.0087  0.1807 -0.1147
 1272loPI   C2B20022   9.034   5.686   6.289 -0.0732  0.1230  0.1151
 1272loPI   C3B20023   8.929   5.598   6.737  0.1199  0.3051 -0.0235
 1272loPI   C4B20024   8.604   5.836   7.034  0.2245  0.2526  0.0630
 1273loPI    C120025   0.663   9.684   4.766  0.4409  0.1419  0.6910
 1273loPI    C220026   0.860  10.022   4.682 -0.0483  0.2531 -0.1253
 1273loPI    C320027   0.853   9.723   4.416 -0.4003 -0.0251  0.1847
 1273loPI   PO420028   0.423   9.814   4.915 -0.1217 -0.3272  0.1567
 1273loPI   GL120029   0.361   9.620   5.330  0.0326  0.0290  0.0410
 1273loPI   GL220030   0.281   9.893   5.480  0.0771 -0.0564 -0.0273
 1273loPI   C1A20031   0.665   9.497   5.563 -0.2408 -0.1710 -0.1252
 1273loPI   C2A20032   0.870   9.353   5.926  0.2142  0.0388 -0.3535
 1273loPI   C3A20033   1.094   9.305   6.306 -0.1129 -0.1967 -0.0367
 1273loPI   C4A20034   1.161   9.464   6.697  0.3666  0.2597  0.1444
 1273loPI   C5A20035   1.393   9.481   7.015 -0.0492 -0.1492  0.1276
 1273loPI   C6A20036   1.576   9.127   7.310  0.1267 -0.1986 -0.1961
 1273loPI   C1B20037   0.507   9.713   5.966  0.1534  0.1009 -0.1166
 1273loPI   C2B20038   0.671   9.645   6.386  0.0629  0.2548 -0.0483
 1273loPI   C3B20039   0.683   9.541   6.740 -0.2835  0.2696 -0.1957
 1273loPI   C4B20040   0.807   9.367   7.119  0.0494  0.1529  0.0973
 1274loPI    C120041  10.241   3.717   4.384 -0.0175  0.0592  0.1134
 1274loPI    C220042   9.854   3.812   4.426 -0.1022 -0.1775 -0.1017
 1274loPI    C320043  10.117   4.090   4.307 -0.1581  0.0493  0.2869
 1274loPI   PO420044  10.153   3.472   4.642  0.3518  0.2781  0.1230
 1274loPI   GL120045  10.194   3.407   5.082 -0.0200  0.1398 -0.2622
 1274loPI   GL220046  10.224   3.690   5.236 -0.2777 -0.0855  0.0815
 1274loPI   C1A20047   9.877   3.449   5.527 -0.4036  0.1838  0.1590
 1274loPI   C2A20048   9.792   3.540   5.980  0.2110 -0.3307 -0.1265
 1274loPI   C3A20049   9.761   3.576   6.423  0.0301  0.1019 -0.1355
 1274loPI   C4A20050  10.005   3.653   6.775  0.3285 -0.1982 -0.5376
 1274loPI   C5A20051  10.284   3.894   6.969  0.2004  0.2515 -0.0119
 1274loPI   C6A20052  10.579   4.076   7.139 -0.0967 -0.0256  0.1753
 1274loPI   C1B20053  10.471   3.461   5.597 -0.3802  0.0855 -0.0505
 1274loPI   C2B20054  10.658   3.380   5.960 -0.2265  0.1209 -0.1872
 1274loPI   C3B20055  10.843   3.170   6.353  0.0753  0.0572 -0.1179
 1274loPI   C4B20056  10.634   2.977   6.662  0.1595  0.0999 -0.2119
 1275loPI    C120057   1.279  14.758   4.671  0.0569  0.3996 -0.0354
 1275loPI    C220058   1.331  14.867   4.289  0.1053  0.1894 -0.0902
 1275loPI    C320059   1.648  14.809   4.526  0.0803  0.1624 -0.0633
 1275loPI   PO420060   1.094  14.923   4.774  0.0614  0.0959  0.0431
 1275loPI   GL120061   1.015  15.320   5.017 -0.3318 -0.1463  0.0674
 1275loPI   GL220062   0.855  15.635   4.921 -0.3897  0.1963 -0.0601
 1275loPI   C1A20063   0.706  15.114   5.323 -0.0741 -0.1908 -0.0682
 1275loPI   C2A20064   0.513  15.038   5.789  0.1137  0.0864  0.0490
 1275loPI   C3A20065   0.277  15.055   6.261  0.3518 -0.1528  0.5321
 1275loPI   C4A20066   0.220  15.362   6.639 -0.1766 -0.1356  0.2200
 1275loPI   C5A20067   0.520  15.452   7.017 -0.0005  0.2576 -0.1785
 1275loPI   C6A20068   0.724  15.685   7.322  0.2493 -0.0443 -0.2352
 1275loPI   C1B20069   0.746  15.640   5.308 -0.3540  0.1797  0.0636
 1275loPI   C2B20070   0.716  15.480   5.674  0.4506 -0.0265  0.0044
 1275loPI   C3B20071   0.573  15.538   6.125  0.0562 -0.0792  0.1748
 1275loPI   C4B20072   0.609  15.599   6.542 -0.3297  0.0034 -0.0053
 1276loPI    C120073   8.414  13.276   4.730  0.1351  0.1025  0.2673
 1276loPI    C220074   8.019  13.315   4.773  0.0626 -0.0979 -0.1664
 1276loPI    C320075   8.167  13.026   4.540  0.4735 -0.1460  0.1436
 1276loPI   PO420076   8.522  13.345   4.987 -0.1217 -0.1698 -0.2048
 1276loPI   GL120077   8.316  13.406   5.350  0.2243 -0.4084  0.1534
 1276loPI   GL220078   8.227  13.683   5.410  0.0148 -0.1309 -0.1958
 1276loPI   C1A20079   8.093  13.410   5.792  0.4075  0.2362 -0.3908
 1276loPI   C2A20080   7.997  13.509   6.212 -0.2774  0.0399  0.1117
 1276loPI   C3A20081   8.124  13.503   6.598 -0.0727 -0.1342 -0.1493
 1276loPI   C4A20082   8.175  13.441   7.020 -0.0225 -0.1866 -0.2458
 1276loPI   C5A20083   8.420  13.228   7.272 -0.1502 -0.0063  0.2166
 1276loPI   C6A20084   8.714  13.080   7.430  0.1232 -0.3494  0.0320
 1276loPI   C1B20085   8.420  13.875   5.751 -0.2513  0.1412  0.3280
 1276loPI   C2B20086   8.300  13.908   6.230  0.1483 -0.0790  0.1376
 1276loPI   C3B20087   8.413  13.907   6.669 -0.0153 -0.1365 -0.2849
 1276loPI   C4B20088   8.608  13.792   7.034  0.0918  0.0843 -0.1336
 1277loPI    C120089   6.392   2.090   4.720 -0.0347 -0.0324 -0.0595
 1277loPI    C220090   6.491   1.998   4.344 -0.3637 -0.3672 -0.0695
 1277loPI    C320091   6.305   2.343   4.423 -0.2615 -0.2793 -0.2077
 1277loPI   PO420092   6.377   1.857   4.876  0.5562  0.3451  0.1242
 1277loPI   GL120093   6.221   1.939   5.197 -0.4082 -0.4759 -0.0090
 1277loPI   GL220094   6.410   2.262   5.191  0.1180  0.1173  0.1136
 1277loPI   C1A20095   6.166   1.806   5.568 -0.3538 -0.1653  0.1364
 1277loPI   C2A20096   6.425   1.583   5.824 -0.3964 -0.1173 -0.1471
 1277loPI   C3A20097   6.652   1.422   6.256  0.1596 -0.3115 -0.0553
 1277loPI   C4A20098   6.744   1.679   6.545  0.1740 -0.4599  0.0530
 1277loPI   C5A20099   6.797   1.782   6.940  0.2572  0.0886  0.3075
 1277loPI   C6A20100   6.767   1.822   7.343 -0.0490  0.0433  0.0315
 1277loPI   C1B20101   6.371   2.277   5.596  0.1763 -0.0070 -0.1784
 1277loPI   C2B20102   6.393   2.048   6.025  0.0432  0.0523 -0.1248
 1277loPI   C3B20103   6.436   2.115   6.517  0.1652 -0.3345 -0.2669
 1277loPI   C4B20104   6.329   1.862   6.814 -0.0996  0.0443  0.1926
 1278loPI    C120105  10.186   6.470   4.681 -0.2267  0.2698  0.0570
 1278loPI    C220106  10.508   6.707   4.691 -0.0148 -0.0154  0.1307
 1278loPI    C320107  10.383   6.554   4.343  0.0049 -0.0049  0.1189
 1278loPI   PO420108  10.210   6.278   4.917  0.2488 -0.0682 -0.2566
 1278loPI   GL120109  10.280   6.080   5.364  0.1951 -0.2262 -0.1296
 1278loPI   GL220110  10.496   5.805   5.414 -0.2245  0.0522 -0.0330
 1278loPI   C1A20111  10.055   6.002   5.699 -0.4771 -0.1959 -0.1875
 1278loPI   C2A20112  10.070   5.889   6.121 -0.1409 -0.0948 -0.1959
 1278loPI   C3A20113   9.995   5.635   6.520  0.2593 -0.0729  0.4944
 1278loPI   C4A20114  10.038   5.578   6.963 -0.0893  0.2288  0.1429
 1278loPI   C5A20115   9.873   5.689   7.325  0.0959 -0.0941  0.3376
 1278loPI   C6A20116   9.690   5.552   7.757 -0.0563  0.1182  0.3477
 1278loPI   C1B20117  10.223   5.532   5.599  0.1034  0.0156 -0.2796
 1278loPI   C2B20118  10.248   5.419   6.065  0.0011  0.4445  0.0594
 1278loPI   C3B20119  10.364   5.288   6.492 -0.1249  0.0594 -0.0518
 1278loPI   C4B20120  10.465   5.221   6.990 -0.1472  0.0896 -0.0233
 1279loPI    C120121   8.303  11.475   4.809  0.0992 -0.0504  0.2862
 1279loPI    C220122   7.915  11.392   4.861  0.0027  0.2770  0.1169
 1279loPI    C320123   8.026  11.678   4.604  0.3768 -0.0763 -0.1276
 1279loPI   PO420124   8.377  11.473   5.089  0.4011  0.1656 -0.0210
 1279loPI   GL120125   8.303  11.476   5.615 -0.0650 -0.0326  0.1832
 1279loPI   GL220126   8.593  11.309   5.645  0.0691  0.1809  0.2392
 1279loPI   C1A20127   8.216  11.631   5.984  0.2820  0.3701  0.0545
 1279loPI   C2A20128   8.442  11.769   6.304 -0.2155 -0.0016 -0.2061
 1279loPI   C3A20129   8.586  12.163   6.292  0.1688 -0.0724  0.2158
 1279loPI   C4A20130   8.730  12.338   6.679  0.2475 -0.0056  0.3393
 1279loPI   C5A20131   8.586  12.290   7.091 -0.2948 -0.4101 -0.0336
 1279loPI   C6A20132   8.602  12.506   7.493 -0.0330  0.1754 -0.0508
 1279loPI   C1B20133   8.581  11.235   6.136  0.1584 -0.3639 -0.2082
 1279loPI   C2B20134   8.447  11.342   6.573  0.1127 -0.1776  0.0853
 1279loPI   C3B20135   8.260  11.504   6.790 -0.0920  0.1559  0.2652
 1279loPI   C4B20136   7.960  11.492   7.128  0.1193  0.2221 -0.0257
 1280loPI    C120137   2.065  17.418   4.227 -0.0366 -0.1371 -0.0373
 1280loPI    C220138   2.259  17.202   3.952  0.3063  0.0732  0.0326
 1280loPI    C320139   2.263  17.602   3.932  0.1177  0.0853  0.1998
 1280loPI   PO420140   2.126  17.287   4.421 -0.0642 -0.0162  0.1870
 1280loPI   GL120141   2.162  17.335   4.871 -0.1567  0.1020  0.2579
 1280loPI   GL220142   2.362  17.440   5.048 -0.1685  0.0177  0.1309
 1280loPI   C1A20143   1.961  17.205   5.416 -0.1352 -0.1579  0.1489
 1280loPI   C2A20144   2.063  17.475   5.783 -0.0375  0.2783  0.1810
 1280loPI   C3A20145   2.133  17.409   6.242 -0.1127  0.1370 -0.3675
 1280loPI   C4A20146   2.419  17.653   6.493 -0.2072 -0.1008 -0.1856
 1280loPI   C5A20147   2.766  17.957   6.730  0.1532  0.0052  0.1224
 1280loPI   C6A20148   3.077  18.047   6.978  0.1733  0.0847 -0.0723
 1280loPI   C1B20149   2.477  17.385   5.539 -0.1392  0.1434  0.0316
 1280loPI   C2B20150   2.694  17.172   5.890  0.1202 -0.2989 -0.0259
 1280loPI   C3B20151   2.722  17.211   6.227  0.2814 -0.0457 -0.2006
 1280loPI   C4B20152   2.852  17.363   6.664  0.0787 -0.1509 -0.2475
 1281loPI    C120153   6.215  17.102   4.659  0.2376 -0.1263 -0.1958
 1281loPI    C220154   5.885  17.133   4.434  0.0332 -0.0474  0.1075
 1281loPI    C320155   5.962  16.793   4.630  0.0276  0.0016  0.1954
 1281loPI   PO420156   6.277  17.223   4.902 -0.0985 -0.1724  0.1902
 1281loPI   GL120157   6.157  17.403   5.379  0.0038  0.0932 -0.5720
 1281loPI   GL220158   6.023  17.184   5.580  0.0178  0.0587  0.1359
 1281loPI   C1A20159   6.206  17.656   5.661 -0.4102 -0.2116 -0.1477
 1281loPI   C2A20160   6.245  17.801   6.025 -0.2200  0.1949  0.0399
 1281loPI   C3A20161   6.374  18.012   6.457  0.2562  0.0767  0.1190
 1281loPI   C4A20162   6.580  18.348   6.735 -0.2533  0.0101  0.3399
 1281loPI   C5A20163   6.597  18.765   6.784 -0.0404 -0.1529 -0.0889
 1281loPI   C6A20164   6.436  19.128   6.709 -0.1760 -0.0374 -0.1413
 1281loPI   C1B20165   6.144  17.287   6.045  0.1065 -0.2576  0.0985
 1281loPI   C2B20166   6.478  17.397   6.407 -0.2486  0.1965 -0.0866
 1281loPI   C3B20167   6.689  17.440   6.810 -0.0095  0.1050 -0.0863
 1281loPI   C4B20168   6.791  17.618   7.319 -0.0732  0.0318  0.2128
 1282POPI    C120169   5.146   6.301   4.916  0.1980 -0.0036  0.0883
 1282POPI    C220170   5.003   6.674   4.942  0.1592 -0.0202  0.1161
 1282POPI    C320171   4.935   6.455   4.614  0.1605 -0.0117  0.1102
 1282POPI   PO420172   5.033   6.154   5.017 -0.0243  0.2105  0.0527
 1282POPI   GL120173   4.732   6.313   5.260 -0.1788  0.0123  0.1626
 1282POPI   GL220174   4.324   6.357   5.335 -0.2058  0.5068  0.1608
 1282POPI   C1A20175   4.734   6.283   5.730  0.0265  0.1221 -0.1063
 1282POPI   D2A20176   4.569   6.137   6.204 -0.0607  0.1450 -0.1359
 1282POPI   C3A20177   4.724   6.301   6.696 -0.0671  0.5076 -0.1182
 1282POPI   C4A20178   4.774   6.652   7.056 -0.1651 -0.1527  0.0868
 1282POPI   C1B20179   4.195   6.232   5.757  0.1643  0.1261  0.2140
 1282POPI   C2B20180   3.948   6.228   6.054  0.2063 -0.1297  0.0818
 1282POPI   C3B20181   3.961   6.248   6.432 -0.0100  0.2181  0.0115
 1282POPI   C4B20182   4.188   6.476   6.813  0.1798  0.2142 -0.0274
 1283POPI    C120183  14.419   4.513   4.885 -0.1275 -0.2754  0.0772
 1283POPI    C220184  14.650   4.759   4.669 -0.1189 -0.1759  0.1987
 1283POPI    C320185  14.498   4.429   4.502  0.2313 -0.3202  0.1568
 1283POPI   PO420186  14.524   4.487   5.164  0.0509  0.3295 -0.1390
 1283POPI   GL120187  14.503   4.491   5.570  0.1192 -0.0545  0.0990
 1283POPI   GL220188  14.245   4.661   5.549 -0.1843 -0.2588 -0.2272
 1283POPI   C1A20189  14.584   4.476   5.932 -0.0406  0.0333 -0.1969
 1283POPI   D2A20190  14.698   4.452   6.473 -0.1801  0.2587  0.0255
 1283POPI   C3A20191  14.707   4.244   6.873 -0.0951  0.2045 -0.1463
 1283POPI   C4A20192  14.620   4.053   7.248  0.0672  0.3428 -0.0301
 1283POPI   C1B20193  14.101   4.817   5.901 -0.2934 -0.0436  0.0122
 1283POPI   C2B20194  14.149   4.707   6.333 -0.3803 -0.0977 -0.0184
 1283POPI   C3B20195  14.292   4.571   6.745 -0.0120 -0.0729  0.0761
 1283POPI   C4B20196  14.209   4.346   7.061 -0.2111  0.3128  0.4101
 1284POPI    C120197   2.190  10.623   4.921  0.0711 -0.2904  0.1316
 1284POPI    C220198   1.922  10.869   4.756  0.3009  0.0899  0.3117
 1284POPI    C320199   2.163  10.652   4.523  0.1339  0.0744  0.1502
 1284POPI   PO420200   2.046  10.424   5.070  0.4055 -0.0883 -0.2099
 1284POPI   GL120201   2.146  10.199   5.387  0.1434  0.0616 -0.0803
 1284POPI   GL220202   1.940  10.431   5.606 -0.0724 -0.0113 -0.0189
 1284POPI   C1A20203   2.435   9.987   5.721 -0.4731 -0.0178 -0.0276
 1284POPI   D2A20204   2.524   9.609   6.072 -0.1876  0.3032  0.1652
 1284POPI   C3A20205   2.601   9.831   6.478  0.0061 -0.3448 -0.0296
 1284POPI   C4A20206   2.923  10.092   6.659 -0.1640 -0.0448  0.0354
 1284POPI   C1B20207   1.614  10.530   5.841  0.0622  0.0060 -0.2690
 1284POPI   C2B20208   1.396  10.804   6.157 -0.0276 -0.0287  0.0850
 1284POPI   C3B20209   1.068  11.064   6.307 -0.1052  0.5178  0.0574
 1284POPI   C4B20210   0.776  11.225   6.544 -0.0701  0.3701  0.0516
 1285POPI    C120211  15.952  16.885   3.921  0.1712 -0.0347  0.2261
 1285POPI    C220212  15.728  16.971   4.241 -0.0320 -0.0941  0.1015
 1285POPI    C320213  16.023  17.218   4.131 -0.0275 -0.0212  0.2736
 1285POPI   PO420214  15.770  16.586   3.881  0.0477  0.1759  0.0599
 1285POPI   GL120215  15.520  16.471   4.257  0.0856  0.1539 -0.0694
 1285POPI   GL220216  15.729  16.239   4.521 -0.0825 -0.1721  0.1472
 1285POPI   C1A20217  15.592  16.740   4.614 -0.2722  0.0719  0.0706
 1285POPI   D2A20218  15.667  17.125   4.859 -0.0529 -0.1682 -0.3384
 1285POPI   C3A20219  15.482  17.185   5.311  0.1663 -0.1060  0.6608
 1285POPI   C4A20220  15.437  17.110   5.820  0.2154 -0.0577  0.1988
 1285POPI   C1B20221  15.552  16.331   4.876  0.3904 -0.2188 -0.0082
 1285POPI   C2B20222  15.258  16.298   5.155  0.1872 -0.1633  0.1195
 1285POPI   C3B20223  15.192  16.201   5.633 -0.1563  0.0414  0.2654
 1285POPI   C4B20224  15.362  16.127   6.034 -0.0842 -0.4404  0.0391
 1286POPI    C120225  11.023  14.714   4.882 -0.0274  0.1409 -0.1679
 1286POPI    C220226  10.765  14.462   4.709 -0.1050  0.1093 -0.0080
 1286POPI    C320227  11.049  14.639   4.490  0.0789 -0.2728 -0.0859
 1286POPI   PO420228  10.821  14.793   5.075  0.2050  0.1684 -0.3122
 1286POPI   GL120229  10.737  14.747   5.443  0.1117  0.0327 -0.1821
 1286POPI   GL220230  10.576  15.087   5.396  0.1032 -0.0790  0.0262
 1286POPI   C1A20231  10.782  14.539   5.946  0.0791 -0.1619  0.1438
 1286POPI   D2A20232  11.002  14.238   6.141 -0.3988 -0.2922 -0.0133
 1286POPI   C3A20233  11.238  13.987   6.236  0.1581 -0.1766 -0.0955
 1286POPI   C4A20234  11.569  13.724   6.348  0.2052  0.0536  0.0954
 1286POPI   C1B20235  10.445  14.942   5.839  0.2239 -0.0189  0.0463
 1286POPI   C2B20236  10.673  14.941   6.256 -0.1294  0.2085 -0.4355
 1286POPI   C3B20237  10.675  14.883   6.661 -0.3593  0.4723  0.1313
 1286POPI   C4B20238  11.032  14.745   6.836 -0.1012 -0.1354  0.1423
 1287POPI    C120239   8.826  11.606   4.607  0.0568 -0.0606  0.3072
 1287POPI    C220240   9.210  11.683   4.528  0.0515 -0.2128  0.1280
 1287POPI    C320241   9.011  11.414   4.309 -0.2048 -0.0120  0.1099
 1287POPI   PO420242   8.819  11.584   4.848  0.0613  0.1998  0.2817
 1287POPI   GL120243   8.749  11.765   5.211 -0.4643 -0.0572 -0.0381
 1287POPI   GL220244   8.707  11.758   5.530 -0.4368 -0.1319  0.4192
 1287POPI   C1A20245   9.153  11.894   5.551 -0.0771  0.1672 -0.1094
 1287POPI   D2A20246   8.950  12.159   5.903  0.0396  0.0877  0.0036
 1287POPI   C3A20247   9.062  12.435   6.208  0.3071 -0.0664 -0.3136
 1287POPI   C4A20248   9.078  12.699   6.535  0.0150  0.2429 -0.0782
 1287POPI   C1B20249   8.796  11.672   5.951  0.0755  0.0103  0.0302
 1287POPI   C2B20250   8.982  11.783   6.328  0.1039 -0.1819  0.0100
 1287POPI   C3B20251   8.839  11.878   6.655 -0.0817  0.1253  0.0993
 1287POPI   C4B20252   8.384  12.007   6.733  0.2440  0.4491 -0.1232
 1288POPI    C120253   4.687  17.222   4.596  0.0809  0.1701  0.0757
 1288POPI    C220254   4.418  17.416   4.373  0.0592  0.1335  0.0700
 1288POPI    C320255   4.763  17.296   4.210  0.0909  0.2051  0.0844
 1288POPI   PO420256   4.795  17.423   4.763 -0.0591 -0.0202 -0.1830
 1288POPI   GL120257   4.681  17.437   5.190  0.1039 -0.0885  0.1750
 1288POPI   GL220258   4.857  17.486   5.405  0.5290  0.1382  0.1950
 1288POPI   C1A20259   4.345  17.556   5.352 -0.1910  0.1681  0.0163
 1288POPI   D2A20260   4.166  17.761   5.795 -0.1093  0.0067 -0.1646
 1288POPI   C3A20261   4.279  17.610   6.152 -0.0328  0.1369 -0.0992
 1288POPI   C4A20262   4.298  17.784   6.557  0.0600  0.1983  0.0211
 1288POPI   C1B20263   4.673  17.594   5.803  0.0031  0.2065 -0.0519
 1288POPI   C2B20264   4.730  17.562   6.285 -0.3765  0.2751 -0.2348
 1288POPI   C3B20265   4.602  17.469   6.761  0.1279 -0.1571  0.4166
 1288POPI   C4B20266   4.492  17.135   7.022 -0.0878 -0.1518 -0.0323
 1289POPI    C120267  18.698   9.278   4.722  0.0023 -0.0190  0.2659
 1289POPI    C220268  18.780   8.962   4.490  0.1729  0.1494  0.0933
 1289POPI    C320269  19.077   9.188   4.633  0.0476  0.2833  0.1450
 1289POPI   PO420270  18.550   9.189   4.912  0.4691  0.0453  0.2537
 1289POPI   GL120271  18.704   9.062   5.447 -0.0522  0.0254  0.4075
 1289POPI   GL220272  18.585   9.255   5.666  0.2598 -0.1257  0.2603
 1289POPI   C1A20273  18.842   8.756   5.723 -0.1578 -0.0880 -0.1413
 1289POPI   D2A20274  18.733   8.695   6.093  0.2314  0.1932 -0.1931
 1289POPI   C3A20275  18.989   8.525   6.407 -0.1695 -0.0872 -0.3131
 1289POPI   C4A20276  19.057   8.653   6.838  0.0304  0.2399  0.0001
 1289POPI   C1B20277  18.632   9.146   6.153 -0.1737  0.2310 -0.0076
 1289POPI   C2B20278  18.596   8.998   6.622  0.2211 -0.0802  0.0556
 1289POPI   C3B20279  18.660   9.124   7.000 -0.0618  0.1117  0.1224
 1289POPI   C4B20280  18.696   9.189   7.511  0.1026 -0.1646  0.1658
 1290POPI    C120281  13.648  10.784   4.608  0.1028  0.0116 -0.1678
 1290POPI    C220282  13.781  10.666   4.966  0.4260  0.1005 -0.2560
 1290POPI    C320283  13.535  10.431   4.757  0.0226  0.1619  0.1363
 1290POPI   PO420284  13.491  10.983   4.583 -0.0427 -0.3861 -0.0876
 1290POPI   GL120285  13.414  11.185   4.918  0.0684  0.4646  0.2971
 1290POPI   GL220286  13.349  10.844   5.067  0.1274  0.1198 -0.1659
 1290POPI   C1A20287  13.357  11.258   5.393 -0.3409 -0.1348 -0.1741
 1290POPI   D2A20288  13.241  11.323   5.894  0.2032 -0.0611 -0.2652
 1290POPI   C3A20289  12.983  11.033   6.055  0.0412 -0.2364 -0.0825
 1290POPI   C4A20290  12.681  10.882   6.298 -0.0468 -0.0826 -0.1285
 1290POPI   C1B20291  13.241  10.696   5.394  0.1363  0.0726  0.2799
 1290POPI   C2B20292  13.338  10.814   5.798  0.1511  0.0962  0.2395
 1290POPI   C3B20293  13.531  10.973   6.135  0.0091  0.0986  0.2969
 1290POPI   C4B20294  13.755  11.055   6.517  0.0902  0.0883  0.0804
 1291POPI    C120295  10.269  13.520   4.833 -0.0158  0.2072  0.0859
 1291POPI    C220296  10.143  13.573   4.457 -0.1977 -0.1246  0.0958
 1291POPI    C320297  10.037  13.833   4.742 -0.0101  0.1615 -0.0902
 1291POPI   PO420298  10.522  13.418   4.838  0.1668 -0.2740 -0.1917
 1291POPI   GL120299  10.692  13.302   5.253 -0.2201 -0.0711 -0.0755
 1291POPI   GL220300  10.421  13.458   5.385 -0.0702  0.0927  0.2909
 1291POPI   C1A20301  10.847  13.270   5.712 -0.0793  0.3333 -0.3212
 1291POPI   D2A20302  10.724  13.266   6.100 -0.0758  0.0121 -0.0700
 1291POPI   C3A20303  10.590  13.443   6.493  0.1738  0.0254 -0.0458
 1291POPI   C4A20304  10.479  13.372   6.909  0.2065 -0.1617  0.1358
 1291POPI   C1B20305  10.379  13.737   5.759 -0.0568  0.1970  0.1382
 1291POPI   C2B20306  10.279  13.715   6.237  0.0701  0.0610  0.1697
 1291POPI   C3B20307  10.057  13.677   6.583 -0.3669 -0.2744  0.3171
 1291POPI   C4B20308  10.055  13.639   7.007  0.2727  0.2845 -0.2404
 1292POPI    C120309   1.628   8.548   4.758  0.0683 -0.0807 -0.1512
 1292POPI    C220310   1.560   8.157   4.705  0.0267 -0.1050  0.0689
 1292POPI    C320311   1.317   8.427   4.538 -0.0538 -0.1767  0.0699
 1292POPI   PO420312   1.676   8.554   5.123  0.1591  0.0863  0.2487
 1292POPI   GL120313   1.318   8.759   5.351 -0.0417 -0.3596 -0.0904
 1292POPI   GL220314   1.564   8.738   5.590  0.0726 -0.0726  0.1115
 1292POPI   C1A20315   1.173   8.904   5.853 -0.0158  0.1280  0.1344
 1292POPI   D2A20316   1.008   8.637   6.276 -0.0067  0.2757 -0.1433
 1292POPI   C3A20317   0.574   8.578   6.200  0.0546 -0.2114  0.3222
 1292POPI   C4A20318   0.277   8.834   6.242  0.0590  0.0994 -0.0354
 1292POPI   C1B20319   1.613   8.570   5.998  0.2194 -0.2239 -0.0564
 1292POPI   C2B20320   1.424   8.288   6.303 -0.0719  0.1478 -0.2008
 1292POPI   C3B20321   1.403   7.962   6.761  0.3137  0.4183  0.1876
 1292POPI   C4B20322   1.451   7.504   6.725  0.0298  0.0011  0.0526
 1293POPI    C120323   1.573  19.281   4.416  0.3429 -0.4539  0.1005
 1293POPI    C220324   1.601  19.155   4.038  0.1032  0.3656 -0.2123
 1293POPI    C320325   1.243  19.239   4.194  0.2175  0.2168  0.1399
 1293POPI   PO420326   1.650  19.116   4.630  0.2055  0.1418 -0.0789
 1293POPI   GL120327   2.016  18.843   4.821  0.3783  0.2912 -0.1276
 1293POPI   GL220328   1.974  18.561   5.003  0.1608 -0.0068  0.1071
 1293POPI   C1A20329   2.064  18.944   5.300  0.0614 -0.0865  0.4571
 1293POPI   D2A20330   2.153  19.311   5.537  0.1000  0.3398  0.1330
 1293POPI   C3A20331   1.945  19.366   5.927  0.3963 -0.0696 -0.4185
 1293POPI   C4A20332   1.770  19.495   6.284 -0.3523 -0.0840 -0.4686
 1293POPI   C1B20333   1.826  18.323   5.313 -0.2196 -0.2694 -0.2059
 1293POPI   C2B20334   1.684  18.549   5.578  0.0713  0.1952  0.1654
 1293POPI   C3B20335   1.764  18.936   5.745  0.2566 -0.0623  0.4709
 1293POPI   C4B20336   1.627  18.934   6.177 -0.0503  0.0213  0.2948
 1294POPI    C120337   9.737   9.529   4.695  0.0601 -0.0882 -0.1596
 1294POPI    C220338   9.937   9.259   4.478  0.1849  0.0955 -0.2760
 1294POPI    C320339   9.993   9.649   4.412  0.0694  0.1515 -0.0515
 1294POPI   PO420340   9.729   9.444   4.952 -0.0899  0.1598  0.2314
 1294POPI   GL120341   9.559   9.614   5.414  0.0034  0.2101  0.0989
 1294POPI   GL220342   9.323   9.824   5.523 -0.0211  0.0768 -0.1019
 1294POPI   C1A20343   9.636   9.291   5.632 -0.3216  0.1377  0.0665
 1294POPI   D2A20344   9.518   9.392   6.060  0.1929  0.0525 -0.2347
 1294POPI   C3A20345   9.463   9.778   6.105 -0.0404  0.4565  0.0102
 1294POPI   C4A20346   9.347  10.081   5.905  0.2179 -0.0724 -0.0606
 1294POPI   C1B20347   9.037   9.557   5.820  0.0290  0.0384 -0.1425
 1294POPI   C2B20348   9.036   9.401   6.250 -0.0304 -0.1751 -0.1682
 1294POPI   C3B20349   8.880   9.388   6.640 -0.1177 -0.0425  0.0840
 1294POPI   C4B20350   8.805   9.440   7.092  0.0269 -0.1893 -0.1173
 1295POPI    C120351   9.226  11.178   4.703  0.1630 -0.0327 -0.0171
 1295POPI    C220352   8.843  11.097   4.623  0.1554 -0.0620  0.0486
 1295POPI    C320353   9.132  10.860   4.479  0.1475 -0.0539  0.0195
 1295POPI   PO420354   9.242  11.239   5.040  0.1900  0.1061  0.2011
 1295POPI   GL120355   9.122  10.920   5.429  0.1716  0.2902 -0.0226
 1295POPI   GL220356   9.465  10.963   5.462 -0.0070  0.0699 -0.3921
 1295POPI   C1A20357   8.951  10.907   5.801  0.1885 -0.0962 -0.2790
 1295POPI   D2A20358   9.089  11.019   6.337  0.2174  0.2419  0.2483
 1295POPI   C3A20359   8.927  11.348   6.533  0.3573  0.1386  0.1028
 1295POPI   C4A20360   8.961  11.330   6.952  0.1073 -0.1802  0.3015
 1295POPI   C1B20361   9.468  10.949   5.915  0.0609  0.0096  0.0683
 1295POPI   C2B20362   9.557  10.937   6.358  0.1446 -0.0744 -0.2074
 1295POPI   C3B20363   9.961  11.015   6.498  0.3092 -0.1665 -0.1833
 1295POPI   C4B20364  10.196  10.765   6.752  0.0321 -0.0825  0.0056
 1296POPI    C120365  16.799  15.689   4.225 -0.2659  0.2319 -0.0324
 1296POPI    C220366  16.608  15.347   4.143  0.1745 -0.1191  0.3552
 1296POPI    C320367  16.826  15.527   3.860 -0.2393 -0.0308  0.0840
 1296POPI   PO420368  16.710  15.707   4.431  0.1950  0.2425  0.3063
 1296POPI   GL120369  16.429  15.814   4.755 -0.1654 -0.0473  0.1336
 1296POPI   GL220370  16.273  15.681   5.027  0.2897  0.0973  0.0821
 1296POPI   C1A20371  16.568  16.158   5.097 -0.1692  0.0174  0.0165
 1296POPI   D2A20372  16.267  16.407   5.321  0.3479  0.3981  0.3025
 1296POPI   C3A20373  16.133  16.691   5.590  0.1780  0.1020  0.1091
 1296POPI   C4A20374  15.789  16.827   5.514 -0.1497 -0.0599 -0.0325
 1296POPI   C1B20375  16.112  15.966   5.399  0.3432  0.4343 -0.3065
 1296POPI   C2B20376  15.894  15.889   5.695  0.1126 -0.0392  0.2195
 1296POPI   C3B20377  15.874  16.176   6.265  0.0105  0.0034 -0.2578
 1296POPI   C4B20378  16.054  16.352   6.638  0.0434 -0.1852  0.1523
 1297POPI    C120379  18.124  13.182   4.751  0.0614  0.0842  0.1333
 1297POPI    C220380  18.202  13.167   4.359 -0.2409  0.2143  0.0648
 1297POPI    C320381  18.444  13.371   4.604 -0.0237  0.0920 -0.0441
 1297POPI   PO420382  18.068  12.891   4.795  0.1414  0.0306  0.0919
 1297POPI   GL120383  18.019  13.072   5.233  0.1309  0.0452  0.2482
 1297POPI   GL220384  18.411  13.081   5.149 -0.1805 -0.0418 -0.0176
 1297POPI   C1A20385  17.905  13.125   5.681  0.3730 -0.0665  0.1711
 1297POPI   D2A20386  18.122  13.063   6.064  0.0765 -0.2056 -0.0441
 1297POPI   C3A20387  18.161  13.368   6.375  0.0459  0.0993 -0.0107
 1297POPI   C4A20388  18.434  13.620   6.621  0.2327 -0.1601  0.0234
 1297POPI   C1B20389  18.368  12.758   5.477 -0.1727  0.0991 -0.1057
 1297POPI   C2B20390  18.133  12.686   5.736 -0.0867 -0.0194 -0.3688
 1297POPI   C3B20391  17.846  12.634   6.098  0.2635 -0.0293  0.0816
 1297POPI   C4B20392  17.975  12.479   6.591 -0.3260 -0.0825 -0.1095
 1298DPPI    C120393  18.307   4.789   4.695 -0.0137  0.1106 -0.1460
 1298DPPI    C220394  18.042   4.963   4.450 -0.1801  0.0014 -0.0458
 1298DPPI    C320395  18.185   4.599   4.364 -0.0974  0.0408 -0.0757
 1298DPPI   PO420396  18.337   5.031   4.860  0.0431  0.0006 -0.0655
 1298DPPI   GL120397  18.222   5.111   5.351  0.2934  0.0063  0.0157
 1298DPPI   GL220398  18.399   5.348   5.504 -0.2190  0.3029 -0.0817
 1298DPPI   C1A20399  17.994   4.863   5.548 -0.0909 -0.2339  0.0271
 1298DPPI   C2A20400  18.091   4.593   5.848 -0.0292  0.2846 -0.0802
 1298DPPI   C3A20401  18.132   4.560   6.310 -0.0082  0.1156  0.0057
 1298DPPI   C4A20402  18.184   4.203   6.597  0.0392  0.1450 -0.3129
 1298DPPI   C1B20403  18.198   5.288   5.888  0.2724 -0.1074 -0.1206
 1298DPPI   C2B20404  18.169   5.205   6.360 -0.1905  0.2926 -0.2633
 1298DPPI   C3B20405  18.170   5.157   6.808 -0.1224  0.0772 -0.0812
 1298DPPI   C4B20406  17.926   5.012   7.236  0.1776  0.0509 -0.2194
 1299DPPI    C120407   7.550  11.792   4.985 -0.1171  0.1009 -0.0448
 1299DPPI    C220408   7.452  11.432   4.840  0.3759 -0.0734  0.0340
 1299DPPI    C320409   7.495  11.743   4.592 -0.2881 -0.0012 -0.0089
 1299DPPI   PO420410   7.352  11.864   5.206  0.0617  0.1856  0.0006
 1299DPPI   GL120411   7.430  11.806   5.465 -0.1256 -0.0453  0.1156
 1299DPPI   GL220412   7.374  11.545   5.661 -0.0469 -0.3593  0.1520
 1299DPPI   C1A20413   7.446  12.201   5.792  0.1985  0.1589 -0.2939
 1299DPPI   C2A20414   7.500  12.494   5.983 -0.3739  0.0025 -0.1957
 1299DPPI   C3A20415   7.494  12.493   6.345 -0.0244 -0.0463  0.0025
 1299DPPI   C4A20416   7.759  12.696   6.657 -0.1057  0.0431  0.0486
 1299DPPI   C1B20417   7.364  11.737   5.983  0.1139  0.2729 -0.1636
 1299DPPI   C2B20418   7.606  11.857   6.247 -0.1397 -0.2556  0.1554
 1299DPPI   C3B20419   7.902  12.146   6.129  0.3094 -0.0469  0.3853
 1299DPPI   C4B20420   7.918  12.290   6.401 -0.0698 -0.0126 -0.2366
 1300DPPI    C120421  10.013   1.760   4.499 -0.0089  0.0139  0.0677
 1300DPPI    C220422  10.311   1.722   4.235 -0.1511 -0.3322 -0.0486
 1300DPPI    C320423   9.945   1.828   4.111 -0.1431 -0.1789  0.0558
 1300DPPI   PO420424  10.090   1.897   4.657 -0.0592  0.1118 -0.1360
 1300DPPI   GL120425  10.109   1.927   5.104 -0.0613 -0.0124 -0.3106
 1300DPPI   GL220426  10.368   1.638   5.108  0.2263 -0.0265  0.0118
 1300DPPI   C1A20427  10.017   2.196   5.474 -0.1436 -0.0409  0.2283
 1300DPPI   C2A20428  10.332   2.419   5.775  0.1734  0.1529  0.1355
 1300DPPI   C3A20429  10.772   2.366   5.795  0.2512  0.4034  0.1853
 1300DPPI   C4A20430  10.994   1.902   5.702  0.3508  0.0605 -0.2156
 1300DPPI   C1B20431  10.489   1.649   5.565  0.5850 -0.0573 -0.0682
 1300DPPI   C2B20432  10.457   1.802   5.909 -0.1572  0.2273 -0.5272
 1300DPPI   C3B20433  10.352   1.785   6.369 -0.0486  0.1615 -0.2355
 1300DPPI   C4B20434   9.952   1.735   6.553 -0.0875 -0.3131 -0.0871
 1301DPPI    C120435  16.186   1.685   4.588 -0.2532  0.1292  0.0692
 1301DPPI    C220436  16.518   1.816   4.768 -0.1598 -0.2390  0.1728
 1301DPPI    C320437  16.260   2.078   4.611 -0.0375  0.0708  0.4750
 1301DPPI   PO420438  16.200   1.478   4.851  0.2686 -0.1108 -0.0741
 1301DPPI   GL120439  16.066   1.527   5.349 -0.1681 -0.2180 -0.0281
 1301DPPI   GL220440  16.390   1.604   5.304 -0.0346 -0.1253 -0.1307
 1301DPPI   C1A20441  15.912   1.425   5.819 -0.1332 -0.1714  0.4680
 1301DPPI   C2A20442  16.143   1.217   6.120  0.1043 -0.0562  0.0848
 1301DPPI   C3A20443  16.253   0.813   6.286  0.1913 -0.1059 -0.3404
 1301DPPI   C4A20444  16.043   0.673   6.707 -0.2679 -0.0062  0.1306
 1301DPPI   C1B20445  16.299   1.735   5.759 -0.3294  0.2176 -0.1764
 1301DPPI   C2B20446  16.429   1.654   6.182 -0.1456  0.1034  0.0143
 1301DPPI   C3B20447  16.656   1.772   6.641  0.3101 -0.1265  0.0242
 1301DPPI   C4B20448  16.857   1.857   6.932  0.0011 -0.1853 -0.3108
 1302DPPI    C120449   6.198   8.438   4.707 -0.0636 -0.0276  0.0728
 1302DPPI    C220450   5.880   8.271   4.530  0.0095  0.0039 -0.0908
 1302DPPI    C320451   6.246   8.214   4.379  0.0624  0.1113 -0.0049
 1302DPPI   PO420452   6.189   8.318   4.930  0.0462 -0.4031  0.2886
 1302DPPI   GL120453   5.972   8.203   5.356  0.1109  0.0273 -0.1157
 1302DPPI   GL220454   5.964   7.816   5.192  0.0475 -0.2052 -0.2582
 1302DPPI   C1A20455   6.240   8.177   5.678  0.0934  0.0991  0.0697
 1302DPPI   C2A20456   6.349   8.127   6.044  0.2303 -0.4066 -0.1339
 1302DPPI   C3A20457   6.340   8.177   6.456  0.3458  0.3391  0.1831
 1302DPPI   C4A20458   6.255   8.323   6.797 -0.3012  0.1723  0.1788
 1302DPPI   C1B20459   5.981   7.635   5.588  0.0110 -0.0396  0.1275
 1302DPPI   C2B20460   5.976   7.693   5.979  0.0325  0.2055 -0.1545
 1302DPPI   C3B20461   5.914   7.836   6.487 -0.1400 -0.0300  0.0485
 1302DPPI   C4B20462   5.977   7.987   6.868  0.1927 -0.3214  0.1944
 1303DPPI    C120463   7.623  17.863   4.655 -0.0635  0.2666  0.2116
 1303DPPI    C220464   7.562  17.563   4.398  0.1310  0.0607  0.4019
 1303DPPI    C320465   7.257  17.797   4.507  0.0080  0.0283  0.1363
 1303DPPI   PO420466   7.748  17.745   4.825  0.1800 -0.2720  0.3801
 1303DPPI   GL120467   7.946  17.644   5.117  0.3699  0.1678 -0.2015
 1303DPPI   GL220468   8.018  17.325   5.210 -0.3093 -0.3045 -0.3346
 1303DPPI   C1A20469   8.109  17.908   5.381  0.0848 -0.1361  0.0360
 1303DPPI   C2A20470   8.291  17.945   5.669  0.0526 -0.1030 -0.1353
 1303DPPI   C3A20471   8.624  17.809   5.847  0.0901 -0.4834  0.1383
 1303DPPI   C4A20472   8.797  17.639   6.173  0.1173 -0.4451 -0.1084
 1303DPPI   C1B20473   8.120  17.305   5.593 -0.3773 -0.3169  0.2205
 1303DPPI   C2B20474   8.299  17.499   6.054 -0.1584  0.0795  0.0866
 1303DPPI   C3B20475   8.284  17.398   6.486  0.0004 -0.3973 -0.3425
 1303DPPI   C4B20476   8.506  17.230   6.939 -0.2812  0.1020 -0.1704
 1304DPPI    C120477  11.172  19.487   4.308  0.0666  0.0393  0.0359
 1304DPPI    C220478  11.161  19.821   4.527 -0.2286  0.0736 -0.0265
 1304DPPI    C320479  11.276  19.837   4.144  0.0924  0.0455  0.0653
 1304DPPI   PO420480  10.889  19.376   4.395  0.0832  0.0688 -0.0028
 1304DPPI   GL120481  10.736  19.560   4.779  0.1157 -0.0671  0.1205
 1304DPPI   GL220482  10.984  19.345   4.874 -0.2435  0.1542  0.3123
 1304DPPI   C1A20483  10.889  19.834   5.020 -0.2227  0.1861 -0.1967
 1304DPPI   C2A20484  10.894  19.890   5.353 -0.0245 -0.1327 -0.3062
 1304DPPI   C3A20485  10.952  19.532   5.456  0.1441  0.1195 -0.1199
 1304DPPI   C4A20486  11.011  19.135   5.544 -0.1446  0.0118 -0.2163
 1304DPPI   C1B20487  10.860  19.032   5.014  0.0153 -0.0002 -0.0486
 1304DPPI   C2B20488  10.703  18.770   5.361 -0.1569 -0.1085  0.1053
 1304DPPI   C3B20489  10.714  18.704   5.742  0.2588  0.0674  0.2970
 1304DPPI   C4B20490  10.411  18.615   6.059  0.2572 -0.0267 -0.1291
 1305DPPI    C120491  18.521   8.451   4.981 -0.1170  0.0562  0.0425
 1305DPPI    C220492  18.406   8.786   5.168  0.2474  0.2202 -0.0191
 1305DPPI    C320493  18.343   8.744   4.775 -0.0916  0.0752  0.0475
 1305DPPI   PO420494  18.451   8.298   5.101 -0.0119  0.0053 -0.0115
 1305DPPI   GL120495  18.425   8.066   5.509 -0.1931 -0.0720  0.3858
 1305DPPI   GL220496  18.597   8.333   5.592  0.0636  0.1453 -0.2440
 1305DPPI   C1A20497  18.136   8.081   5.757  0.2454  0.2025  0.2230
 1305DPPI   C2A20498  18.019   8.220   6.181 -0.0760 -0.1673 -0.0185
 1305DPPI   C3A20499  17.912   8.439   6.570  0.0605 -0.0564  0.0465
 1305DPPI   C4A20500  17.713   8.731   6.905  0.3318  0.1793 -0.0936
 1305DPPI   C1B20501  18.618   8.117   6.047 -0.1977  0.0536  0.1674
 1305DPPI   C2B20502  18.427   8.197   6.499 -0.1121  0.0981  0.1321
 1305DPPI   C3B20503  18.096   7.960   6.700 -0.2108 -0.1794  0.3969
 1305DPPI   C4B20504  17.690   8.028   6.569 -0.2722 -0.3215  0.0345
 1306DPPI    C120505  18.091  19.003   4.705  0.3079 -0.1323 -0.0282
 1306DPPI    C220506  18.286  19.296   4.894 -0.0136 -0.0935  0.2516
 1306DPPI    C320507  17.930  19.173   5.029 -0.1699 -0.1868 -0.2289
 1306DPPI   PO420508  18.244  18.827   4.649  0.1597 -0.1124 -0.3252
 1306DPPI   GL120509  18.227  18.696   5.045  0.1807  0.4454  0.1554
 1306DPPI   GL220510  18.410  18.914   5.150  0.1743  0.2655 -0.1004
 1306DPPI   C1A20511  18.317  18.610   5.562 -0.0853 -0.1660 -0.2863
 1306DPPI   C2A20512  18.617  18.497   5.803  0.3595 -0.1952 -0.1437
 1306DPPI   C3A20513  18.812  18.190   6.057 -0.0159  0.0451 -0.2097
 1306DPPI   C4A20514  19.060  18.111   6.461  0.3243 -0.2867  0.0239
 1306DPPI   C1B20515  18.681  18.485   5.264 -0.2397  0.1727  0.1277
 1306DPPI   C2B20516  18.455  18.146   5.316  0.3934 -0.2539 -0.8041
 1306DPPI   C3B20517  18.391  18.076   5.802  0.1699 -0.0476  0.0312
 1306DPPI   C4B20518  18.022  17.797   6.037 -0.1264 -0.3543  0.1349
 1307DPPI    C120519   6.862   6.281   4.764  0.0775  0.0860  0.1063
 1307DPPI    C220520   6.637   6.042   4.994 -0.1429  0.2675  0.0833
 1307DPPI    C320521   6.494   6.178   4.646  0.1055  0.1724 -0.0590
 1307DPPI   PO420522   7.128   6.289   4.932 -0.3940 -0.1267 -0.2166
 1307DPPI   GL120523   7.185   5.949   5.196 -0.0293  0.2372  0.0297
 1307DPPI   GL220524   7.422   5.872   5.071  0.0642  0.0585  0.0312
 1307DPPI   C1A20525   7.165   6.105   5.584  0.1369  0.0915 -0.1888
 1307DPPI   C2A20526   7.191   5.914   5.975 -0.1764 -0.0869  0.2305
 1307DPPI   C3A20527   7.200   5.633   6.238  0.1925  0.1751  0.1182
 1307DPPI   C4A20528   7.074   5.588   6.684 -0.0288 -0.0965  0.0125
 1307DPPI   C1B20529   7.528   5.817   5.512 -0.0525 -0.0151 -0.1735
 1307DPPI   C2B20530   7.755   5.739   5.870  0.0349 -0.1803  0.0665
 1307DPPI   C3B20531   7.702   5.722   6.390  0.1141  0.5304  0.3400
 1307DPPI   C4B20532   7.622   5.586   6.814 -0.0685 -0.1340  0.0680
 1308PYPI    C120533  19.372   1.119   4.629 -0.1878 -0.1611 -0.0839
 1308PYPI    C220534  18.978   1.082   4.577 -0.1983 -0.1836  0.0098
 1308PYPI    C320535  19.215   1.156   4.263 -0.3252  0.2667  0.0117
 1308PYPI   PO420536  19.435   0.919   4.782 -0.0724  0.1585  0.1277
 1308PYPI   GL120537  19.316   0.749   5.134  0.3351 -0.0716 -0.0654
 1308PYPI   GL220538  19.413   0.511   5.171 -0.0416 -0.1135  0.1447
 1308PYPI   C1A20539  19.049   0.781   5.531 -0.3293 -0.1573  0.0484
 1308PYPI   C2A20540  19.021   0.692   5.911  0.0654  0.0213 -0.3022
 1308PYPI   D3A20541  19.138   0.815   6.342 -0.1209  0.0999  0.0520
 1308PYPI   C4A20542  18.705   0.764   6.641 -0.1308 -0.1517 -0.3121
 1308PYPI   C1B20543  19.345   0.380   5.587 -0.0673 -0.1209 -0.0086
 1308PYPI   C2B20544  19.361   0.284   6.026 -0.3665  0.2991  0.2471
 1308PYPI   C3B20545  19.615   0.147   6.408 -0.1895 -0.2600 -0.0165
 1308PYPI   C4B20546  19.917  -0.019   6.734  0.0047 -0.0982 -0.2707
 1309PYPI    C120547   2.151   2.280   4.642 -0.1312  0.2306 -0.1063
 1309PYPI    C220548   2.010   2.449   4.308 -0.1872 -0.0941 -0.2506
 1309PYPI    C320549   2.363   2.262   4.304 -0.1338  0.0011 -0.0970
 1309PYPI   PO420550   2.008   2.113   4.731 -0.0586  0.1323 -0.1405
 1309PYPI   GL120551   1.949   1.922   5.144  0.1448 -0.0103 -0.1562
 1309PYPI   GL220552   2.283   1.770   5.165 -0.0486 -0.2043  0.1043
 1309PYPI   C1A20553   1.872   1.761   5.648  0.0796 -0.2089  0.3794
 1309PYPI   C2A20554   1.602   1.717   6.073 -0.1799  0.1160  0.0418
 1309PYPI   D3A20555   1.725   1.997   6.512  0.0120 -0.2109  0.0812
 1309PYPI   C4A20556   1.493   1.845   6.941 -0.1890  0.0178  0.2646
 1309PYPI   C1B20557   2.223   1.462   5.536 -0.1028 -0.1272 -0.1622
 1309PYPI   C2B20558   2.025   1.392   5.971  0.0316 -0.2047 -0.0221
 1309PYPI   C3B20559   1.966   1.524   6.436 -0.0838  0.0157  0.1108
 1309PYPI   C4B20560   1.948   1.648   6.894 -0.0494 -0.3646 -0.0227
 1310PYPI    C120561   0.533  10.428   4.876 -0.1382  0.3722 -0.1542
 1310PYPI    C220562   0.795  10.483   5.173 -0.1263 -0.0058 -0.0896
 1310PYPI    C320563   0.911  10.528   4.792 -0.0464  0.1200 -0.0512
 1310PYPI   PO420564   0.322  10.298   5.071 -0.2883 -0.0376 -0.2758
 1310PYPI   GL120565   0.458  10.396   5.542 -0.0222  0.0039 -0.0378
 1310PYPI   GL220566   0.705  10.115   5.637  0.3448 -0.1074 -0.1029
 1310PYPI   C1A20567   0.700  10.715   5.794  0.3985 -0.2080 -0.3695
 1310PYPI   C2A20568   0.557  10.899   6.102  0.2375 -0.1729  0.2870
 1310PYPI   D3A20569   0.316  11.274   6.173  0.1597 -0.0251 -0.2303
 1310PYPI   C4A20570   0.138  11.189   6.554  0.1005  0.0103 -0.1329
 1310PYPI   C1B20571   0.618  10.255   6.078 -0.3592  0.3212 -0.1582
 1310PYPI   C2B20572   0.574  10.203   6.649  0.0034  0.0022 -0.1856
 1310PYPI   C3B20573   0.653   9.986   7.101 -0.1795  0.1066 -0.0378
 1310PYPI   C4B20574   0.605   9.712   7.573 -0.0517 -0.1118  0.1173
 1311PYPI    C120575  18.540   2.427   4.347  0.1757  0.1027 -0.0083
 1311PYPI    C220576  18.230   2.665   4.430  0.1354 -0.0314  0.2339
 1311PYPI    C320577  18.521   2.793   4.187  0.0414  0.2083  0.2447
 1311PYPI   PO420578  18.518   2.316   4.582  0.2687  0.1740 -0.2932
 1311PYPI   GL120579  18.665   2.392   5.031 -0.2401  0.1231 -0.0123
 1311PYPI   GL220580  18.595   2.650   5.100  0.0928 -0.0725 -0.2235
 1311PYPI   C1A20581  18.801   2.392   5.515 -0.1286  0.2401  0.1802
 1311PYPI   C2A20582  18.848   2.766   5.752 -0.2136 -0.1867 -0.1357
 1311PYPI   D3A20583  18.707   2.781   6.112 -0.1674 -0.2660 -0.0351
 1311PYPI   C4A20584  18.282   2.583   6.216 -0.1644  0.0995 -0.1573
 1311PYPI   C1B20585  18.461   2.903   5.495  0.0116 -0.0768  0.0332
 1311PYPI   C2B20586  18.341   3.143   5.954  0.1550  0.2044  0.0127
 1311PYPI   C3B20587  18.570   3.317   6.324  0.0090 -0.1747 -0.0643
 1311PYPI   C4B20588  18.609   3.311   6.793 -0.2347  0.0234  0.0052
 1312PYPI    C120589  13.141  13.839   4.731 -0.1293  0.3540 -0.1797
 1312PYPI    C220590  13.319  14.088   4.473 -0.0273  0.2457 -0.2146
 1312PYPI    C320591  13.315  13.694   4.401  0.1740  0.1929  0.0459
 1312PYPI   PO420592  13.249  13.894   4.936 -0.2080 -0.5141 -0.1307
 1312PYPI   GL120593  13.152  14.057   5.275  0.0520 -0.1092 -0.3305
 1312PYPI   GL220594  13.138  14.340   5.357 -0.0307 -0.0799 -0.0211
 1312PYPI   C1A20595  13.173  13.756   5.558 -0.3293 -0.0537  0.0997
 1312PYPI   C2A20596  13.155  13.778   5.980 -0.1699  0.0284  0.3679
 1312PYPI   D3A20597  13.190  13.778   6.435 -0.0795  0.0437 -0.0761
 1312PYPI   C4A20598  12.981  14.038   6.721  0.1475  0.0877  0.2912
 1312PYPI   C1B20599  13.184  14.264   5.746  0.3189 -0.1507 -0.1948
 1312PYPI   C2B20600  13.124  14.284   6.166  0.1254 -0.0414 -0.1557
 1312PYPI   C3B20601  12.885  14.492   6.471 -0.0045 -0.0036 -0.0858
 1312PYPI   C4B20602  12.436  14.585   6.383  0.3202 -0.0705 -0.1284
 1313PYPI    C120603  16.276   9.449   4.776  0.2525  0.0060  0.2390
 1313PYPI    C220604  16.392   9.818   4.675 -0.0838  0.0228 -0.1085
 1313PYPI    C320605  16.544   9.502   4.484 -0.0515  0.0004 -0.0461
 1313PYPI   PO420606  16.303   9.436   5.042  0.1218  0.2469  0.1294
 1313PYPI   GL120607  16.078   9.243   5.377 -0.0521  0.5237 -0.2132
 1313PYPI   GL220608  16.003   9.470   5.431  0.4161 -0.0182  0.0357
 1313PYPI   C1A20609  16.380   9.322   5.783 -0.2801 -0.2888  0.2756
 1313PYPI   C2A20610  16.612   9.197   6.152  0.1642 -0.0418 -0.0256
 1313PYPI   D3A20611  16.861   9.406   6.458  0.1896  0.2265  0.3473
 1313PYPI   C4A20612  17.320   9.364   6.407 -0.3071 -0.1636  0.1951
 1313PYPI   C1B20613  15.947   9.381   5.935 -0.1216  0.2875 -0.0783
 1313PYPI   C2B20614  15.725   9.265   6.326 -0.0499  0.0854  0.2063
 1313PYPI   C3B20615  15.431   9.322   6.660  0.1379 -0.0159 -0.2612
 1313PYPI   C4B20616  15.492   9.635   6.978  0.0738  0.0150 -0.0169
 1314ERGO   ROH20617   3.750  15.990   5.451  0.0521 -0.0736 -0.0570
 1314ERGO    R120618   3.754  15.781   5.642 -0.1782 -0.0579 -0.0297
 1314ERGO    R220619   3.955  15.756   5.831 -0.0767 -0.3785 -0.1646
 1314ERGO    R320620   3.746  15.755   6.005  0.0320  0.0198 -0.0190
 1314ERGO    R420621   3.918  15.535   6.093 -0.3017 -0.2727 -0.1053
 1314ERGO    R520622   3.705  15.523   6.047 -0.3576  0.0969  0.0444
 1314ERGO    C120623   3.701  15.404   6.410 -0.3307  0.1628  0.0659
 1314ERGO    C220624   3.498  15.210   6.626 -0.4561  0.0509 -0.1140
 1315ERGO   ROH20625  14.810  10.797   5.137 -0.1192  0.1051 -0.0407
 1315ERGO    R120626  14.694  10.942   5.351 -0.0284  0.0699  0.0325
 1315ERGO    R220627  14.620  10.823   5.589  0.0449  0.0253  0.0314
 1315ERGO    R320628  14.779  11.015   5.697  0.1019 -0.0140  0.0195
 1315ERGO    R420629  14.681  10.863   5.927 -0.2372  0.2469  0.0606
 1315ERGO    R520630  14.668  11.078   5.899 -0.0393  0.2406 -0.1302
 1315ERGO    C120631  14.866  11.066   6.225 -0.3481  0.3389  0.0665
 1315ERGO    C220632  15.145  11.133   6.342  0.0920 -0.0038 -0.1725
 1316ERGO   ROH20633   6.037  18.056   9.379  0.1019 -0.1052 -0.0555
 1316ERGO    R120634   5.929  18.126   9.126  0.0974 -0.0713 -0.0437
 1316ERGO    R220635   6.073  18.264   8.935  0.1118 -0.0971 -0.0467
 1316ERGO    R320636   6.005  18.054   8.778  0.0522 -0.0734 -0.0542
 1316ERGO    R420637   6.027  18.281   8.593  0.1805 -0.0788 -0.0559
 1316ERGO    R520638   5.856  18.147   8.615  0.1178 -0.0100 -0.0827
 1316ERGO    C120639   5.935  18.093   8.246  0.1648 -0.0457 -0.0683
 1316ERGO    C220640   5.996  18.259   8.050 -0.0114  0.1121 -0.1526
 1317ERGO   ROH20641  12.290  13.224   5.189 -0.2039 -0.0630 -0.0029
 1317ERGO    R120642  12.258  13.110   5.446  0.0089 -0.1522 -0.0137
 1317ERGO    R220643  12.472  13.052   5.611  0.1265  0.2081 -0.0305
 1317ERGO    R320644  12.335  13.206   5.789 -0.1424 -0.0501 -0.0074
 1317ERGO    R420645  12.521  13.050   5.953  0.0607  0.1744 -0.0211
 1317ERGO    R520646  12.305  13.063   5.979  0.0306 -0.1574 -0.0588
 1317ERGO    C120647  12.421  13.192   6.319 -0.2300 -0.0877  0.0060
 1317ERGO    C220648  12.534  13.203   6.616  0.0495  0.1028 -0.0760
 1318ERGO   ROH20649  17.677   0.806   9.137  0.1050  0.0697  0.0617
 1318ERGO    R120650  17.569   0.918   8.901  0.1275  0.0796  0.0560
 1318ERGO    R220651  17.726   1.002   8.690  0.1371 -0.0737  0.0018
 1318ERGO    R320652  17.564   0.836   8.546  0.0015 -0.0075  0.0770
 1318ERGO    R420653  17.687   1.013   8.347  0.0708 -0.1315  0.0073
 1318ERGO    R520654  17.474   0.976   8.375  0.0527  0.0093  0.0629
 1318ERGO    C120655  17.512   0.864   8.012 -0.0949 -0.1029  0.0811
 1318ERGO    C220656  17.517   0.896   7.541 -0.1282  0.0643  0.1603
 1319ERGO   ROH20657   8.781  11.154   9.423 -0.0034  0.0477 -0.0848
 1319ERGO    R120658   8.787  11.071   9.152 -0.3729 -0.1651 -0.0354
 1319ERGO    R220659   8.565  11.080   8.989 -0.4403  0.3968  0.0617
 1319ERGO    R320660   8.729  11.224   8.827 -0.0563 -0.1966 -0.1088
 1319ERGO    R420661   8.502  11.152   8.657 -0.4651  0.5323  0.0958
 1319ERGO    R520662   8.713  11.116   8.614 -0.6009 -0.2071 -0.0721
 1319ERGO    C120663   8.620  11.330   8.312 -0.1192  0.0542 -0.0442
 1319ERGO    C220664   8.508  11.426   7.968 -0.1528  0.0721 -0.1005
 1320ERGO   ROH20665   6.006   9.744   9.748 -0.1386  0.0416  0.0538
 1320ERGO    R120666   5.896   9.830   9.502 -0.2037 -0.1368  0.0206
 1320ERGO    R220667   6.052   9.908   9.288 -0.2611  0.1360  0.0784
 1320ERGO    R320668   5.908   9.720   9.155  0.0977 -0.1098  0.0187
 1320ERGO    R420669   5.979   9.917   8.950 -0.2888  0.1133  0.0831
 1320ERGO    R520670   5.779   9.844   8.997 -0.1568 -0.2992  0.0674
 1320ERGO    C120671   5.800   9.745   8.629  0.0318 -0.1308  0.0299
 1320ERGO    C220672   5.661   9.532   8.308 -0.0379  0.0750  0.1814
 1321ERGO   ROH20673   7.625   4.830   9.364  0.0445 -0.1195 -0.0058
 1321ERGO    R120674   7.518   4.863   9.104 -0.0376 -0.1068  0.0287
 1321ERGO    R220675   7.394   5.096   9.023 -0.0467 -0.0936  0.0712
 1321ERGO    R320676   7.575   5.083   8.821 -0.1112 -0.1064  0.0147
 1321ERGO    R420677   7.341   5.213   8.702 -0.1294 -0.0748  0.0921
 1321ERGO    R520678   7.444   5.037   8.626 -0.1746 -0.0820  0.0533
 1321ERGO    C120679   7.480   5.269   8.325 -0.2381 -0.0759  0.0512
 1321ERGO    C220680   7.572   5.455   8.149  0.2064 -0.3287 -0.0267
 1322ERGO   ROH20681   4.436  10.573   9.770 -0.4022 -0.0783 -0.0375
 1322ERGO    R120682   4.352  10.498   9.510 -0.1568 -0.0996 -0.1132
 1322ERGO    R220683   4.293  10.683   9.314 -0.3241 -0.1039 -0.0656
 1322ERGO    R320684   4.474  10.540   9.170 -0.0353  0.2162 -0.0348
 1322ERGO    R420685   4.266  10.616   8.976 -0.1507 -0.1573 -0.0703
 1322ERGO    R520686   4.340  10.414   9.016  0.2106 -0.0320 -0.0562
 1322ERGO    C120687   4.420  10.443   8.644  0.2213  0.1120 -0.0440
 1322ERGO    C220688   4.410  10.264   8.350 -0.2418 -0.2089  0.0123
 1323ERGO   ROH20689  15.637  11.425   9.004  0.1026  0.0261 -0.0722
 1323ERGO    R120690  15.594  11.498   8.734  0.0112  0.1178 -0.0337
 1323ERGO    R220691  15.595  11.315   8.528  0.1669  0.2156 -0.1259
 1323ERGO    R320692  15.350  11.421   8.475  0.0605  0.0137 -0.0481
 1323ERGO    R420693  15.435  11.300   8.222  0.1989  0.3219 -0.1476
 1323ERGO    R520694  15.370  11.506   8.252 -0.0127  0.2289  0.0276
 1323ERGO    C120695  15.113  11.392   7.994  0.1177  0.1941 -0.0872
 1323ERGO    C220696  14.978  11.450   7.664 -0.2462 -0.2358  0.2170
 1324ERGO   ROH20697  10.901   4.777   5.174  0.1636  0.1488  0.0185
 1324ERGO    R120698  10.851   4.728   5.448  0.1304  0.0377 -0.0074
 1324ERGO    R220699  11.038   4.779   5.645  0.1082 -0.0506  0.0332
 1324ERGO    R320700  10.836   4.925   5.754  0.1020 -0.0884  0.0741
 1324ERGO    R420701  10.998   4.840   5.983  0.3383  0.1878  0.0206
 1324ERGO    R520702  10.783   4.812   5.958  0.3313  0.0347  0.2085
 1324ERGO    C120703  10.786   5.013   6.282  0.4664  0.2913  0.0518
 1324ERGO    C220704  10.880   5.000   6.600  0.1205 -0.1589 -0.0336
 1325ERGO   ROH20705   4.363  14.260   9.253  0.0061  0.3074 -0.1037
 1325ERGO    R120706   4.603  14.151   9.150 -0.0133  0.2185 -0.0543
 1325ERGO    R220707   4.616  14.029   8.902 -0.0364  0.0987  0.0065
 1325ERGO    R320708   4.816  14.209   8.860 -0.0044  0.0440 -0.0848
 1325ERGO    R420709   4.858  14.002   8.657 -0.1647  0.0341 -0.1154
 1325ERGO    R520710   5.005  14.074   8.800 -0.0710 -0.0118 -0.1822
 1325ERGO    C120711   5.186  14.155   8.475 -0.2094 -0.0550 -0.2720
 1325ERGO    C220712   5.250  14.326   8.229 -0.4634 -0.1077 -0.1523
 1326ERGO   ROH20713  18.655   7.392   9.541 -0.0111 -0.2451  0.0363
 1326ERGO    R120714  18.712   7.458   9.272 -0.2176 -0.1431  0.0175
 1326ERGO    R220715  18.911   7.332   9.126  0.0235  0.2740 -0.0137
 1326ERGO    R320716  18.708   7.285   8.951  0.0790 -0.1830  0.0300
 1326ERGO    R420717  18.904   7.439   8.798 -0.2379  0.1939 -0.0381
 1326ERGO    R520718  18.693   7.486   8.822 -0.3466 -0.2265 -0.0138
 1326ERGO    C120719  18.710   7.457   8.442 -0.3379 -0.2817 -0.0113
 1326ERGO    C220720  18.527   7.486   8.145 -0.4193 -0.1683  0.4255
 1327ERGO   ROH20721  18.603   0.583   9.028  0.0935 -0.0014 -0.0767
 1327ERGO    R120722  18.540   0.604   8.753  0.0829  0.0625 -0.0696
 1327ERGO    R220723  18.612   0.822   8.600  0.1525  0.0599 -0.0421
 1327ERGO    R320724  18.724   0.633   8.441  0.0734  0.0419 -0.0769
 1327ERGO    R420725  18.726   0.877   8.278  0.0440  0.0351 -0.0854
 1327ERGO    R520726  18.643   0.684   8.221  0.0012  0.0436 -0.0496
 1327ERGO    C120727  18.899   0.731   7.942 -0.0933  0.0038 -0.1433
 1327ERGO    C220728  19.022   0.763   7.537  0.1863 -0.2228  0.1378
 1328ERGO   ROH20729   4.760   3.366   9.035  0.0677  0.0451 -0.1577
 1328ERGO    R120730   4.649   3.339   8.776  0.0576 -0.0007 -0.1488
 1328ERGO    R220731   4.476   3.525   8.668  0.0332 -0.0323 -0.1657
 1328ERGO    R320732   4.656   3.526   8.465  0.0235 -0.0413 -0.1741
 1328ERGO    R420733   4.419   3.658   8.354  0.0078 -0.0731 -0.1783
 1328ERGO    R520734   4.525   3.488   8.268  0.0174 -0.0745 -0.1635
 1328ERGO    C120735   4.556   3.737   7.980 -0.0161 -0.1054 -0.1935
 1328ERGO    C220736   4.469   3.872   7.716  0.0989 -0.2632  0.3782
 1329ERGO   ROH20737   7.103  16.720   9.349  0.1649  0.0711 -0.0435
 1329ERGO    R120738   7.143  16.717   9.069  0.1983 -0.1175 -0.0381
 1329ERGO    R220739   7.277  16.513   8.940 -0.0082 -0.3333  0.0834
 1329ERGO    R320740   7.050  16.502   8.791 -0.0030 -0.1614  0.0612
 1329ERGO    R420741   7.267  16.453   8.600 -0.0117 -0.2010  0.0598
 1329ERGO    R520742   7.111  16.604   8.583  0.0661 -0.1137  0.1039
 1329ERGO    C120743   7.048  16.408   8.261 -0.0089  0.0377  0.0251
 1329ERGO    C220744   7.013  16.475   7.952  0.3005  0.2614  0.2156
 1330ERGO   ROH20745  11.782  11.211   5.342  0.1502  0.1800 -0.1091
 1330ERGO    R120746  11.942  11.110   5.553  0.0366  0.1013 -0.0622
 1330ERGO    R220747  12.024  11.267   5.765 -0.0886  0.0142  0.0397
 1330ERGO    R320748  11.910  11.070   5.913 -0.1545 -0.0501 -0.0914
 1330ERGO    R420749  12.126  11.174   6.081 -0.0796 -0.2425 -0.0349
 1330ERGO    R520750  12.094  10.966   6.025 -0.1698 -0.2014 -0.1861
 1330ERGO    C120751  12.078  10.935   6.405 -0.1363 -0.4522 -0.2014
 1330ERGO    C220752  12.251  10.835   6.629 -0.0568  0.1464  0.3064
 1331ERGO   ROH20753   8.816   5.574   5.314  0.1037  0.1864  0.1452
 1331ERGO    R120754   8.739   5.575   5.586 -0.1230 -0.1058  0.0891
 1331ERGO    R220755   8.635   5.353   5.712  0.2072 -0.3916 -0.1066
 1331ERGO    R320756   8.835   5.400   5.890 -0.0133 -0.0780  0.0677
 1331ERGO    R420757   8.653   5.218   6.030  0.1291 -0.3077 -0.0673
 1331ERGO    R520758   8.725   5.410   6.102 -0.2091 -0.1971 -0.0322
 1331ERGO    C120759   8.852   5.183   6.381 -0.1234  0.0356  0.1192
 1331ERGO    C220760   8.996   5.104   6.663 -0.1021 -0.0373  0.0422
 1332ERGO   ROH20761  12.509   9.226   5.299  0.0155 -0.1562  0.0854
 1332ERGO    R120762  12.625   9.085   5.516  0.0446 -0.0683  0.1281
 1332ERGO    R220763  12.766   9.212   5.717  0.0196  0.0231  0.0955
 1332ERGO    R320764  12.590   9.082   5.878  0.0413  0.0345  0.1273
 1332ERGO    R420765  12.838   9.098   6.035  0.0380  0.0669  0.1068
 1332ERGO    R520766  12.724   8.917   5.991  0.0501  0.0595  0.1423
 1332ERGO    C120767  12.715   8.909   6.372  0.0691  0.1031  0.1433
 1332ERGO    C220768  12.755   8.813   6.640  0.0886 -0.1907  0.0625
 1333ERGO   ROH20769  13.787   4.969   9.151 -0.0460 -0.1538 -0.0165
 1333ERGO    R120770  13.842   4.825   8.915 -0.1122 -0.2188  0.0066
 1333ERGO    R220771  13.644   4.738   8.743 -0.1451 -0.0089 -0.0680
 1333ERGO    R320772  13.791   4.872   8.557  0.0714 -0.1658 -0.0131
 1333ERGO    R420773  13.555   4.776   8.411 -0.0499  0.2153 -0.0694
 1333ERGO    R520774  13.764   4.744   8.357 -0.0889 -0.0701 -0.0519
 1333ERGO    C120775  13.641   4.924   8.044  0.2088  0.1987 -0.0187
 1333ERGO    C220776  13.534   5.106   7.749  0.3103  0.1034  0.1574
 1334ERGO   ROH20777  15.903   8.729   5.299 -0.0672  0.0630 -0.0910
 1334ERGO    R120778  15.854   8.768   5.575 -0.0758 -0.1746 -0.0573
 1334ERGO    R220779  15.777   9.012   5.680  0.1820 -0.1920  0.1834
 1334ERGO    R320780  15.571   8.867   5.781 -0.0084 -0.0720 -0.0116
 1334ERGO    R420781  15.560   9.121   5.926  0.1386 -0.1400  0.1237
 1334ERGO    R520782  15.567   8.923   6.014 -0.0870 -0.2009  0.0204
 1334ERGO    C120783  15.240   9.048   6.164 -0.0653  0.0030 -0.0941
 1334ERGO    C220784  14.963   9.214   6.263  0.1267 -0.1478  0.0171
 1335ERGO   ROH20785   6.196   3.020   9.085 -0.0836  0.0409 -0.1330
 1335ERGO    R120786   5.987   2.980   8.899 -0.0941  0.1260 -0.1396
 1335ERGO    R220787   5.994   3.084   8.643 -0.0524  0.1390 -0.1337
 1335ERGO    R320788   5.950   2.825   8.572 -0.1421  0.1585 -0.1495
 1335ERGO    R420789   5.835   2.984   8.353  0.0665  0.2080 -0.2239
 1335ERGO    R520790   5.733   2.828   8.468 -0.0804  0.2636 -0.2770
 1335ERGO    C120791   5.700   2.682   8.117  0.0515  0.2663 -0.2913
 1335ERGO    C220792   5.649   2.459   7.834 -0.1416  0.1253 -0.2570
 1336ERGO   ROH20793   8.750  12.334   9.505  0.0277 -0.3010  0.0678
 1336ERGO    R120794   9.012  12.251   9.440  0.0789 -0.0774 -0.0159
 1336ERGO    R220795   9.065  12.060   9.248  0.1762 -0.0709  0.0084
 1336ERGO    R320796   9.225  12.253   9.144 -0.0345  0.0506 -0.0991
 1336ERGO    R420797   9.256  12.025   8.962  0.3739 -0.1053  0.1423
 1336ERGO    R520798   9.416  12.134   9.062  0.1774  0.2216  0.1237
 1336ERGO    C120799   9.518  12.187   8.698  0.2913 -0.0113  0.1193
 1336ERGO    C220800   9.724  12.127   8.366  0.0520 -0.0483  0.1766
 1337ERGO   ROH20801   9.067  11.394   5.505  0.0482 -0.2734  0.0036
 1337ERGO    R120802   9.255  11.374   5.715  0.0962 -0.0765 -0.0200
 1337ERGO    R220803   9.290  11.573   5.903 -0.0934 -0.0415 -0.0266
 1337ERGO    R320804   9.246  11.371   6.079  0.1453 -0.0915 -0.0176
 1337ERGO    R420805   9.377  11.579   6.238 -0.2509  0.1504  0.0138
 1337ERGO    R520806   9.439  11.371   6.221  0.0891  0.2371  0.0712
 1337ERGO    C120807   9.385  11.392   6.598 -0.1185  0.2152  0.0457
 1337ERGO    C220808   9.524  11.414   6.892  0.2944  0.0007  0.3378
 1338ERGO   ROH20809  12.776   3.648   5.275  0.2444 -0.2002 -0.1408
 1338ERGO    R120810  12.814   3.511   5.520  0.1328 -0.1387 -0.0880
 1338ERGO    R220811  13.061   3.419   5.603  0.1346  0.0588  0.1440
 1338ERGO    R320812  13.004   3.563   5.826 -0.1746  0.0494  0.0748
 1338ERGO    R420813  13.181   3.349   5.920  0.1420  0.3669  0.2125
 1338ERGO    R520814  12.984   3.399   6.000  0.0314  0.0793  0.1260
 1338ERGO    C120815  13.196   3.443   6.313 -0.1439  0.5375  0.1874
 1338ERGO    C220816  13.176   3.499   6.671  0.1750 -0.0724 -0.0965
 1339ERGO   ROH20817   5.960  19.017   9.343 -0.2327  0.0107 -0.0560
 1339ERGO    R120818   6.044  19.029   9.073 -0.1217  0.1625 -0.0149
 1339ERGO    R220819   6.080  18.804   8.918  0.0492  0.2465 -0.0927
 1339ERGO    R320820   5.910  18.932   8.749  0.0650  0.2357 -0.1177
 1339ERGO    R420821   6.039  18.727   8.583  0.0659  0.1937 -0.0828
 1339ERGO    R520822   6.029  18.941   8.541  0.0827  0.1946 -0.1144
 1339ERGO    C120823   5.856  18.802   8.230  0.0905  0.1527 -0.1005
 1339ERGO    C220824   5.853  18.721   7.912  0.1832 -0.2211  0.7769
 1340ERGO   ROH20825   7.571  17.274   5.410  0.2329 -0.0059 -0.1634
 1340ERGO    R120826   7.668  17.522   5.505  0.0634  0.0160 -0.0418
 1340ERGO    R220827   7.573  17.641   5.735 -0.0242 -0.1576  0.0140
 1340ERGO    R320828   7.835  17.643   5.805 -0.0267 -0.0146  0.0211
 1340ERGO    R420829   7.696  17.751   6.039 -0.1066 -0.2486  0.0810
 1340ERGO    R520830   7.861  17.844   5.932 -0.1688 -0.0706  0.1392
 1340ERGO    C120831   8.014  17.817   6.281 -0.1569 -0.1676  0.1268
 1340ERGO    C220832   8.347  17.886   6.485 -0.0163  0.0717 -0.2117
 1341ERGO   ROH20833   5.764  19.506   5.044 -0.0693  0.0452 -0.0398
 1341ERGO    R120834   5.842  19.760   5.141  0.0129  0.0276 -0.0608
 1341ERGO    R220835   5.828  19.828   5.408 -0.0413  0.0806 -0.0795
 1341ERGO    R320836   6.091  19.889   5.373 -0.0024 -0.0394 -0.0058
 1341ERGO    R420837   6.010  20.042   5.610 -0.0154  0.0318 -0.0505
 1341ERGO    R520838   6.106  20.121   5.432  0.0774 -0.0353 -0.0342
 1341ERGO    C120839   6.362  20.223   5.696  0.0361 -0.1094  0.0356
 1341ERGO    C220840   6.441  20.229   6.024  0.0854  0.0771 -0.1007
 1342ERGO   ROH20841   8.519   4.308   5.372 -0.1255  0.0142 -0.0383
 1342ERGO    R120842   8.437   4.221   5.629 -0.0242  0.0704  0.0126
 1342ERGO    R220843   8.404   3.955   5.692 -0.0705  0.0916  0.0601
 1342ERGO    R320844   8.575   4.015   5.895  0.0453  0.0636 -0.0270
 1342ERGO    R420845   8.403   3.802   6.003  0.1784 -0.0406 -0.0007
 1342ERGO    R520846   8.440   3.998   6.093  0.1753 -0.0615  0.0562
 1342ERGO    C120847   8.563   3.770   6.374  0.4322 -0.1440 -0.1178
 1342ERGO    C220848   8.518   3.764   6.642  0.0948  0.3034 -0.2020
 1343ERGO   ROH20849   1.907  16.357   5.196  0.2323  0.0999  0.1812
 1343ERGO    R120850   1.757  16.188   5.367  0.1502  0.3064  0.3171
 1343ERGO    R220851   1.742  15.914   5.331 -0.4237  0.3371  0.2056
 1343ERGO    R320852   1.827  15.908   5.589 -0.0558  0.0690  0.0867
 1343ERGO    R420853   1.677  15.659   5.554 -0.1477  0.1368  0.0629
 1343ERGO    R520854   1.645  15.809   5.709  0.0996 -0.0089  0.2553
 1343ERGO    C120855   1.718  15.504   5.927  0.3585 -0.2314 -0.1319
 1343ERGO    C220856   1.602  15.290   6.080  0.0503  0.2028  0.0869
 1344ERGO   ROH20857  18.001   1.159   5.250  0.0050  0.0765  0.0843
 1344ERGO    R120858  17.784   1.058   5.402  0.0948 -0.0473  0.1310
 1344ERGO    R220859  17.819   0.929   5.643  0.2111  0.1267  0.2069
 1344ERGO    R320860  17.643   1.116   5.732  0.0211  0.0081  0.0915
 1344ERGO    R420861  17.593   0.880   5.900  0.2122  0.0283  0.1899
 1344ERGO    R520862  17.445   0.991   5.784  0.1253 -0.1572  0.1113
 1344ERGO    C120863  17.296   1.027   6.133  0.0343 -0.1404  0.0716
 1344ERGO    C220864  17.242   1.091   6.401 -0.3674  0.0020 -0.0460
 1345ERGO   ROH20865  15.477  19.403   8.959  0.1102  0.0368  0.0586
 1345ERGO    R120866  15.547  19.503   8.704 -0.0518  0.0010  0.0003
 1345ERGO    R220867  15.711  19.364   8.529 -0.0334  0.0531 -0.0129
 1345ERGO    R320868  15.503  19.399   8.358 -0.1171 -0.1333  0.0464
 1345ERGO    R420869  15.740  19.395   8.186 -0.1888 -0.3526 -0.0688
 1345ERGO    R520870  15.587  19.549   8.192 -0.1786 -0.3284 -0.1735
 1345ERGO    C120871  15.561  19.445   7.826 -0.3579 -0.7635 -0.0455
 1345ERGO    C220872  15.304  19.614   7.544 -0.3285  0.0801  0.2787
 1346ERGO   ROH20873   8.997  13.337   5.397 -0.0871  0.2721 -0.0383
 1346ERGO    R120874   8.879  13.448   5.629 -0.1899  0.2145 -0.0619
 1346ERGO    R220875   8.635  13.361   5.728 -0.0182 -0.1357  0.0752
 1346ERGO    R320876   8.777  13.327   5.957  0.1264  0.2333  0.0469
 1346ERGO    R420877   8.517  13.429   6.045 -0.0562 -0.2261  0.0798
 1346ERGO    R520878   8.712  13.512   6.095 -0.1897  0.1756 -0.0148
 1346ERGO    C120879   8.581  13.437   6.446  0.0576  0.0678  0.0559
 1346ERGO    C220880   8.582  13.296   6.784 -0.3165 -0.0107 -0.2351
 1347W        W20881  19.255   6.576   4.473  0.2385 -0.1163  0.2191
 1348W        W20882   5.164  13.876  12.822  0.1673  0.1911 -0.0327
 1349W        W20883  10.200  12.234   2.543  0.1459 -0.0930  0.2813
 1350W        W20884  17.083   0.036   2.408  0.0176  0.0451 -0.4802
 1351W        W20885   3.176   3.462  11.754  0.1052  0.0531  0.1260
 1352W        W20886  11.680   1.546  13.295 -0.1554 -0.0171 -0.1051
 1353W        W20887  16.808   8.745   0.997  0.3434 -0.0842 -0.1243
 1354W        W20888   8.077   0.497   1.247  0.1372 -0.2240  0.0797
 1355W        W20889   4.066   8.987  13.466  0.1282  0.0301 -0.3792
 1356W        W20890   8.911  17.904  12.445  0.1584 -0.0476 -0.2523
 1357W        W20891   2.631  11.012   3.242  0.2891 -0.0710 -0.2509
 1358W        W20892  17.387   9.623  10.502  0.2248 -0.1316 -0.0665
 1359W        W20893  12.320  12.793   3.128  0.1218  0.3919  0.0199
 1360W        W20894  14.417   5.306  13.829  0.0860 -0.0054  0.2225
 1361W        W20895   5.342   4.600   0.054  0.3019  0.2025  0.1079
 1362W        W20896   6.099   9.772  11.164 -0.0938  0.1554 -0.2555
 1363W        W20897   3.223   7.650  12.651  0.0091  0.2158 -0.3724
 1364W        W20898  13.186   3.550  10.323 -0.0237  0.1563 -0.0419
 1365W        W20899   0.170   0.598  11.300  0.3828  0.2684 -0.3193
 1366W        W20900   3.513   0.050  12.262  0.2285  0.1097  0.0517
 1367W        W20901  13.147   1.321  11.817 -0.1429 -0.0813  0.2448
 1368W        W20902  14.420   7.209  12.654 -0.2752  0.1326 -0.4349
 1369W        W20903  19.122  11.445  13.804 -0.2602 -0.0317  0.0877
 1370W        W20904   0.261   3.345   0.234 -0.0287  0.1153  0.1853
 1371W        W20905  11.285  17.399   1.935  0.2123 -0.1366 -0.1642
 1372W        W20906   5.463  12.247  12.935 -0.1163  0.3868 -0.1229
 1373W        W20907  10.676  17.728  11.368 -0.0489  0.0594 -0.0867
 1374W        W20908   7.170   7.999   3.232  0.2026 -0.0778 -0.2023
 1375W        W20909   5.307   6.857   1.822  0.2216 -0.1022  0.1872
 1376W        W20910  14.614   6.957  11.474  0.6466  0.2615 -0.2208
 1377W        W20911   0.114  18.117  10.272 -0.1130  0.2969 -0.1015
 1378W        W20912  17.509   6.095  11.576  0.2062 -0.0854 -0.2153
 1379W        W20913  10.497  12.138   0.697  0.1695  0.1597 -0.1408
 1380W        W20914  13.477  18.708   2.543  0.1801  0.0703 -0.0104
 1381W        W20915   6.455   4.035  11.644  0.0903  0.1797 -0.1922
 1382W        W20916  15.497   1.624  12.031 -0.1781 -0.0329  0.2213
 1383W        W20917  10.015   8.249   3.927  0.0084  0.0791  0.0618
 1384W        W20918   6.072   8.935   3.130 -0.2103 -0.0081 -0.2254
 1385W        W20919  13.919  17.575  13.730  0.0023 -0.0998  0.1132
 1386W        W20920   7.688   2.099  11.563 -0.1043 -0.0446 -0.1807
 1387W        W20921   7.733   0.419   4.871  0.1433  0.1912 -0.2539
 1388W        W20922   4.972   8.809   9.824  0.2486  0.0837  0.2137
 1389W        W20923   0.964   1.859   4.939 -0.1807  0.2583  0.1442
 1390W        W20924   9.856   3.205  10.777 -0.1221  0.1034 -0.1853
 1391W        W20925   0.478   7.193   3.976 -0.0326  0.0055 -0.0771
 1392W        W20926  17.641   2.897  11.773  0.1352  0.0682 -0.1159
 1393W        W20927   1.165  12.330   4.308 -0.1087 -0.3024  0.0238
 1394W        W20928   6.700  12.019   2.562  0.0938 -0.2770  0.0435
 1395W        W20929   3.083   1.791   2.868 -0.0264 -0.2670 -0.1494
 1396W        W20930  19.229  10.487   1.371  0.0345 -0.3416 -0.0262
 1397W        W20931   3.652   3.654   2.369  0.2219 -0.2247 -0.3008
 1398W        W20932   9.895   8.724   0.140  0.0392 -0.2232 -0.0508
 1399W        W20933   2.804   8.872  12.075 -0.2025 -0.0488 -0.3578
 1400W        W20934  13.914   9.353  11.637 -0.0728 -0.1745 -0.2045
 1401W        W20935   7.180  12.238  11.033  0.0051 -0.0043 -0.0040
 1402W        W20936   2.278   6.627   0.683  0.2017 -0.0580 -0.0325
 1403W        W20937   9.630  16.732  12.804  0.1721 -0.1307 -0.1457
 1404W        W20938   1.944  18.952   0.823 -0.2201  0.0530  0.2321
 1405W        W20939  10.644   7.000   4.244 -0.2953 -0.1522  0.0144
 1406W        W20940   9.595   1.659  11.632  0.0244  0.1914 -0.3317
 1407W        W20941   4.270   5.118  12.498 -0.1584  0.3829  0.0269
 1408W        W20942   2.621   1.763  13.645 -0.2315  0.1272 -0.1800
 1409W        W20943  18.837  13.358   0.906 -0.2658  0.2364 -0.1956
 1410W        W20944   5.977  14.666  12.019 -0.1751 -0.2595  0.2312
 1411W        W20945  19.509   5.364   2.859 -0.2960 -0.0668 -0.3296
 1412W        W20946   2.478  12.004   2.731  0.2301  0.2947 -0.1815
 1413W        W20947  19.099  10.140   0.219 -0.2372 -0.2321  0.1223
 1414W        W20948  19.445   1.139   0.132  0.2058 -0.1589 -0.1454
 1415W        W20949   7.015   5.505   2.832  0.1309 -0.0662  0.1583
 1416W        W20950  19.029  13.229   2.640 -0.2115 -0.0008  0.2060
 1417W        W20951   7.393   3.307   4.092  0.1157 -0.0869 -0.0629
 1418W        W20952  18.905   1.446   2.377 -0.1284 -0.1574 -0.0874
 1419W        W20953   9.852  11.821   9.826 -0.1551 -0.1919  0.0091
 1420W        W20954  18.598   0.870   0.437 -0.2572 -0.1546  0.0358
 1421W        W20955   3.177   8.583   1.953  0.0331  0.3392 -0.1600
 1422W        W20956   2.788   7.639   0.455  0.0024  0.1645 -0.3286
 1423W        W20957  11.896   0.902  11.290 -0.2870  0.0208 -0.2949
 1424W        W20958   9.731  17.056   0.310 -0.0096 -0.1183 -0.0848
 1425W        W20959  12.268   6.785  11.648 -0.0428  0.2020 -0.0421
 1426W        W20960  12.139  10.952  12.337  0.0790 -0.1652  0.2144
 1427W        W20961   3.063  14.067  10.373 -0.0842 -0.0027  0.0128
 1428W        W20962   4.287  17.054  12.076  0.1364 -0.1290 -0.0838
 1429W        W20963  15.276   3.855  14.250 -0.1618  0.0520 -0.0529
 1430W        W20964   9.556   3.668  13.543 -0.4196 -0.1837  0.0119
 1431W        W20965  19.202  15.001   0.053 -0.1021 -0.1449 -0.1125
 1432W        W20966   1.973  10.925  12.881  0.1751  0.1058  0.1309
 1433W        W20967  16.992  17.924   2.069 -0.0708  0.3845  0.0332
 1434W        W20968   8.816  19.275   0.290 -0.3820 -0.3098 -0.1687
 1435W        W20969   7.630  14.116  14.015 -0.0613  0.0884  0.0973
 1436W        W20970  15.929   1.015  12.940  0.0032  0.0550  0.0566
 1437W        W20971   7.542   8.771   5.422 -0.4556  0.0860 -0.3412
 1438W        W20972  17.613   3.821   3.064 -0.0565 -0.3919 -0.0987
 1439W        W20973  17.062   7.150  12.406  0.0510 -0.1938 -0.2079
 1440W        W20974  10.766   2.132  10.696 -0.1932 -0.4068 -0.1497
 1441W        W20975  15.865   5.508   1.135 -0.0192 -0.3250 -0.1544
 1442W        W20976  10.588   9.959   3.432 -0.0314  0.0457  0.0400
 1443W        W20977   0.879  12.803   0.912  0.0691  0.2347 -0.1212
 1444W        W20978   5.205  15.154   5.045 -0.2503 -0.0229  0.0907
 1445W        W20979  15.429   1.638  10.519 -0.0060  0.0675  0.1458
 1446W        W20980   3.818  16.049  10.739  0.3788 -0.0147 -0.1493
 1447W        W20981   5.606  11.379  13.301 -0.5057  0.0250  0.0001
 1448W        W20982   1.987   1.785  11.967  0.0564 -0.1145 -0.1028
 1449W        W20983   4.699  19.314   1.769  0.2582 -0.0905 -0.3104
 1450W        W20984  17.733  16.850  12.381  0.1513 -0.2496  0.0107
 1451W        W20985  15.048  11.199   1.941  0.1465 -0.0487 -0.0678
 1452W        W20986  12.002  18.345  10.232 -0.4155  0.1962  0.3679
 1453W        W20987  18.453  14.150  13.420  0.0744  0.1453 -0.1698
 1454W        W20988  10.922   8.707   3.955 -0.0456  0.0859 -0.1222
 1455W        W20989  10.609  13.013   2.890 -0.0786  0.1088 -0.0157
 1456W        W20990  16.237   1.155   1.237 -0.0505  0.0230  0.1117
 1457W        W20991   0.489   1.872   4.733 -0.2540  0.2085  0.1810
 1458W        W20992   7.693   3.560   0.237  0.1509 -0.0381 -0.2750
 1459W        W20993  17.918   1.115   2.077 -0.0377 -0.0335 -0.1314
 1460W        W20994   8.010   5.846  10.919  0.0363  0.0861 -0.1018
 1461W        W20995  12.766  13.466  11.104  0.1847  0.0035  0.1534
 1462W        W20996   5.213   6.774   3.604 -0.0090 -0.1502 -0.2834
 1463W        W20997  10.618  18.068  13.053  0.1492 -0.0253  0.3750
 1464W        W20998  10.747  13.585  11.526 -0.2563  0.1819  0.1168
 1465W        W20999   4.684   1.306   2.151  0.1605  0.3307 -0.0053
 1466W        W21000  13.290   6.893   1.638 -0.0134 -0.4825 -0.1665
 1467W        W21001   6.491   6.987  10.848  0.0852 -0.0250 -0.1383
 1468W        W21002  19.167   5.364   1.949  0.4040  0.2358  0.0338
 1469W        W21003   2.836  16.527  12.359  0.4048 -0.1385  0.0393
 1470W        W21004  17.960  13.061   3.219  0.0432  0.1738  0.1329
 1471W        W21005   1.851  15.121  13.695 -0.0533 -0.0074  0.2456
 1472W        W21006   4.898   0.602  10.612 -0.0096 -0.0136 -0.1139
 1473W        W21007  10.211  11.636  12.121 -0.0552 -0.1190  0.0496
 1474W        W21008   2.243  17.647  11.630  0.4692  0.0029  0.0898
 1475W        W21009   9.677   6.575   2.637  0.0021  0.4000 -0.0664
 1476W        W21010  13.598   9.138   4.472 -0.2059 -0.1422 -0.1035
 1477W        W21011   2.808   6.702   0.629  0.1867 -0.2764  0.0217
 1478W        W21012  12.270  12.310   0.214  0.1707  0.2337 -0.3013
 1479W        W21013   7.802   1.016   2.808  0.0864  0.0861 -0.1306
 1480W        W21014  11.878  14.028  11.003 -0.0383  0.1545 -0.0310
 1481W        W21015  19.295  19.143   0.780 -0.0146  0.1385 -0.1551
 1482W        W21016   7.393   2.795   3.931  0.0582 -0.1393  0.0667
 1483W        W21017   7.978   5.141   4.194  0.0034  0.0609  0.0235
 1484W        W21018  17.685  11.816   2.380  0.1090 -0.1742  0.3195
 1485W        W21019   9.177   4.261   2.139  0.0774 -0.2028  0.3153
 1486W        W21020   3.322  15.487  11.718  0.0013  0.0702 -0.2669
 1487W        W21021  17.568  17.304  12.575  0.0018 -0.1071  0.1452
 1488W        W21022   4.125  18.816   3.026 -0.2181 -0.1166  0.1173
 1489W        W21023   4.503  16.898  13.253  0.0258  0.3300  0.0651
 1490W        W21024  17.001   9.967   0.362 -0.3792  0.1395 -0.0613
 1491W        W21025   9.348   4.575   4.870  0.2522 -0.4608  0.0386
 1492W        W21026   4.787  17.724   1.595  0.0730 -0.1189  0.0390
 1493W        W21027   3.622  10.605   3.452  0.1491  0.0148 -0.0124
 1494W        W21028  12.575   7.310   4.102  0.3793  0.0151  0.1666
 1495W        W21029  14.075  14.902  14.225 -0.1596  0.0080 -0.0704
 1496W        W21030  17.301   5.674   3.308 -0.1590 -0.0262  0.0245
 1497W        W21031   3.635   9.821   1.287  0.1994  0.3391 -0.1337
 1498W        W21032   9.179   5.174   2.418  0.0730 -0.1439 -0.1226
 1499W        W21033  18.887  11.312   1.183 -0.1402 -0.2537  0.0932
 1500W        W21034   8.195  10.953   0.064  0.1076 -0.2166 -0.0106
 1501W        W21035   1.570   6.039  10.631 -0.0715 -0.2561 -0.1971
 1502W        W21036   4.473  13.973   2.384  0.0745  0.0062 -0.1802
 1503W        W21037   4.567  15.150  13.939  0.1106  0.0918 -0.1461
 1504W        W21038  18.981  17.777  12.094 -0.1046 -0.1304  0.0015
 1505W        W21039  18.634   2.968   1.292 -0.1231  0.2529 -0.1876
 1506W        W21040  16.919   0.274   0.839 -0.1591  0.0142  0.2043
 1507W        W21041  10.564   3.138  12.373  0.1087 -0.1023 -0.2319
 1508W        W21042   7.330   8.099  12.629  0.1397  0.2185  0.0119
 1509W        W21043   8.046  15.164   0.060  0.2131 -0.0328 -0.2900
 1510W        W21044   0.752   3.082   3.840 -0.1402 -0.0076 -0.1312
 1511W        W21045  19.191  17.757   0.884 -0.1639  0.0238  0.0610
 1512W        W21046  16.736   2.509  11.263 -0.0349 -0.0030 -0.2676
 1513W        W21047  15.780   8.918   1.084 -0.0979  0.2321 -0.2699
 1514W        W21048  18.717   6.595   1.731  0.2974  0.0195  0.0362
 1515W        W21049  10.413   3.976  12.921  0.2707 -0.1050 -0.3136
 1516W        W21050   0.436   9.743  13.520 -0.0852  0.2009  0.3576
 1517W        W21051  11.453  18.495  10.400  0.1862 -0.1000  0.1118
 1518W        W21052   7.273   3.384   0.004  0.2089  0.0387 -0.0290
 1519W        W21053  14.209   6.292  14.332  0.0793  0.3262 -0.0872
 1520W        W21054   9.465   8.997  11.659 -0.2963  0.2972  0.0310
 1521W        W21055  13.477   1.844   2.052 -0.2056 -0.0676 -0.0884
 1522W        W21056  18.255   6.726   1.829 -0.2008  0.1112  0.2259
 1523W        W21057   5.075  14.332  14.126 -0.0079 -0.0003 -0.0730
 1524W        W21058   0.378  11.578   3.817  0.0665 -0.2500 -0.1082
 1525W        W21059   6.610  16.992  10.593  0.0679 -0.0535 -0.1749
 1526W        W21060   0.018   6.021  11.603 -0.1916 -0.0037 -0.3595
 1527W        W21061  15.524  11.434   5.149  0.2730 -0.0486 -0.1575
 1528W        W21062  16.980  17.168  11.202  0.0463  0.1460  0.1813
 1529W        W21063  16.546  16.520  10.201 -0.3723 -0.3054 -0.0701
 1530W        W21064   5.103   0.053   0.030  0.0717 -0.1624 -0.0519
 1531W        W21065  18.955  19.000  13.237  0.0962 -0.1103 -0.1495
 1532W        W21066   8.921  16.106  13.354 -0.0728  0.0905 -0.2702
 1533W        W21067  17.824  13.494   2.187 -0.2648  0.1985  0.1364
 1534W        W21068   1.416   5.111  12.890  0.0390  0.1999  0.0369
 1535W        W21069   8.810  17.843  14.331 -0.1310 -0.2837  0.0215
 1536W        W21070   4.941   8.543  10.343 -0.0552  0.0773 -0.0933
 1537W        W21071  11.341  14.441   2.430  0.1094 -0.0765 -0.1132
 1538W        W21072   1.206  16.347  10.275  0.0643 -0.1362  0.2143
 1539W        W21073   1.865   6.856  10.506 -0.1542 -0.1767 -0.1139
 1540W        W21074  12.954   7.747  11.373 -0.1401 -0.3132  0.0414
 1541W        W21075   7.129  17.500   1.748 -0.1659 -0.2287 -0.0241
 1542W        W21076  15.652  10.345   8.639 -0.1364 -0.1871 -0.3075
 1543W        W21077   5.259  17.949   3.066  0.1077 -0.0729 -0.2943
 1544W        W21078  18.919   3.693  12.660  0.1169 -0.1642 -0.1070
 1545W        W21079   9.665   1.694   1.143  0.0748  0.0545 -0.0387
 1546W        W21080   6.100  18.451   1.305 -0.1986 -0.1722  0.0546
 1547W        W21081  17.756  17.774  10.106  0.1040  0.0599 -0.4405
 1548W        W21082  15.854  15.044  13.096  0.3993  0.1282  0.2175
 1549W        W21083   5.789   2.231   3.666 -0.3210  0.1878 -0.0583
 1550W        W21084   0.758   5.221  12.163  0.0428  0.1965  0.0916
 1551W        W21085  14.156   4.504  11.721  0.0384  0.0353  0.1989
 1552W        W21086   9.198  12.028   2.511  0.0008  0.3248  0.0659
 1553W        W21087  16.558  12.889  10.456 -0.2111  0.0554 -0.2474
 1554W        W21088  16.389   3.658   3.924  0.4203  0.2485 -0.0559
 1555W        W21089  14.726   5.704   1.978  0.1666 -0.1037  0.0390
 1556W        W21090   4.062   0.059   1.084  0.2082  0.0761 -0.3747
 1557W        W21091   9.413   2.260  14.289 -0.2350 -0.1541 -0.4795
 1558W        W21092   1.491   3.770   0.612 -0.2218  0.3052 -0.2351
 1559W        W21093   0.926  18.329   3.247 -0.0132  0.3123  0.1668
 1560W        W21094  14.455   1.654  14.157  0.0810 -0.0093 -0.0564
 1561W        W21095  14.404   7.549   3.729  0.0451  0.0019  0.3604
 1562W        W21096   8.767  11.257  11.056  0.0184 -0.0047  0.1157
 1563W        W21097   6.873   9.403   2.723  0.1277 -0.2245  0.1946
 1564W        W21098   7.570   6.314   3.675  0.2952  0.1327  0.4048
 1565W        W21099   5.720   8.291  13.370  0.1663 -0.3245 -0.1868
 1566W        W21100  17.419   5.060  13.746  0.1459  0.2390  0.1071
 1567W        W21101   7.127  14.822  13.599 -0.0496 -0.0757  0.3741
 1568W        W21102   5.021  17.197   1.347  0.1623 -0.4544  0.0008
 1569W        W21103  13.323   3.042  10.308  0.2120  0.2878 -0.1331
 1570W        W21104   3.901  14.037   2.383 -0.1487  0.2718 -0.1394
 1571W        W21105  13.134   5.295   2.006  0.0338 -0.7116  0.0905
 1572W        W21106  14.163  12.617  13.398  0.0527  0.0341 -0.4088
 1573W        W21107  16.738   2.224   3.909 -0.3525 -0.2742  0.1662
 1574W        W21108  14.584   6.120  11.364  0.1328  0.3128  0.1154
 1575W        W21109   0.277   0.314  13.947 -0.0231  0.1149  0.2495
 1576W        W21110   7.103   9.901   2.618  0.4132  0.0716 -0.0501
 1577W        W21111   3.931  14.221   0.289  0.0956  0.4308  0.2882
 1578W        W21112   1.273  10.702  11.636 -0.1450 -0.4853 -0.0311
 1579W        W21113  18.694  17.001   0.508 -0.1525  0.0793 -0.1797
 1580W        W21114  17.650   8.280  10.622 -0.3762  0.0287 -0.2793
 1581W        W21115   0.864   0.782   1.151  0.1069  0.0851  0.4275
 1582W        W21116  14.106  11.158   1.908  0.1347 -0.4123  0.0532
 1583W        W21117   3.719   5.980  11.146  0.0046  0.3466  0.1073
 1584W        W21118   4.740  14.090  12.452 -0.2113  0.2326 -0.2351
 1585W        W21119   5.905  18.958   3.308 -0.1138  0.4626  0.0670
 1586W        W21120   9.204  15.846   3.783  0.4526 -0.3315 -0.0224
 1587W        W21121   3.620   3.575  13.821 -0.0495  0.0749  0.0339
 1588W        W21122   7.499  17.316   0.443 -0.1846  0.1590 -0.0665
 1589W        W21123  18.646  16.849   1.142 -0.3178  0.1851 -0.2591
 1590W        W21124   1.688   1.627   3.015  0.1018  0.1744  0.0990
 1591W        W21125  10.065  12.054  11.940  0.1683  0.0623 -0.1944
 1592W        W21126   0.041   8.452   0.542  0.1481 -0.1896  0.2101
 1593W        W21127   6.721   1.567   2.296  0.0606  0.1000  0.1192
 1594W        W21128  13.275   0.647   9.187  0.1484  0.1127 -0.0891
 1595W        W21129   7.807  15.377   1.658 -0.0271 -0.1504  0.1103
 1596W        W21130   3.904  10.054  11.111  0.0193 -0.2860  0.1516
 1597W        W21131  16.564  17.177   3.134  0.0905 -0.2723 -0.0901
 1598W        W21132  15.298   3.480   4.323 -0.1910 -0.4067 -0.2870
 1599W        W21133   7.274  10.298   0.121  0.0038 -0.0914 -0.0868
 1600W        W21134  10.634   2.209   1.921  0.1958 -0.1792  0.1003
 1601W        W21135   4.454   8.028  14.269  0.2842  0.0486  0.0431
 1602W        W21136   3.156   9.719   1.094  0.1622 -0.0657  0.2753
 1603W        W21137   4.245   6.368   0.980 -0.1310 -0.1837  0.0361
 1604W        W21138   9.804   5.312  10.696  0.6236  0.1514 -0.2058
 1605W        W21139  10.211   9.467  13.408  0.0575 -0.3549 -0.0049
 1606W        W21140   8.229   9.346  11.568  0.1133 -0.3047 -0.1013
 1607W        W21141   6.504   4.211   1.514  0.0775  0.1540  0.2218
 1608W        W21142  15.471   5.816  13.126  0.1821 -0.2121  0.1621
 1609W        W21143  10.551   7.235  13.285  0.1870 -0.1918  0.2132
 1610W        W21144   7.826  16.137  12.249 -0.2446 -0.1384  0.0289
 1611W        W21145  12.142  14.029  10.564  0.1552 -0.1887 -0.2000
 1612W        W21146   8.528   7.784   3.687  0.0775 -0.0404 -0.3351
 1613W        W21147   2.692  18.165   0.257  0.0616  0.1608  0.0495
 1614W        W21148   2.457  19.402  12.577 -0.0682  0.0488  0.2385
 1615W        W21149  15.650   5.017  11.357 -0.5002  0.1122 -0.0140
 1616W        W21150  10.318   4.452   0.325 -0.1316  0.4417 -0.2397
 1617W        W21151  18.711   7.976   2.650 -0.1666  0.0333  0.2367
 1618W        W21152  11.220   5.680  10.649  0.2298 -0.0848 -0.1851
 1619W        W21153   6.303  12.409   0.452  0.0825 -0.1939 -0.0384
 1620W        W21154   5.778   3.237  13.694  0.1151  0.2270  0.1144
 1621W        W21155   8.144   5.165  13.100  0.1009 -0.3032  0.3580
 1622W        W21156  10.595   5.704   3.060 -0.1043  0.1093  0.3439
 1623W        W21157   1.615  19.055   3.321  0.2827  0.0158  0.1295
 1624W        W21158  14.767   6.036  11.906  0.2286  0.0656 -0.1200
 1625W        W21159  15.215  12.492  13.283  0.0235 -0.0455  0.3292
 1626W        W21160  12.115  11.285  12.743 -0.0044  0.0889 -0.3031
 1627W        W21161  17.724  13.783   0.738  0.3265 -0.0398 -0.0847
 1628W        W21162  17.219  15.720  12.064 -0.0691 -0.1282 -0.0564
 1629W        W21163   0.841  17.303   2.654 -0.1097  0.2244 -0.1286
 1630W        W21164   4.654   9.876   1.638 -0.2658  0.3124  0.0354
 1631W        W21165  10.520   4.079   1.987  0.0511  0.0414  0.1973
 1632W        W21166   4.041  18.165   3.663  0.1762  0.3038 -0.0920
 1633W        W21167   2.786  11.724   3.707  0.2328 -0.1746  0.1560
 1634W        W21168  18.183  11.706  12.496  0.0454  0.1363 -0.0654
 1635W        W21169  16.671   0.153   0.387 -0.1392  0.1028 -0.1833
 1636W        W21170   9.261   9.560   1.970 -0.0738 -0.2571  0.0434
 1637W        W21171  15.475   5.159   5.281  0.3270 -0.1622  0.0416
 1638W        W21172  14.318   1.498  13.294  0.0958  0.1983 -0.1757
 1639W        W21173  19.444   6.491   1.316  0.0316  0.2196 -0.0195
 1640W        W21174   7.082  15.142   3.631 -0.2243 -0.1673 -0.3317
 1641W        W21175   2.189   9.672   2.406  0.0655 -0.2085  0.0802
 1642W        W21176   3.656   8.515   9.971  0.0947  0.0888  0.0504
 1643W        W21177   0.447  16.052   3.128 -0.2503 -0.1832  0.0223
 1644W        W21178   1.358  18.860  13.998 -0.1321 -0.2023  0.1493
 1645W        W21179   2.486   7.503  12.136  0.1787  0.1385  0.1940
 1646W        W21180  12.755  12.296   1.619  0.0253 -0.2028  0.0289
 1647W        W21181   5.310  13.299   3.303  0.1174 -0.2909  0.0553
 1648W        W21182  16.127  18.226  12.403 -0.1440 -0.1381  0.1436
 1649W        W21183   3.948   5.871   3.446  0.3458 -0.0001  0.2733
 1650W        W21184  10.300   5.045  11.876 -0.0772  0.0233 -0.0568
 1651W        W21185   1.576  11.368  12.901  0.1515  0.3626  0.2836
 1652W        W21186   4.469  18.028  11.973 -0.1043 -0.1633  0.0459
 1653W        W21187   0.082   2.897   1.006  0.1298 -0.2551 -0.1142
 1654W        W21188   9.174   2.055  10.733 -0.0046 -0.4058  0.2051
 1655W        W21189  17.225  14.340   1.881  0.3084  0.1146 -0.1776
 1656W        W21190   4.542  19.355  13.666 -0.1095  0.1863 -0.2348
 1657W        W21191   7.078  15.040   3.161  0.2042  0.1334 -0.1123
 1658W        W21192  15.965  16.447  11.914  0.0173 -0.0335 -0.0624
 1659W        W21193   3.355   5.326  10.578  0.0598  0.1128 -0.3805
 1660W        W21194   0.059  14.399   3.562  0.1159 -0.2544 -0.1368
 1661W        W21195   5.244  12.918  14.316 -0.0081 -0.0886  0.0827
 1662W        W21196   8.091   8.836  11.746 -0.1325  0.1940 -0.3011
 1663W        W21197   0.307  14.003   0.059  0.1586  0.2661  0.1883
 1664W        W21198  13.381   4.855   0.789  0.3056  0.0180 -0.0476
 1665W        W21199  18.025   6.929  11.930  0.0621  0.2516  0.0145
 1666W        W21200   9.752  11.226  13.513 -0.1058  0.2966  0.0764
 1667W        W21201  15.278   3.233   1.340 -0.1302  0.0811 -0.1266
 1668W        W21202  13.264  11.946  14.236 -0.1837  0.0612  0.1613
 1669W        W21203  11.256   9.706   0.272  0.0634 -0.1755  0.2454
 1670W        W21204   5.089   6.417  10.933 -0.0958  0.1574  0.1947
 1671W        W21205  10.151   7.298  12.846  0.0713 -0.1446 -0.1050
 1672W        W21206   1.310   0.506   1.906 -0.0676  0.1837 -0.1646
 1673W        W21207   3.657  16.990  10.696 -0.2226 -0.1199 -0.0159
 1674W        W21208   7.730  12.781   3.823  0.4140  0.1597 -0.3840
 1675W        W21209  14.538   9.909  12.096  0.0584  0.1851 -0.1294
 1676W        W21210   8.649  19.447  14.195  0.0191 -0.0159  0.0704
 1677W        W21211  16.635  12.651   1.211 -0.3331  0.0218 -0.0258
 1678W        W21212   5.874  16.170   1.049 -0.4627 -0.1519  0.0340
 1679W        W21213   8.588   4.755  12.183 -0.2522 -0.1389  0.1655
 1680W        W21214  17.690  17.286   1.639  0.1346  0.1355 -0.1668
 1681W        W21215  15.379   6.285  13.821  0.2028 -0.0703 -0.0652
 1682W        W21216  18.067  10.564   0.804  0.1872 -0.1213 -0.0657
 1683W        W21217   1.317   3.710  13.199 -0.1529 -0.1151  0.0469
 1684W        W21218  15.163  12.891   2.945  0.0576  0.0841 -0.0606
 1685W        W21219   0.421   9.924   1.073 -0.1298  0.0484 -0.1789
 1686W        W21220  13.965   5.213  12.404  0.1829  0.3733 -0.0143
 1687W        W21221   8.169  12.964  11.489  0.0051  0.1910 -0.1298
 1688W        W21222  14.410   8.733  12.869  0.1470  0.0738 -0.1651
 1689W        W21223  15.764   8.063  13.567 -0.0164  0.1113 -0.1857
 1690W        W21224  17.401   5.270  11.560 -0.0475  0.1672 -0.1779
 1691W        W21225   7.916   4.481   3.468 -0.2631 -0.4334  0.1218
 1692W        W21226  11.302  11.508  11.220  0.0451 -0.0070  0.2314
 1693W        W21227  11.027   8.671   2.734  0.1088  0.1120 -0.1879
 1694W        W21228  18.605  16.060   0.277 -0.1449 -0.2419 -0.2521
 1695W        W21229   3.909  15.039  11.549  0.2241  0.0228 -0.3730
 1696W        W21230  14.072  12.380  12.933 -0.1808 -0.1601 -0.0006
 1697W        W21231   4.198   2.206   1.485 -0.0242 -0.0661  0.1819
 1698W        W21232  17.870   6.110   0.128  0.1576  0.0857  0.0499
 1699W        W21233   5.596   4.486   0.717  0.2691  0.0418  0.3301
 1700W        W21234  13.768  16.369   0.211  0.0689  0.0719 -0.5499
 1701W        W21235   6.805   1.783  14.108 -0.1431  0.0808  0.0718
 1702W        W21236   4.529   9.370   2.987 -0.0534  0.3011 -0.1593
 1703W        W21237  10.730   0.661  12.057 -0.0524  0.5004 -0.3039
 1704W        W21238  14.016  15.294   1.722  0.1494  0.0055 -0.0179
 1705W        W21239  18.240   2.793  13.565 -0.0808 -0.4317 -0.0445
 1706W        W21240  17.998   4.804  11.592  0.0380 -0.0625  0.1037
 1707W        W21241   9.187  11.576  11.036  0.1721 -0.0284 -0.0293
 1708W        W21242   5.176  12.214  12.460  0.1434  0.6180 -0.0872
 1709W        W21243   2.068  16.901   1.937 -0.0633  0.0686 -0.2783
 1710W        W21244  15.903  18.102  10.322 -0.0060  0.0006  0.3269
 1711W        W21245   0.120  16.990  11.857 -0.1379 -0.0005 -0.0643
 1712W        W21246  19.491  11.180   2.616  0.0634 -0.0717  0.0755
 1713W        W21247  14.824  10.741  14.038 -0.0303 -0.2223  0.0515
 1714W        W21248  16.486   8.380  13.915 -0.0094 -0.0248  0.1356
 1715W        W21249  16.138   1.066   0.677 -0.2330  0.1506  0.1395
 1716W        W21250   6.870  13.980   2.193  0.0632 -0.0883  0.0857
 1717W        W21251  14.556  13.773  13.964 -0.2832 -0.0459 -0.0369
 1718W        W21252  12.419   5.695  10.135  0.1338  0.0005  0.1938
 1719W        W21253   5.754   6.146  10.434 -0.6297  0.1490  0.1509
 1720W        W21254   9.431   7.120   0.292 -0.0149 -0.0244  0.2704
 1721W        W21255  16.593  11.091  12.408 -0.0204  0.1949  0.0738
 1722W        W21256   5.601   5.379   4.372  0.0772  0.2327 -0.0502
 1723W        W21257   2.666   9.798  13.778 -0.2162 -0.0098 -0.0364
 1724W        W21258  18.700  13.540  11.014 -0.0809 -0.2700  0.2279
 1725W        W21259   0.961   6.913  12.052  0.1554 -0.0660 -0.0320
 1726W        W21260  16.667   1.505   1.206 -0.0205 -0.0672 -0.0962
 1727W        W21261   0.502   0.798  11.711 -0.3532 -0.1549  0.0644
 1728W        W21262   9.137   0.608  14.347  0.0765 -0.0059 -0.1253
 1729W        W21263  13.966  12.362   0.206  0.1146 -0.0123 -0.1824
 1730W        W21264  13.447   2.745   1.830  0.0692 -0.3668  0.1199
 1731W        W21265   4.306   5.238  12.973  0.1108 -0.2730 -0.0257
 1732W        W21266   5.607   7.444   0.546 -0.2891  0.0338 -0.2637
 1733W        W21267   6.576   7.256  12.878 -0.0513 -0.2877 -0.2266
 1734W        W21268  17.115   8.859  13.061 -0.0018 -0.0796  0.2684
 1735W        W21269   5.748   5.262  10.208 -0.0737 -0.1251 -0.1236
 1736W        W21270   4.607   4.107   2.918 -0.2043 -0.0762  0.1086
 1737W        W21271  13.537   8.314   1.676 -0.1029  0.0977 -0.1787
 1738W        W21272   4.942   1.739  10.482 -0.2293 -0.2247 -0.2558
 1739W        W21273  11.839  14.065   4.299 -0.3391 -0.2834 -0.0015
 1740W        W21274   4.438   4.274   9.614  0.3477 -0.1001 -0.1097
 1741W        W21275   7.668  15.458   2.335 -0.2383  0.0135 -0.1843
 1742W        W21276   2.572  13.182  12.858 -0.1869  0.2420 -0.0144
 1743W        W21277   9.795  19.448  10.282  0.0394  0.2789 -0.0839
 1744W        W21278   7.608  19.427   1.754  0.1272 -0.1518  0.1138
 1745W        W21279   5.028   6.073   0.863  0.1007 -0.1330 -0.2271
 1746W        W21280   2.138   1.162   4.971  0.0129 -0.0610 -0.0967
 1747W        W21281   6.939   2.930  13.937  0.1915 -0.0239  0.2620
 1748W        W21282  11.496   8.799  10.932 -0.1607  0.1711 -0.0148
 1749W        W21283   7.419   4.442  11.519 -0.2909 -0.0628  0.0048
 1750W        W21284   3.694   0.810   0.877 -0.0853  0.1341 -0.0540
 1751W        W21285   8.965   5.321  12.745 -0.1582 -0.4098  0.0718
 1752W        W21286  16.876   9.250   2.852  0.1847  0.2234  0.1701
 1753W        W21287  12.414  14.145   0.157 -0.1714  0.3423  0.0198
 1754W        W21288  11.831   8.048   3.053  0.3032 -0.0678 -0.2022
 1755W        W21289  17.047  14.451   1.391  0.2144  0.1716  0.0553
 1756W        W21290   4.977   9.957  12.048  0.1751  0.0352 -0.1223
 1757W        W21291   3.136  17.280  11.149 -0.0439 -0.2347  0.1006
 1758W        W21292  17.119   5.944  14.148 -0.0792 -0.2309  0.1044
 1759W        W21293   8.967  17.615  10.495 -0.0453  0.1045  0.2781
 1760W        W21294  15.881  10.297   0.905  0.2401  0.3181 -0.1816
 1761W        W21295  11.903   1.011  13.528  0.1790  0.1457  0.1787
 1762W        W21296   7.139  12.969   0.133 -0.1845 -0.0817  0.0093
 1763W        W21297  15.198   7.661  13.137 -0.2295  0.1571 -0.0998
 1764W        W21298  12.821  13.461   0.423  0.2529 -0.2250  0.0109
 1765W        W21299  10.852  18.794  11.791  0.3609 -0.1556  0.3387
 1766W        W21300   0.254  16.727   2.632  0.2418  0.1578 -0.0750
 1767W        W21301  11.736  14.446  12.071 -0.2740 -0.4844 -0.0563
 1768W        W21302   9.417   6.764  13.204 -0.1814  0.3310  0.2490
 1769W        W21303  12.064   7.193   3.708  0.1518 -0.1512 -0.1115
 1770W        W21304   4.071  19.426  13.532  0.0496 -0.2198  0.1365
 1771W        W21305   3.089   3.714   4.787 -0.3225  0.2600  0.2405
 1772W        W21306  10.166   8.983  12.144  0.0858 -0.0890  0.0797
 1773W        W21307  19.215  10.881  10.520  0.1646  0.0289  0.1168
 1774W        W21308   2.280   1.253   0.599 -0.1495 -0.1610  0.2349
 1775W        W21309  13.686   8.874   3.638 -0.2316 -0.0680  0.0028
 1776W        W21310   8.336  16.579  10.668  0.1548 -0.2350 -0.2990
 1777W        W21311   5.798  12.748   1.771 -0.0029  0.1854 -0.1278
 1778W        W21312  16.208  13.683   3.108  0.1634  0.1168  0.0851
 1779W        W21313  13.525   7.650   3.446  0.0693 -0.1877  0.1703
 1780W        W21314   1.109  15.884  13.246  0.3171  0.0368 -0.0308
 1781W        W21315  18.645  10.626   2.576  0.0723 -0.3402 -0.0690
 1782W        W21316   1.923  12.827   1.065  0.1588 -0.1892  0.0473
 1783W        W21317  16.089   5.931   0.384  0.0793  0.0870 -0.0868
 1784W        W21318  11.373   1.951   2.787  0.2213 -0.0139  0.2052
 1785W        W21319  17.850   4.547   1.582  0.0997  0.1604  0.1073
 1786W        W21320  12.847  16.823   0.369  0.0344  0.1178 -0.3244
 1787W        W21321   1.703  11.452   3.151  0.0433  0.1790  0.1505
 1788W        W21322  12.670   1.073  13.115 -0.0790 -0.0892  0.0410
 1789W        W21323  17.567   8.310  11.962  0.1335 -0.0824  0.3197
 1790W        W21324  15.277  13.710  11.609  0.0160  0.1128 -0.1964
 1791W        W21325   6.003   8.922   0.327  0.1081  0.0790 -0.5171
 1792W        W21326  16.589   4.616   2.820 -0.1202 -0.1663  0.2365
 1793W        W21327   7.771   1.981   0.127  0.1055  0.2104  0.0960
 1794W        W21328  11.856   5.590  14.038  0.0317 -0.1668  0.0036
 1795W        W21329  13.432   4.999   2.445  0.4379 -0.0840 -0.0260
 1796W        W21330  12.404   2.690   0.320  0.1042  0.1950  0.0226
 1797W        W21331  14.035   2.320  13.501  0.2350 -0.0689 -0.0665
 1798W        W21332   4.472   6.617  13.410 -0.1749 -0.3739 -0.1325
 1799W        W21333  10.491  17.750   2.194 -0.0924  0.1709 -0.1924
 1800W        W21334   3.115   0.600  14.290  0.2004  0.0664  0.3288
 1801W        W21335   1.659   5.480  13.221 -0.4273  0.0849  0.1760
 1802W        W21336  18.631   7.766  13.942  0.0180  0.0848  0.1035
 1803W        W21337   1.572   2.303  10.805 -0.2470 -0.1278 -0.0278
 1804W        W21338  13.982  12.215   2.103 -0.0055 -0.3496  0.1242
 1805W        W21339   7.994  15.378  13.390  0.1192 -0.0316 -0.2016
 1806W        W21340  16.489   0.535   3.025 -0.1898  0.2224 -0.0550
 1807W        W21341   5.962  13.415   2.525  0.1655 -0.0315 -0.1242
 1808W        W21342  18.761   0.710   4.205  0.1017 -0.2220  0.0451
 1809W        W21343  18.044   4.462   3.821  0.1763  0.1625  0.2061
 1810W        W21344  13.151   9.028   2.829  0.1213  0.3915  0.0592
 1811W        W21345   0.978   8.902  10.891 -0.0973  0.2258 -0.1512
 1812W        W21346   8.608  13.352   2.410 -0.3060 -0.0747 -0.0463
 1813W        W21347   7.439  10.194  10.022 -0.0924  0.0345  0.1927
 1814W        W21348  14.805  15.693   2.680  0.0307  0.0685 -0.5047
 1815W        W21349   3.161   0.706  12.846 -0.3812 -0.1552 -0.2837
 1816W        W21350  17.941   2.457  10.956 -0.0267  0.4405  0.1128
 1817W        W21351   0.988  11.123   3.305 -0.0327 -0.0618  0.0385
 1818W        W21352   6.263  15.513   3.644  0.1763 -0.0553 -0.2103
 1819W        W21353  16.621   7.984   4.398  0.0560  0.0198  0.3312
 1820W        W21354   0.078  14.919   3.654  0.0976  0.0477  0.3380
 1821W        W21355   0.759   0.355   1.380 -0.1945  0.0099 -0.3008
 1822W        W21356  14.965   4.555   2.517 -0.1314  0.1297  0.2581
 1823W        W21357  17.022  13.321  13.975 -0.0306  0.0623 -0.3171
 1824W        W21358   6.709  17.600   0.039  0.3560 -0.0827  0.0976
 1825W        W21359  10.293  17.949   0.082 -0.0790  0.2825 -0.0780
 1826W        W21360  14.433  12.445   0.211 -0.1076  0.2396  0.0133
 1827W        W21361   9.143  14.009  11.544  0.0717 -0.1858  0.0152
 1828W        W21362   1.837   9.761  11.140 -0.1496 -0.0411 -0.0666
 1829W        W21363   9.494  17.894   1.992  0.0381  0.1040  0.1226
 1830W        W21364   3.763   9.369   2.464 -0.0747 -0.0486  0.4031
 1831W        W21365   5.768   2.783  10.705 -0.1070  0.2261 -0.0064
 1832W        W21366  12.278   9.854   3.862 -0.2139 -0.0921  0.0490
 1833W        W21367  11.164   3.617  12.899 -0.3897  0.0001 -0.0306
 1834W        W21368  11.513   3.421   4.032 -0.0533 -0.0569 -0.1145
 1835W        W21369   2.354   4.465   2.192 -0.1073 -0.1861  0.1290
 1836W        W21370   5.208   0.053   1.731 -0.3003  0.2781  0.0160
 1837W        W21371   3.792  19.143   0.965 -0.1402 -0.2143 -0.1150
 1838W        W21372   0.084  16.888   3.258  0.1336 -0.2562  0.2785
 1839W        W21373   1.892   2.521   2.991 -0.2801  0.0183 -0.1019
 1840W        W21374  13.631  11.084   0.683  0.1354  0.0325  0.5043
 1841W        W21375  16.384   4.590  13.020  0.1509 -0.0377  0.0944
 1842W        W21376  12.194   1.146   9.566  0.1234 -0.4244  0.0106
 1843W        W21377   8.288   5.944  11.735 -0.1366 -0.0804 -0.1539
 1844W        W21378  18.119   4.656   1.077 -0.0791 -0.1185  0.2224
 1845W        W21379   6.551   4.360   3.833 -0.1094 -0.0590  0.0923
 1846W        W21380   5.043   4.113  13.763  0.1506  0.0289 -0.1122
 1847W        W21381   4.210  18.219  11.604  0.2223 -0.0023 -0.0383
 1848W        W21382  12.681   5.521  13.837  0.0849  0.0213  0.1469
 1849W        W21383   1.566  12.617  12.804 -0.0858 -0.2159 -0.2366
 1850W        W21384  17.885  16.471  11.416 -0.1605  0.2786 -0.0443
 1851W        W21385   1.782   1.423  11.081  0.1187  0.4090 -0.0701
 1852W        W21386  18.650  17.006   3.050  0.0641  0.1085  0.1173
 1853W        W21387   3.713  11.212   0.642 -0.1299  0.0890 -0.1007
 1854W        W21388   1.569  18.430  13.864  0.3137  0.1162  0.0924
 1855W        W21389   8.365  12.479   0.508 -0.2209 -0.2866 -0.1807
 1856W        W21390   1.708   0.451   3.794 -0.3800  0.1807  0.3046
 1857W        W21391   5.607   7.911   4.396 -0.3022  0.0667 -0.1421
 1858W        W21392  13.523  13.936   0.691 -0.2669 -0.0791 -0.1035
 1859W        W21393   4.307   7.244  11.787  0.0616  0.0511  0.1582
 1860W        W21394   9.287   7.036  11.677  0.0087 -0.1649  0.2032
 1861W        W21395  16.700  14.586   0.255 -0.2393  0.3028 -0.0659
 1862W        W21396  13.902  13.832   0.995  0.0586  0.1081 -0.2854
 1863W        W21397   8.739  13.721   5.237 -0.0758 -0.0143 -0.2512
 1864W        W21398  12.355  15.756  12.514  0.1533 -0.0643 -0.0629
 1865W        W21399   6.423  15.552  13.627 -0.1263 -0.0125  0.1132
 1866W        W21400   8.601   1.392  11.125 -0.3030  0.2005 -0.1083
 1867W        W21401  11.061   8.071   1.131 -0.2413  0.0350 -0.3315
 1868W        W21402   5.376   4.156   9.637 -0.0317 -0.3134  0.3379
 1869W        W21403  16.691   3.728  10.302 -0.0306  0.0668  0.1317
 1870W        W21404   2.709   5.105   0.114  0.3099 -0.2319  0.0937
 1871W        W21405   8.497   4.840   1.300  0.2107  0.2237 -0.3253
 1872W        W21406   5.249   1.597   4.019 -0.1925 -0.0796 -0.2014
 1873W        W21407   6.307   0.952  14.232  0.1284  0.1745 -0.0916
 1874W        W21408  17.181   7.691   0.158 -0.0471  0.1195  0.1172
 1875W        W21409   5.968   5.078   1.448  0.0431  0.2183 -0.3606
 1876W        W21410   7.999  14.725   9.232 -0.0673 -0.0624  0.0665
 1877W        W21411   7.478  10.112   3.997 -0.0790  0.2922  0.0475
 1878W        W21412  19.042  12.736  12.620 -0.1427  0.0979 -0.0150
 1879W        W21413   9.896   7.945   0.629  0.0486 -0.0773 -0.1021
 1880W        W21414   7.302  17.319   2.265  0.2927 -0.0768  0.4456
 1881W        W21415  18.476   2.903  10.444 -0.0858 -0.1167  0.2585
 1882W        W21416  15.547   3.518  11.881 -0.1159 -0.0534  0.5549
 1883W        W21417  16.379   8.030  14.298 -0.3780  0.0321 -0.3109
 1884W        W21418  12.306   3.636   0.544  0.2934  0.1683 -0.0518
 1885W        W21419   3.525  12.143  13.452  0.1363 -0.0063 -0.0827
 1886W        W21420  10.326   0.166  11.980  0.1784 -0.2296 -0.0594
 1887W        W21421   0.607   4.728  11.891 -0.2201 -0.1871  0.2343
 1888W        W21422   4.931  10.764  14.247 -0.0152  0.1973 -0.1686
 1889W        W21423   2.779   4.117   1.159  0.0457  0.0672  0.0221
 1890W        W21424  11.718   7.437  12.810 -0.0291  0.2298  0.2599
 1891W        W21425  13.422  18.200   2.591 -0.1189 -0.1594 -0.1450
 1892W        W21426  12.281   3.181   2.804 -0.1282 -0.1552  0.0797
 1893W        W21427  10.134   9.220  13.885 -0.1077 -0.0925  0.1487
 1894W        W21428  14.953  17.960   9.932  0.3075  0.0300 -0.0219
 1895W        W21429   1.075   7.928   1.820  0.0163 -0.0631  0.2769
 1896W        W21430  18.842   2.205  11.560  0.3439  0.1660  0.1781
 1897W        W21431   4.526  13.392  13.317  0.1946 -0.0669  0.2749
 1898W        W21432  13.018   7.343   4.335 -0.3099  0.3162  0.4435
 1899W        W21433   9.141  10.731  11.271  0.2435  0.1099  0.0436
 1900W        W21434   7.507   3.848   3.595  0.1953 -0.0693  0.1987
 1901W        W21435  15.480  18.014   1.481  0.0316  0.2411 -0.0934
 1902W        W21436  19.314  14.254   1.426 -0.0523  0.1747  0.1860
 1903W        W21437   4.527   9.467  11.221  0.2424 -0.3849  0.1501
 1904W        W21438   1.408  12.203  11.441 -0.0989  0.0631  0.2020
 1905W        W21439  14.094   2.510   0.141 -0.1269 -0.0845 -0.0690
 1906W        W21440  11.324   1.533   3.264 -0.1546 -0.0437  0.3014
 1907W        W21441   7.280   8.460   0.603 -0.2184 -0.0539 -0.2342
 1908W        W21442  11.156   5.185  10.323  0.0878  0.4094  0.1807
 1909W        W21443  16.400  14.963   0.429  0.0332  0.2195 -0.0799
 1910W        W21444  18.018   7.405  12.040 -0.4501 -0.0743  0.0582
 1911W        W21445  10.912   2.363  11.144 -0.0716  0.1211  0.1877
 1912W        W21446  13.513  14.328   1.036 -0.0587 -0.0645 -0.2023
 1913W        W21447   5.110   2.330   2.512 -0.0328 -0.0981 -0.0368
 1914W        W21448  17.531   4.936   0.264  0.1004 -0.1019  0.2346
 1915W        W21449  13.855   6.182   2.310 -0.0323  0.0129  0.3419
 1916W        W21450   1.907  11.542  12.527  0.1228 -0.1504 -0.0459
 1917W        W21451   0.365   6.515   3.801  0.0784  0.1749 -0.3506
 1918W        W21452   0.408  18.964   1.305  0.0257  0.0747 -0.1358
 1919W        W21453  14.125  10.755   0.315  0.3411  0.1718  0.0317
 1920W        W21454   2.374   4.884  11.851 -0.1050  0.0719  0.0998
 1921W        W21455  14.014   1.865  10.459 -0.0990  0.1343 -0.0006
 1922W        W21456   3.574   0.745   2.601  0.2301  0.0253  0.1181
 1923W        W21457   7.088   4.843   4.554  0.1439  0.1444  0.0045
 1924W        W21458  11.310   6.055   2.126 -0.0141 -0.0146  0.1085
 1925W        W21459  16.092   9.531   4.332  0.0799  0.0535 -0.0828
 1926W        W21460   1.992  19.315   2.042 -0.1070 -0.0450 -0.0011
 1927W        W21461   1.630   3.027   2.616 -0.0561  0.2590  0.2603
 1928W        W21462  17.177  19.519   4.065  0.1449 -0.0993  0.0532
 1929W        W21463   2.252  16.364   0.881  0.1473 -0.0969  0.0002
 1930W        W21464   0.410  18.003   9.863 -0.3122  0.1851  0.3302
 1931W        W21465   4.828  17.872   9.747 -0.0589  0.1093  0.1127
 1932W        W21466  14.946   1.582  10.329  0.1195  0.0656  0.2568
 1933W        W21467   6.846   8.189  10.817 -0.1599  0.0614 -0.0489
 1934W        W21468   7.930   8.542   1.903  0.0153  0.2015 -0.0868
 1935W        W21469  19.113   9.662   3.290  0.0654  0.1291  0.1048
 1936W        W21470   7.963  17.885   2.727  0.1582  0.2325 -0.2628
 1937W        W21471  17.264  11.887   4.220 -0.0366 -0.1614  0.0687
 1938W        W21472  13.963  11.423   1.550  0.0545  0.0566 -0.1522
 1939W        W21473  12.444   8.020   1.674  0.1539  0.0693 -0.0007
 1940W        W21474  15.867  18.673  12.574 -0.0933 -0.1365  0.0933
 1941W        W21475  18.287   8.139  13.549  0.2398  0.1394  0.0723
 1942W        W21476   7.128   3.894  11.386  0.1699 -0.5880 -0.2475
 1943W        W21477  10.864   3.493   3.212  0.1200  0.4994 -0.0944
 1944W        W21478   2.827   6.755   0.119  0.0078 -0.0322  0.2289
 1945W        W21479   1.825   1.568   0.326 -0.0302  0.0667  0.1121
 1946W        W21480   5.197   7.694   1.930  0.0028  0.0795  0.1699
 1947W        W21481   2.216  11.635   4.099  0.2840  0.1500 -0.3608
 1948W        W21482   5.262   9.808  13.063  0.1803 -0.0181  0.0886
 1949W        W21483  17.664  10.581  10.855 -0.0530 -0.0379 -0.0183
 1950W        W21484  16.230  15.555   2.579 -0.0564  0.0306 -0.0714
 1951W        W21485   9.122  11.835  13.089 -0.0282  0.0934 -0.2646
 1952W        W21486   2.404   2.949   9.668  0.3113 -0.0015  0.1138
 1953W        W21487  13.392   8.885   0.956 -0.0570 -0.3130  0.0434
 1954W        W21488   2.638   6.057  10.268 -0.0975  0.0498  0.2127
 1955W        W21489   5.943   7.137  12.696  0.0662 -0.2607  0.1269
 1956W        W21490   2.177   0.233   2.811 -0.0910 -0.0316  0.3610
 1957W        W21491  14.431   5.144   0.847 -0.2927  0.1374 -0.0927
 1958W        W21492   2.934   3.604  10.163 -0.0028  0.0940  0.1444
 1959W        W21493  14.631  17.372   0.839  0.0897  0.1607  0.0277
 1960W        W21494   1.008  15.542  10.832  0.2755 -0.1456 -0.0656
 1961W        W21495  17.094   9.974  11.440  0.0636 -0.2581 -0.1490
 1962W        W21496  15.629  14.405   0.039  0.1131  0.1061  0.1025
 1963W        W21497   3.117   7.761  11.354 -0.2837  0.1475 -0.2457
 1964W        W21498   0.376   4.386   1.253  0.1561 -0.1679  0.2633
 1965W        W21499   4.804  15.269  13.472  0.0176 -0.1299  0.1316
 1966W        W21500  16.376   6.300  13.103 -0.0264 -0.1506  0.1134
 1967W        W21501  10.961   9.381   1.261 -0.0316  0.0833  0.1714
 1968W        W21502  18.302   2.067  13.920 -0.1121 -0.2489  0.1065
 1969W        W21503  18.338  15.355   2.982 -0.2369  0.0627 -0.2987
 1970W        W21504  10.507  14.530   4.277  0.3097  0.4371  0.0610
 1971W        W21505  13.555   7.132   1.223 -0.2347 -0.1014  0.2287
 1972W        W21506   6.368  15.568   0.111 -0.0328 -0.0525  0.0681
 1973W        W21507   6.023   5.531   4.043  0.1462  0.1842 -0.0075
 1974W        W21508   2.709   9.927   1.291  0.0043 -0.1538 -0.2476
 1975W        W21509  11.016  17.291   1.050 -0.0579  0.2225  0.0911
 1976W        W21510   7.307  11.685  12.522  0.2955 -0.4907  0.0593
 1977W        W21511  16.296  12.412   0.947 -0.0040  0.1470 -0.1695
 1978W        W21512   8.992   8.078   4.636 -0.1212 -0.0324  0.0318
 1979W        W21513  11.792  12.009   0.671  0.2263 -0.0707  0.2139
 1980W        W21514   9.423   7.183  12.413  0.2344 -0.3246  0.0935
 1981W        W21515   9.436  16.679   9.654 -0.1179  0.2607  0.2995
 1982W        W21516  17.561   4.320  11.007 -0.3416  0.0009  0.1353
 1983W        W21517  11.736  17.857   1.447  0.3065 -0.0364  0.1716
 1984W        W21518  17.403  18.689   3.337 -0.1502 -0.1505 -0.2230
 1985W        W21519  11.235   4.946   4.287  0.2873  0.0125  0.0444
 1986W        W21520   3.924   6.682   5.021  0.1031  0.2668  0.0504
 1987W        W21521   5.756   5.913  12.036  0.1109 -0.0815 -0.0528
 1988W        W21522  19.262   1.313   2.078  0.0070 -0.0784 -0.2438
 1989W        W21523  12.683   2.380   2.316 -0.2295 -0.1481 -0.2080
 1990W        W21524   6.312   9.877  10.494 -0.1497  0.1640  0.1749
 1991W        W21525  12.255  14.260   2.055  0.0060  0.1243 -0.2797
 1992W        W21526  13.019  12.369   1.222  0.0010 -0.0519  0.0455
 1993W        W21527  15.403   1.403  11.628 -0.0799  0.4075  0.3291
 1994W        W21528   9.799  10.225  11.986  0.0536  0.2071  0.0393
 1995W        W21529   2.378   4.979  14.003  0.1664 -0.2010  0.1227
 1996W        W21530  11.130  13.507   5.402 -0.0674  0.0525 -0.1831
 1997W        W21531   8.545   8.607  11.948 -0.5091 -0.1548  0.2150
 1998W        W21532  14.124   9.446   0.587 -0.0117  0.2432  0.1241
 1999W        W21533   0.958   4.238  14.194 -0.2525  0.0067  0.3698
 2000W        W21534   1.832   9.698  14.197  0.2496  0.4725  0.1090
 2001W        W21535  16.357  11.399  12.005 -0.1062 -0.1274  0.3891
 2002W        W21536  12.049   3.062  12.821  0.2935  0.0688 -0.1427
 2003W        W21537  15.002   9.838   0.165 -0.1970  0.2562 -0.0873
 2004W        W21538  15.743   6.476  13.229 -0.0876  0.2603 -0.0046
 2005W        W21539   7.508  14.174  11.606  0.0501 -0.0268 -0.1742
 2006W        W21540  19.383   8.107  11.353 -0.1948  0.0118 -0.0059
 2007W        W21541  11.264   6.913   0.151  0.0484  0.2226  0.0934
 2008W        W21542  17.677  10.735   3.794 -0.3130 -0.1307  0.0420
 2009W        W21543   9.057  10.883  12.242  0.1433 -0.0381  0.3304
 2010W        W21544  10.174  14.351   4.579  0.0568  0.0211  0.2236
 2011W        W21545   9.322   9.358  13.158  0.1967 -0.1943 -0.0200
 2012W        W21546   4.856   3.516   0.248 -0.5036 -0.0364 -0.4354
 2013W        W21547  10.911   5.184   0.094  0.0686 -0.0724 -0.1523
 2014W        W21548  18.684  12.848  13.152  0.2277 -0.1439 -0.1298
 2015W        W21549   4.244  15.109  12.771  0.0911  0.1680  0.0593
 2016W        W21550   3.347   1.918  12.186 -0.0342 -0.0823  0.0578
 2017W        W21551  15.858  19.327   3.564 -0.1240 -0.0936  0.1947
 2018W        W21552  13.252   3.713   3.554 -0.1545 -0.0987 -0.0635
 2019W        W21553  11.450  16.318   0.489 -0.2572 -0.2831 -0.0901
 2020W        W21554   2.749  12.697  12.946 -0.1902 -0.2869  0.3354
 2021W        W21555  13.815   7.745   1.307 -0.1967  0.1879 -0.0593
 2022W        W21556   3.024   2.579  14.179 -0.0289  0.1115 -0.0986
 2023W        W21557   7.917   3.020   1.559  0.2158 -0.0925  0.0894
 2024W        W21558  10.712  18.748  14.294 -0.0089 -0.0164  0.0889
 2025W        W21559   0.935  18.067  14.096 -0.3646  0.1161 -0.1689
 2026W        W21560  19.289   1.781   2.431 -0.1602  0.0353 -0.1657
 2027W        W21561  11.619   6.554  12.730 -0.0370  0.1958 -0.2032
 2028W        W21562  18.077   2.954  12.930 -0.2533 -0.1723  0.3324
 2029W        W21563  14.786  13.013   4.882  0.2084 -0.1145 -0.0495
 2030W        W21564   1.670   1.402  12.147 -0.0819  0.0025  0.0807
 2031W        W21565   5.143   8.788  12.715 -0.0829 -0.0631 -0.0373
 2032W        W21566   9.267  13.582   1.744  0.0362 -0.2072  0.0693
 2033W        W21567  11.570   8.270  13.796  0.1700  0.1612 -0.0331
 2034W        W21568   9.558  16.602   3.115  0.0590  0.0065  0.1661
 2035W        W21569   8.782   9.984  10.617 -0.0553  0.0895  0.0838
 2036W        W21570  15.482  18.026   3.475  0.1286 -0.2877 -0.2840
 2037W        W21571  13.483   7.812  11.441 -0.1635  0.1998  0.0031
 2038W        W21572   0.948  12.436  13.494  0.2462 -0.1348  0.0416
 2039W        W21573  13.331  15.169  12.983  0.1031  0.1624 -0.0625
 2040W        W21574   8.090   5.359   2.958  0.1010  0.2668  0.0822
 2041W        W21575  12.422   2.688  11.016  0.3778  0.0073 -0.0989
 2042W        W21576  18.939  18.140   1.407  0.0078 -0.2012  0.1045
 2043W        W21577  10.498   4.453  11.053 -0.3913 -0.0334  0.0584
 2044W        W21578  15.928   2.939   9.976  0.0100  0.1203  0.1436
 2045W        W21579  18.989  14.983  10.176  0.0528  0.3228  0.3132
 2046W        W21580  18.078  15.760  11.685  0.4771 -0.1904  0.1336
 2047W        W21581  19.240  18.522   1.243  0.0867 -0.0657  0.0654
 2048W        W21582  12.614  11.208   3.151 -0.0970  0.1452 -0.3459
 2049W        W21583  10.694  17.340   3.066  0.1244  0.3418  0.1194
 2050W        W21584   7.774   7.281   4.142 -0.0485  0.0691  0.0544
 2051W        W21585  13.119   6.826   3.044  0.0295  0.0263  0.5541
 2052W        W21586   1.872  11.597  13.782  0.1277  0.1564  0.1392
 2053W        W21587  14.174  10.116   2.535  0.0426  0.4259 -0.1207
 2054W        W21588   9.303  15.978   9.985 -0.1468  0.1753  0.1367
 2055W        W21589   5.830   5.644  13.127  0.4927  0.1401  0.0550
 2056W        W21590   3.980  10.465   3.145 -0.1236  0.1460  0.0932
 2057W        W21591   4.839  11.241  11.981  0.0549 -0.0142 -0.2864
 2058W        W21592   3.085  13.082  13.039  0.0088 -0.0123  0.0244
 2059W        W21593   3.494   1.623  10.674 -0.0071 -0.3311 -0.2266
 2060W        W21594  10.952  15.850   0.964 -0.1359  0.1904 -0.0968
 2061W        W21595  18.268  19.077   3.821  0.1594  0.0987 -0.1127
 2062W        W21596  11.682  14.812  13.538 -0.1722 -0.1431 -0.3514
 2063W        W21597   3.739   8.247   3.554  0.0694  0.1007  0.0824
 2064W        W21598  11.572   7.338   1.402  0.0876  0.1792  0.0597
 2065W        W21599  14.509  15.520  10.183  0.1361 -0.0600  0.1123
 2066W        W21600   4.723  10.518   1.638 -0.3048  0.0692 -0.0481
 2067W        W21601   8.338   4.739  13.114  0.5961  0.4315 -0.0508
 2068W        W21602   2.878   1.504  13.290 -0.0365  0.0148 -0.1721
 2069W        W21603   1.525   8.206   1.826 -0.0247 -0.0388 -0.2802
 2070W        W21604   1.060   7.347  10.221  0.2589  0.2130 -0.0025
 2071W        W21605   2.223  11.102  12.428 -0.1917  0.0868 -0.1710
 2072W        W21606   3.895   0.234  11.009 -0.2043  0.2859  0.3201
 2073W        W21607  15.219   8.939   1.186 -0.1553  0.0040  0.1885
 2074W        W21608   1.782   5.843   3.111 -0.1474 -0.1986 -0.1422
 2075W        W21609  14.229   2.637  12.693  0.0417  0.2156 -0.0231
 2076W        W21610   3.915   2.902   2.056  0.0391  0.1163 -0.0861
 2077W        W21611   9.652   2.513  13.889 -0.1960 -0.2516  0.0187
 2078W        W21612  17.109  12.533  10.026  0.0332 -0.0278 -0.1659
 2079W        W21613  12.122  12.895  13.587 -0.2527 -0.1557 -0.0682
 2080W        W21614  16.264   6.894  13.085 -0.1295  0.0685  0.0022
 2081W        W21615  18.782   0.459   0.668 -0.0414 -0.0832 -0.1890
 2082W        W21616   6.661   7.512   3.519  0.2890 -0.0352  0.0062
 2083W        W21617   0.970   7.891   2.320 -0.2428  0.1079 -0.1882
 2084W        W21618  17.584  14.987  12.510 -0.0091 -0.0320  0.1005
 2085W        W21619   3.622  11.274   0.026 -0.1102  0.0187  0.0717
 2086W        W21620   0.805  18.789   1.564  0.0905  0.2302 -0.3553
 2087W        W21621   6.580  16.282  10.749 -0.0310  0.2212  0.3011
 2088W        W21622   8.606  11.743   1.736 -0.1931  0.0269 -0.0581
 2089W        W21623  13.204  11.381   0.546  0.1301 -0.0768  0.0501
 2090W        W21624  10.203  17.337   2.814  0.1719  0.1164 -0.0790
 2091W        W21625   9.458  10.654   4.132  0.2819  0.2376  0.1389
 2092W        W21626  18.432   6.968  11.450  0.0519 -0.1381  0.1092
 2093W        W21627   5.221  14.098  12.349  0.2054 -0.2410  0.3331
 2094W        W21628  12.755  11.340   9.357 -0.6129  0.0510  0.0343
 2095W        W21629   8.488  12.747  11.071  0.0284  0.0485 -0.1240
 2096W        W21630   7.845  11.026   1.805 -0.2195 -0.1928 -0.1376
 2097W        W21631  10.911  17.155  12.827 -0.2230  0.0509 -0.0678
 2098W        W21632  18.311   9.612  12.785  0.0168  0.2011  0.1982
 2099W        W21633   6.655  17.093  14.175  0.1267  0.0604 -0.3043
 2100W        W21634   4.161   7.408  12.689 -0.2270  0.3979  0.1553
 2101W        W21635   4.548  16.744  11.739 -0.2504  0.3309  0.0946
 2102W        W21636  10.315  19.494   1.119 -0.0194 -0.1650  0.2040
 2103W        W21637  11.670  18.010  10.345  0.2868  0.1490  0.1556
 2104W        W21638   8.866   2.196   2.225 -0.0807 -0.0858 -0.0265
 2105W        W21639  14.309  17.065  12.217  0.0803  0.1348  0.0814
 2106W        W21640   1.223  19.233   3.661 -0.2818  0.1214 -0.0238
 2107W        W21641   8.303  15.511   1.757 -0.0860 -0.2808  0.1362
 2108W        W21642  15.853   4.160   2.479  0.2161  0.3004 -0.1642
 2109W        W21643  11.592  17.578   2.786  0.2532 -0.1792 -0.1189
 2110W        W21644   5.173   5.015  12.583 -0.3272 -0.1674  0.1523
 2111W        W21645   0.837   4.398  11.483  0.1661 -0.0525  0.0385
 2112W        W21646  18.528  14.051   2.364  0.1240  0.0217 -0.1410
 2113W        W21647   1.593  13.367   2.916  0.3298  0.4223 -0.2329
 2114W        W21648  10.735   8.781  10.783  0.1494  0.0956 -0.0234
 2115W        W21649   2.134   5.930  13.896 -0.2849 -0.1745  0.1245
 2116W        W21650  18.181  16.613   0.964 -0.1357 -0.1024  0.0235
 2117W        W21651  18.143  15.770   2.708 -0.0165 -0.4503  0.1316
 2118W        W21652   3.737  16.363  14.023  0.0613 -0.1338 -0.0780
 2119W        W21653   0.476  12.822   0.591 -0.0520  0.0847 -0.2161
 2120W        W21654   3.384  12.627  13.677  0.2524 -0.1312  0.1714
 2121W        W21655   4.045   7.311  13.730  0.2567  0.3169 -0.4028
 2122W        W21656   3.933  12.647   1.456  0.0179 -0.2092 -0.0404
 2123W        W21657  12.171   1.422   3.775 -0.0514 -0.2127  0.1629
 2124W        W21658   9.323  19.108  11.778 -0.1195  0.3273  0.0503
 2125W        W21659   4.088   0.858   1.792 -0.2252  0.0463 -0.0341
 2126W        W21660  16.358   7.197   3.825  0.3874  0.0431 -0.0329
 2127W        W21661  16.948  11.971  13.392 -0.2526 -0.1290  0.0285
 2128W        W21662  12.413  13.067   1.683 -0.2285  0.2304 -0.0174
 2129W        W21663   6.115  19.467  10.998  0.1372  0.1002  0.0929
 2130W        W21664   6.708   7.671  13.757 -0.1936 -0.3404 -0.0836
 2131W        W21665   5.214  10.549  13.942 -0.1948 -0.3461  0.2433
 2132W        W21666   2.715   1.999   4.032  0.4006  0.0404 -0.1414
 2133W        W21667  15.018   6.600  12.111 -0.1294 -0.3734  0.1493
 2134W        W21668  12.981  16.008  13.522  0.2666 -0.0481  0.1495
 2135W        W21669   3.485   1.629   1.592 -0.1986  0.1883 -0.0819
 2136W        W21670  15.678   5.267  10.825 -0.1245  0.2308 -0.3615
 2137W        W21671   8.123  13.507  11.416  0.1617 -0.0274  0.2631
 2138W        W21672   6.541  12.138   3.851 -0.1264  0.2936  0.3457
 2139W        W21673  16.628   9.780   2.003 -0.1858 -0.4287  0.0665
 2140W        W21674  14.189  12.807  12.023  0.2952  0.0467  0.0537
 2141W        W21675   2.726  10.398   1.216  0.0661 -0.1799  0.0616
 2142W        W21676  15.268   5.315   0.285  0.0896 -0.0583  0.0715
 2143W        W21677   8.740  17.348  10.924  0.0552  0.0249 -0.4634
 2144W        W21678  13.711  18.942   0.552  0.1347  0.1098  0.3165
 2145W        W21679   4.827  18.225   3.226  0.0388 -0.0504  0.1726
 2146W        W21680   0.386   1.047   2.633  0.4124 -0.3962  0.0708
 2147W        W21681   5.390   1.828  10.270 -0.0674  0.2778 -0.2418
 2148W        W21682   6.304  15.938   1.586  0.0933  0.2284 -0.0684
 2149W        W21683   8.976   7.933   0.679 -0.1207  0.1353  0.1112
 2150W        W21684   5.222   0.773   3.944  0.1777  0.1059 -0.0319
 2151W        W21685   3.151  13.099  11.801 -0.2714  0.2190  0.0786
 2152W        W21686  14.015  16.035  12.530 -0.0246  0.2550 -0.3935
 2153W        W21687   7.956  17.155  13.370  0.0615  0.0114  0.1278
 2154W        W21688  15.332   3.248  12.787 -0.1008 -0.0693  0.2658
 2155W        W21689   5.741   9.240  13.791 -0.1085 -0.0191 -0.2251
 2156W        W21690  11.080  16.706   2.507  0.0091  0.2043 -0.0910
 2157W        W21691   5.293   5.806  10.603  0.2388  0.1766 -0.2344
 2158W        W21692  13.288   1.576  12.697  0.2058 -0.0157 -0.2095
 2159W        W21693  14.776  10.336   0.102  0.3613 -0.1968 -0.1012
 2160W        W21694   2.783   7.251  11.155  0.1026  0.1962 -0.0243
 2161W        W21695   0.117  14.391  10.228 -0.0933 -0.3171  0.1629
 2162W        W21696   8.321   1.377   8.965 -0.1501 -0.2520 -0.2075
 2163W        W21697  14.485   0.742   9.142  0.0249 -0.1777  0.1363
 2164W        W21698   4.548  18.361   4.322  0.1615 -0.0041 -0.0884
 2165W        W21699  17.092   8.867  11.114 -0.2758 -0.0056  0.0120
 2166W        W21700  18.724  10.553   0.341 -0.0813  0.1941 -0.3401
 2167W        W21701   0.950   9.707  11.299 -0.2522 -0.1576 -0.3289
 2168W        W21702  12.046  11.559   3.768 -0.1920  0.2073  0.2642
 2169W        W21703   1.664  13.451   1.676 -0.0695  0.2986 -0.0473
 2170W        W21704  11.255   5.258   2.291  0.1066 -0.4391  0.4268
 2171W        W21705   7.368   6.211   1.298 -0.0080 -0.0348  0.0664
 2172W        W21706   5.882  13.986   2.405 -0.2045  0.2023  0.2184
 2173W        W21707   8.430   5.831   3.698 -0.0010  0.2261 -0.1303
 2174W        W21708   7.130  12.629  10.683  0.0352 -0.0446  0.3981
 2175W        W21709   1.366  10.327   1.046  0.0997  0.1427  0.5140
 2176W        W21710   7.439   8.379   1.647 -0.1479  0.2295  0.1401
 2177W        W21711   8.563  10.853   2.178  0.1607 -0.0940  0.3594
 2178W        W21712   5.783  11.450  11.948  0.2053  0.0841  0.1720
 2179W        W21713  17.521   0.756  11.844  0.0783  0.2503 -0.0215
 2180W        W21714  17.038   5.925   0.667 -0.0085  0.0763  0.2188
 2181W        W21715  17.597   5.732  10.265  0.2455  0.1046  0.1394
 2182W        W21716  10.400  18.025   3.572  0.1585  0.2616 -0.0820
 2183W        W21717  12.740   6.532   2.816  0.3530 -0.1867 -0.1097
 2184W        W21718  12.174   0.438   4.117  0.4016  0.0607 -0.1830
 2185W        W21719   8.453   5.198   4.058 -0.1172 -0.2749 -0.0112
 2186W        W21720   5.627   6.032  11.493  0.2443  0.4191  0.3735
 2187W        W21721   1.013  14.671  12.375 -0.0012  0.0907 -0.0239
 2188W        W21722  10.323   9.708  12.961 -0.0292 -0.0186 -0.0227
 2189W        W21723  15.591   9.459   1.982  0.0802  0.0286 -0.1456
 2190W        W21724   5.430   5.919  13.221 -0.0702 -0.1317  0.1897
 2191W        W21725  19.506   2.989  10.545  0.1381  0.2283 -0.3231
 2192W        W21726  16.750   4.569  13.357 -0.2884  0.0953  0.2451
 2193W        W21727   9.405   2.482   4.161  0.2194  0.0530  0.0166
 2194W        W21728  16.631   0.714   0.526 -0.1392 -0.0117  0.0155
 2195W        W21729   7.432   9.372  12.464 -0.2382  0.1648  0.1321
 2196W        W21730   2.863   9.160   3.716 -0.1753  0.2099  0.1037
 2197W        W21731   0.800   8.241  11.799  0.2128  0.1390 -0.0684
 2198W        W21732   6.065   1.284  12.535  0.3903  0.0797 -0.2539
 2199W        W21733   9.751   4.896   4.916 -0.2433 -0.2919 -0.3290
 2200W        W21734  17.142  18.221  12.386 -0.5512 -0.0270  0.0861
 2201W        W21735  15.525   9.530   0.513 -0.3553 -0.1353  0.0833
 2202W        W21736  17.559  11.554   0.723 -0.1027  0.0387 -0.1748
 2203W        W21737  17.233   2.504  12.493  0.1198 -0.1515 -0.1642
 2204W        W21738  11.023  17.540  10.780  0.2518 -0.0199 -0.2223
 2205W        W21739   1.412   8.785   0.107 -0.0182 -0.0614 -0.1292
 2206W        W21740  14.284  17.215   3.545  0.2420  0.2877 -0.1170
 2207W        W21741   7.347   5.716   2.069  0.0329 -0.0640  0.0521
 2208W        W21742   4.388  10.804   4.214  0.0185  0.2646 -0.1944
 2209W        W21743  10.316   3.497  10.713  0.2632  0.1003 -0.1077
 2210W        W21744   6.824   9.585   4.715  0.2106  0.0517 -0.3522
 2211W        W21745   3.531  18.220   1.330  0.3606  0.0403  0.0396
 2212W        W21746   7.933   0.087  12.931  0.0253  0.0030 -0.1493
 2213W        W21747   4.308   1.220   3.109  0.0087  0.1893 -0.0212
 2214W        W21748   0.754   1.592   3.256 -0.2244  0.0733 -0.1657
 2215W        W21749   4.654  11.846   1.899 -0.1806 -0.0193 -0.0306
 2216W        W21750  13.963   9.377   2.261 -0.0761 -0.0953 -0.1550
 2217W        W21751   6.667   8.084   9.762 -0.1006 -0.0324  0.2196
 2218W        W21752   9.417   1.743   0.099  0.0014 -0.1532  0.2108
 2219W        W21753   8.138   8.726   4.107  0.1207  0.0672  0.0916
 2220W        W21754   6.312  11.480  11.865  0.0172 -0.1912  0.0087
 2221W        W21755   5.827   4.770   1.869  0.4101  0.0097  0.2425
 2222W        W21756  14.154   4.311  12.252 -0.1202  0.3053  0.1546
 2223W        W21757   3.136  13.483   0.067  0.0013 -0.0003  0.2648
 2224W        W21758   9.375   7.714  12.301  0.0782 -0.1212  0.0943
 2225W        W21759   5.502   8.205   1.227  0.0077 -0.0298 -0.0777
 2226W        W21760   3.491   5.215   1.232 -0.1866 -0.1593 -0.0650
 2227W        W21761  18.420   9.193   1.964 -0.0810  0.2819  0.2489
 2228W        W21762  14.412  10.209  10.271 -0.3860  0.2034 -0.1039
 2229W        W21763  15.469   8.621   1.730 -0.1406  0.2421 -0.1880
 2230W        W21764   8.867  18.185   1.359  0.0568 -0.1358 -0.0501
 2231W        W21765  17.542   4.624  11.503 -0.1993 -0.0370 -0.2306
 2232W        W21766   7.390   6.410   3.203  0.2822  0.2267  0.1301
 2233W        W21767   9.889   2.932   1.826 -0.2652 -0.0912  0.1232
 2234W        W21768   4.725  15.331  11.772 -0.2845 -0.3154  0.0574
 2235W        W21769  17.345   5.487   1.366 -0.2235 -0.4593  0.1476
 2236W        W21770   9.351  17.331  10.298 -0.0067  0.1622 -0.3413
 2237W        W21771  16.514   8.604   4.515  0.1944  0.0288  0.0065
 2238W        W21772   1.002  13.169   3.782  0.0900 -0.0014  0.0727
 2239W        W21773   9.235   5.937  10.342 -0.0873  0.3565 -0.0396
 2240W        W21774   9.319  14.110   3.588  0.1067  0.0148 -0.0022
 2241W        W21775   5.022  10.745   2.680  0.2587 -0.2313  0.1647
 2242W        W21776  11.813   8.154  12.611  0.3213 -0.3792 -0.1923
 2243W        W21777  14.547  10.790   2.800  0.0397  0.2736 -0.2787
 2244W        W21778   6.525   7.771   4.385  0.0308  0.0497 -0.0042
 2245W        W21779   9.041  12.802   3.534  0.0401  0.0634  0.2827
 2246W        W21780   4.154  10.480   2.382 -0.1375 -0.0034 -0.0096
 2247W        W21781   1.411   2.557   0.378 -0.2226  0.3091  0.3246
 2248W        W21782   1.270   6.650  11.201 -0.3847 -0.2551  0.2539
 2249W        W21783  11.760  11.663  11.074  0.0133 -0.2486  0.0177
 2250W        W21784   6.942  15.858   0.743  0.0620  0.0393  0.1547
 2251W        W21785  12.111   7.847  10.185 -0.0889 -0.1943  0.2259
 2252W        W21786   6.384   7.284  12.418  0.0641 -0.1449 -0.0880
 2253W        W21787   9.229  17.373  11.012 -0.3076  0.1408 -0.1343
 2254W        W21788  14.869   9.101  13.575 -0.2935  0.0075  0.1177
 2255W        W21789  17.011  17.934  12.947 -0.0340 -0.0293  0.1752
 2256W        W21790   7.334  12.615   2.442  0.0148 -0.2082 -0.1415
 2257W        W21791   4.449   9.124  10.783 -0.4366  0.0322  0.2542
 2258W        W21792  15.337  16.528  11.178 -0.3150  0.2851  0.2421
 2259W        W21793   8.380  11.107   3.631  0.1629  0.1257 -0.2966
 2260W        W21794   1.132   7.737   3.746  0.3257 -0.1496 -0.0162
 2261W        W21795  17.916   3.371   2.882 -0.2257  0.1061  0.5255
 2262W        W21796   4.759  15.862   3.959 -0.0622  0.2729  0.3597
 2263W        W21797  19.278   6.804   2.252  0.0028  0.1877  0.2824
 2264W        W21798  11.297   6.033   1.260  0.1934 -0.5211  0.5236
 2265W        W21799   1.538   3.872   1.436  0.0570  0.0322  0.0823
 2266W        W21800   4.032   9.112  11.027 -0.2316 -0.1295 -0.2474
 2267W        W21801   7.133   5.277   0.133 -0.1269  0.2207  0.1526
 2268W        W21802  13.850   3.867  10.596 -0.3333  0.2022 -0.0837
 2269W        W21803   0.406   1.886   1.125  0.0391 -0.0264 -0.0553
 2270W        W21804   7.621   2.131  12.964  0.1011 -0.3776 -0.0014
 2271W        W21805   9.872   5.278  12.825  0.2801  0.0948  0.1220
 2272W        W21806   3.171  12.636  12.693  0.3546 -0.0070 -0.1333
 2273W        W21807   0.743   1.915   0.448 -0.0564 -0.1686  0.1975
 2274W        W21808  18.914  17.729  10.901 -0.3010 -0.1632  0.2666
 2275W        W21809  12.340   7.075  10.683  0.1499  0.5137 -0.0129
 2276W        W21810   2.769  17.813  11.542  0.3813  0.3168 -0.1077
 2277W        W21811  13.853   1.327  12.603  0.0238 -0.0915  0.2364
 2278W        W21812  14.722   9.819   2.316 -0.0585 -0.0957  0.1628
 2279W        W21813  18.359  15.771  10.722  0.1521  0.0459  0.2374
 2280W        W21814   6.214  18.812  12.790  0.1069  0.1611  0.0763
 2281W        W21815   8.174  16.051   4.146 -0.2767 -0.1621  0.2034
 2282W        W21816   1.630   5.901   1.316  0.0374  0.3499 -0.1987
 2283W        W21817  19.082  11.948  13.692 -0.2849 -0.0500 -0.1281
 2284W        W21818   2.143  11.560   2.934  0.0593  0.2144 -0.0400
 2285W        W21819  17.327  19.065   3.644 -0.1471 -0.0030 -0.0819
 2286W        W21820  13.477   5.732   4.375  0.2129 -0.0333  0.0398
 2287W        W21821  18.767   8.671   1.712  0.0944 -0.0581  0.2336
 2288W        W21822  13.834  14.550  13.939  0.4885  0.1621  0.1300
 2289W        W21823   4.417   7.869  11.438  0.0097  0.1557 -0.1242
 2290W        W21824   5.491  13.617   3.695 -0.0937 -0.1528 -0.2321
 2291W        W21825   8.173  18.008   4.872  0.1773  0.1736  0.3682
 2292W        W21826   9.639  11.146   2.354 -0.1351 -0.0894  0.2244
 2293W        W21827  14.857   3.336   0.996  0.0267 -0.0247 -0.1933
 2294W        W21828   4.412  17.601   0.744  0.0605  0.1042  0.1998
 2295W        W21829  16.004   5.638  13.247 -0.2974 -0.0569 -0.3069
 2296W        W21830  13.269   8.263   2.791 -0.0267  0.0716 -0.1200
 2297W        W21831  12.292   4.252  13.781 -0.2397 -0.1290  0.4317
 2298W        W21832  10.896   8.907  13.129  0.0926  0.0860 -0.0981
 2299W        W21833  10.359  15.491   2.763  0.1965 -0.1283  0.1857
 2300W        W21834  15.885  15.049   2.234 -0.1248 -0.2784  0.0039
 2301W        W21835  11.218   5.902  13.782 -0.3514  0.0388  0.0849
 2302W        W21836   5.594   1.001  12.809 -0.0804 -0.0163  0.0104
 2303W        W21837  14.384  13.331   2.789 -0.2142 -0.2668 -0.2141
 2304W        W21838   1.554  15.791  11.225  0.2315  0.1212  0.3290
 2305W        W21839  17.148   2.264  11.365  0.5452 -0.1587  0.0934
 2306W        W21840   9.546   6.754  12.644 -0.1075  0.1608 -0.0526
 2307W        W21841   9.322   7.481   3.465 -0.2897  0.0554  0.0435
 2308W        W21842   5.127   2.145  12.974  0.0767  0.0372 -0.3036
 2309W        W21843   4.455  17.354   2.069  0.0135  0.1599  0.0143
 2310W        W21844  19.410  17.553  10.919 -0.0603 -0.0521 -0.1196
 2311W        W21845   1.408  15.499  13.486 -0.1972 -0.0126  0.1427
 2312W        W21846   8.754   7.944   4.170 -0.0892 -0.0210 -0.1785
 2313W        W21847  10.046   9.965  12.601 -0.1172 -0.1706 -0.1570
 2314W        W21848  10.014  17.015   1.177 -0.4845 -0.1442 -0.1440
 2315W        W21849   4.995  12.333   3.293 -0.2489  0.2077 -0.1009
 2316W        W21850   3.566   4.417   2.643 -0.0475  0.1465 -0.2997
 2317W        W21851   8.838   1.607  13.836  0.1470 -0.3084 -0.2025
 2318W        W21852  18.801  10.469  11.231  0.0308 -0.0745  0.2883
 2319W        W21853   6.086   3.235  12.035 -0.4420  0.0186 -0.3230
 2320W        W21854   6.722   3.383   1.973  0.2886 -0.0489 -0.1308
 2321W        W21855  11.338   0.077  13.892  0.2751  0.2391 -0.2614
 2322W        W21856  16.436   4.355   4.298  0.2336 -0.1372 -0.1240
 2323W        W21857  14.948   2.135  13.040  0.0627  0.0141 -0.0009
 2324W        W21858   8.212  15.871  11.051 -0.0317 -0.0987  0.2513
 2325W        W21859   8.569   8.485   0.803  0.0350  0.0959  0.0458
 2326W        W21860  17.299  19.431  10.482  0.2047  0.1067 -0.0754
 2327W        W21861   5.773   2.017   3.151 -0.0146  0.0097  0.1253
 2328W        W21862  11.776   7.444   1.904  0.0307 -0.1172 -0.1104
 2329W        W21863  19.324   6.412   0.265  0.2051 -0.1845 -0.2073
 2330W        W21864  13.661  17.547   1.504 -0.4270  0.2478 -0.1343
 2331W        W21865  13.888   3.991  12.728  0.0025  0.2979  0.2137
 2332W        W21866  18.912   5.207  11.903  0.3080 -0.0755 -0.3139
 2333W        W21867  15.738   7.613  13.349 -0.1382  0.2544 -0.1938
 2334W        W21868   8.303   3.937   1.822 -0.1096  0.0173 -0.0688
 2335W        W21869  12.045   2.108  12.965 -0.0987 -0.5975 -0.0668
 2336W        W21870  16.134  11.449  11.149  0.2989 -0.3284  0.1209
 2337W        W21871  12.338  14.623   3.882 -0.0147 -0.0216 -0.1319
 2338W        W21872   0.717   7.708  11.600  0.0901  0.0835 -0.0335
 2339W        W21873  12.621   5.142   2.752  0.0687  0.4039  0.1238
 2340W        W21874  14.598  18.524   1.929  0.0641  0.2408 -0.1469
 2341W        W21875   2.560   7.682  11.345  0.2153 -0.0173 -0.1300
 2342W        W21876  19.338  18.539  13.571  0.2792  0.0537  0.2313
 2343W        W21877  19.292   6.984  11.434 -0.0705 -0.2310 -0.1857
 2344W        W21878  10.615  14.687   0.730 -0.1993 -0.2031  0.1306
 2345W        W21879   1.255  17.507   3.010  0.2180  0.0028  0.1060
 2346W        W21880   3.251  13.195  10.405 -0.0601  0.0178  0.0732
 2347W        W21881  15.429   8.246   0.916  0.1940  0.3921 -0.2657
 2348W        W21882  11.314   2.672  14.034 -0.1454  0.1065  0.0632
 2349W        W21883   1.148  18.229  10.738 -0.0167  0.1519  0.1642
 2350W        W21884  19.062   3.742   3.461  0.0976  0.1489 -0.1387
 2351W        W21885  12.987  13.946   0.504  0.1615  0.0771 -0.3467
 2352W        W21886  11.192   5.979  11.946  0.1013  0.5091  0.1187
 2353W        W21887   2.565  18.158  11.086 -0.1688 -0.0351  0.3097
 2354W        W21888  16.267   6.838  10.988 -0.1102 -0.2103 -0.3501
 2355W        W21889   9.555  15.252   4.217 -0.0124 -0.1516  0.4906
 2356W        W21890  19.084  18.257  12.197  0.0854 -0.1347  0.0195
 2357W        W21891  12.602   5.126   0.487 -0.0984 -0.0309  0.0382
 2358W        W21892  11.504   1.620  10.586 -0.0841 -0.2283 -0.1983
 2359W        W21893  11.982   7.958   0.874  0.0176 -0.5045 -0.1915
 2360W        W21894  14.425   2.651  13.649  0.0027 -0.3223  0.4197
 2361W        W21895  16.318   6.124  11.550  0.1629 -0.1913  0.0199
 2362W        W21896  14.963  11.747  10.942  0.0338 -0.0061 -0.0544
 2363W        W21897   5.069  18.793   1.082  0.2607  0.1687  0.1886
 2364W        W21898  12.258   5.025   1.136 -0.1013 -0.0357 -0.0286
 2365W        W21899   3.328  18.545  14.354 -0.0227  0.0115  0.3341
 2366W        W21900   3.071  17.040   3.839 -0.3380 -0.3534 -0.4045
 2367W        W21901   9.712  10.394   0.222  0.2448 -0.3495  0.3071
 2368W        W21902   7.191  10.381  11.528  0.2381  0.0476 -0.1932
 2369W        W21903   2.627   9.383   1.090  0.0039 -0.0844 -0.0206
 2370W        W21904   0.700   8.314  11.146 -0.2747  0.1458  0.0235
 2371W        W21905  18.617   5.480   3.317  0.3970  0.0689  0.1195
 2372W        W21906   9.567   3.791   1.330  0.2516 -0.0104 -0.1480
 2373W        W21907  11.616   8.462   2.730  0.0444  0.1118  0.0926
 2374W        W21908  16.826   6.091  11.607 -0.0778  0.2450  0.2514
 2375W        W21909   6.619   5.876   1.303  0.2786  0.1621  0.3089
 2376W        W21910   1.152   8.662   1.026  0.0731 -0.2233 -0.1723
 2377W        W21911  12.927   7.028   2.406  0.1100 -0.0787  0.0418
 2378W        W21912  16.859  10.760  10.883 -0.0353 -0.1226 -0.3564
 2379W        W21913   7.899   4.980   0.445  0.0393  0.0246  0.0817
 2380W        W21914  19.436  18.034   1.301  0.0217  0.2518  0.1658
 2381W        W21915   2.914  13.492   1.314  0.3998  0.2098  0.2913
 2382W        W21916  16.008   0.778  10.777 -0.0221 -0.1921 -0.2202
 2383W        W21917  17.355   4.213  10.402 -0.1129 -0.1085 -0.0917
 2384W        W21918  15.855   3.474   0.867  0.2314 -0.3100 -0.4037
 2385W        W21919  10.257   9.519  12.127  0.1027 -0.3517  0.3289
 2386W        W21920  14.585  16.949   0.511 -0.4364  0.1200  0.0919
 2387W        W21921  15.249  18.088   0.332 -0.0101  0.3040  0.3486
 2388W        W21922  12.227   9.880  12.379  0.1964 -0.0673  0.0803
 2389W        W21923  15.498  17.430  14.291  0.2895 -0.0511 -0.1065
 2390W        W21924  14.488   7.826  10.442 -0.0925 -0.0087  0.0928
 2391W        W21925  12.555  18.159  10.384 -0.1052  0.2095  0.2451
 2392W        W21926  11.337   6.102  10.986 -0.3405  0.0102  0.2527
 2393W        W21927  18.673  17.146   3.698 -0.4501 -0.0591  0.0001
 2394W        W21928   4.446  19.226  11.695 -0.2537  0.1416  0.0898
 2395W        W21929   1.891   7.911   0.787  0.0436  0.0394 -0.0650
 2396W        W21930   3.202   5.359   0.051  0.1096 -0.0213  0.1271
 2397W        W21931  12.255   4.808   2.096  0.2608 -0.1524 -0.0245
 2398W        W21932  18.774   6.766  10.662  0.2643 -0.0465 -0.1509
 2399W        W21933   7.999  14.966  11.723 -0.2186  0.1666  0.1603
 2400W        W21934   8.687   8.424   4.437 -0.1745  0.0349  0.0279
 2401W        W21935   4.549  16.896   1.360 -0.1941  0.1932  0.1164
 2402W        W21936   1.308  17.283   0.458 -0.1375  0.0187  0.1737
 2403W        W21937   8.136  12.402  13.958  0.0598  0.3276  0.1941
 2404W        W21938   9.060   3.116   1.524 -0.1213 -0.2858  0.0491
 2405W        W21939   8.059   4.936  12.535 -0.0127  0.1016 -0.1766
 2406W        W21940  17.936  18.105   1.201 -0.0309  0.3319 -0.1903
 2407W        W21941   1.487   3.412   0.211  0.0054  0.0404  0.0090
 2408W        W21942  15.039   1.739   4.304  0.0312  0.2399  0.1316
 2409W        W21943  17.854  10.135   1.007 -0.2238  0.2575  0.2338
 2410W        W21944  17.143  12.843   2.921 -0.0108 -0.2497  0.4082
 2411W        W21945   2.820   9.906  14.241 -0.0854 -0.0999 -0.0635
 2412W        W21946   3.752   7.633  10.648 -0.0062  0.0411  0.1926
 2413W        W21947  13.674   8.033   2.076  0.1765  0.2667  0.1178
 2414W        W21948   3.580  19.080  13.696  0.1455  0.1550 -0.0058
 2415W        W21949   6.103   6.334  10.784 -0.1144  0.0063 -0.0690
 2416W        W21950   1.256  13.587   1.995 -0.0865  0.2524 -0.1967
 2417W        W21951   0.708   6.951  12.633 -0.1814  0.3066  0.0136
 2418W        W21952   1.655   7.650  10.473 -0.2247 -0.2469  0.0694
 2419W        W21953   5.959   1.378  10.548 -0.1106 -0.1344 -0.0189
 2420W        W21954  15.248  16.214  11.564 -0.1996  0.0921  0.5113
 2421W        W21955   1.679  15.131   2.120 -0.1682 -0.0362 -0.2089
 2422W        W21956  16.191   3.230  10.346 -0.0333  0.0437 -0.1248
 2423W        W21957   3.090   5.166  11.090  0.1758 -0.1649 -0.0972
 2424W        W21958   8.014   0.605  13.116  0.1056 -0.0400 -0.1840
 2425W        W21959  16.358   9.040   3.624  0.1487  0.5110 -0.2778
 2426W        W21960  13.104  18.749  11.105 -0.0954  0.1167 -0.2477
 2427W        W21961   4.592  14.213   1.822 -0.2572 -0.2523  0.3482
 2428W        W21962   5.994  12.933  12.965 -0.1509 -0.1292 -0.4861
 2429W        W21963  11.423  16.317  12.193  0.1649  0.1455 -0.3558
 2430W        W21964   5.890   1.291   0.675  0.0582  0.0354  0.2713
 2431W        W21965   8.237  18.849   1.612  0.2270  0.4149  0.1446
 2432W        W21966   3.765  14.559   2.511 -0.0747 -0.2554  0.2402
 2433W        W21967   0.333  14.915  10.256 -0.0704  0.1169  0.0482
 2434W        W21968   8.581  15.503   0.812 -0.0826 -0.0184  0.2591
 2435W        W21969  14.312   5.617   3.440  0.0524  0.1708 -0.2922
 2436W        W21970  10.249   3.612   2.119  0.1837  0.0701  0.2541
 2437W        W21971   7.430   5.383   3.786 -0.3943 -0.2207  0.0258
 2438W        W21972   8.218  14.608  12.703  0.2140 -0.4950  0.0711
 2439W        W21973  11.793   2.644  13.916  0.2530  0.3041 -0.2865
 2440W        W21974   8.529   4.578   0.867 -0.0866 -0.0831 -0.0382
 2441W        W21975  10.415  12.940   1.503  0.0624  0.1879 -0.1794
 2442W        W21976   7.925  11.594   3.059  0.2338 -0.2274  0.1170
 2443W        W21977   0.557  17.100  12.795  0.3666  0.2846 -0.1207
 2444W        W21978   8.353   9.520   0.496 -0.4217 -0.1514 -0.2109
 2445W        W21979   7.339  17.950   1.497  0.0606 -0.1802  0.2812
 2446W        W21980   0.237  13.288   2.204  0.0712  0.0650  0.1949
 2447W        W21981  12.035  14.746  13.874 -0.0786 -0.0981  0.0521
 2448W        W21982   5.579  13.008   4.439 -0.5207 -0.1723  0.0965
 2449W        W21983  15.665   7.998   9.406 -0.0173  0.0560 -0.3274
 2450W        W21984  17.759   2.077  13.367  0.1081  0.0196 -0.0123
 2451W        W21985   2.847  11.889   1.078 -0.1382 -0.1985  0.0923
 2452W        W21986   8.810  13.118   3.136 -0.0734  0.8596  0.0298
 2453W        W21987   8.601  13.766  11.534 -0.1040 -0.1012 -0.0531
 2454W        W21988  13.527   7.303  11.400 -0.4232  0.0072 -0.2513
 2455W        W21989  12.998  11.032  12.895  0.2529  0.0563  0.0004
 2456W        W21990  11.013  12.430   1.787 -0.0524 -0.0160 -0.1138
 2457W        W21991  13.754  13.032  11.810 -0.0592  0.2213 -0.3205
 2458W        W21992   5.202   9.189   4.270  0.2359 -0.0353  0.3696
 2459W        W21993   1.439  11.074  12.463  0.2498  0.0907  0.4183
 2460W        W21994  12.589   2.527  12.007  0.1036  0.0181  0.0853
 2461W        W21995   9.039   7.771   3.795  0.0840 -0.1317  0.2533
 2462W        W21996  17.741  14.629  13.693  0.0933  0.3588 -0.2763
 2463W        W21997  18.680   9.689  11.837  0.4412  0.2623 -0.0911
 2464W        W21998  12.873  13.256   1.720  0.0985  0.2828 -0.1522
 2465W        W21999  17.189   8.888   1.569  0.1423  0.1182 -0.0828
 2466W        W22000   8.853  11.238   3.675  0.0884 -0.2312 -0.1411
 2467W        W22001   2.158  17.332  10.826 -0.1384  0.0471 -0.2135
 2468W        W22002   7.874  17.295  10.488 -0.1175 -0.1003 -0.0521
 2469W        W22003  12.379   0.636   0.319  0.0639  0.1657 -0.2465
 2470W        W22004  13.289  18.807  12.331 -0.0914  0.2946 -0.1218
 2471W        W22005   4.768   7.764   4.230 -0.1781 -0.2006  0.1911
 2472W        W22006  17.164  16.935  13.136 -0.1126 -0.1712 -0.2876
 2473W        W22007  11.909   6.086  12.359 -0.4919 -0.1681  0.4135
 2474W        W22008  18.209  10.870   1.193  0.2149 -0.0047  0.0536
 2475W        W22009  19.398  13.609   2.874 -0.0124 -0.2113 -0.4332
 2476W        W22010   6.016  13.003  14.306 -0.0385  0.2368  0.0287
 2477W        W22011   4.519  13.852  13.803 -0.3914  0.1409  0.1460
 2478W        W22012   0.654   9.915  11.714 -0.1798 -0.0489  0.1230
 2479W        W22013   1.533   7.541   3.988 -0.3189 -0.1351  0.2006
 2480W        W22014   1.684  17.123  12.077 -0.1278  0.0127 -0.3321
 2481W        W22015  14.930  15.326  10.345 -0.0329 -0.0050  0.2207
 2482W        W22016  13.942   2.677   3.284  0.0014  0.1497  0.1302
 2483W        W22017  11.335  13.927  13.504 -0.1206 -0.2162 -0.1119
 2484W        W22018  17.110  11.468   0.384 -0.1553 -0.1223 -0.1073
 2485W        W22019   5.766  13.325   1.533 -0.2661 -0.3934  0.1555
 2486W        W22020   2.027   4.385  10.462 -0.0445  0.0242 -0.1649
 2487W        W22021  14.572   3.572  12.183 -0.1417 -0.1854  0.3795
 2488W        W22022   3.084  10.496  11.392 -0.1489 -0.1824 -0.1020
 2489W        W22023   4.385   2.979   2.117 -0.1369  0.0527  0.0175
 2490W        W22024   2.689   6.943   1.581 -0.0138  0.1731  0.1251
 2491W        W22025   7.314  12.102   3.374 -0.2248 -0.1199 -0.6789
 2492W        W22026   8.989   0.858   0.932  0.1134 -0.0900 -0.3621
 2493W        W22027   3.928  16.067  13.638  0.4027 -0.1425  0.2228
 2494W        W22028   2.239   0.083   2.345 -0.2049 -0.3231  0.0207
 2495W        W22029  11.869   5.261   0.082 -0.3100  0.0949 -0.2273
 2496W        W22030   0.678  19.235   0.302  0.4201 -0.1394 -0.1669
 2497W        W22031   5.242   2.609  12.087  0.1225  0.0101 -0.1328
 2498W        W22032   2.208   5.440  13.202 -0.1416  0.0170 -0.0204
 2499W        W22033   7.065   6.053  10.882 -0.1103 -0.0173  0.1277
 2500W        W22034   6.202   9.392  14.004  0.2598 -0.0257  0.2834
 2501W        W22035  17.141  17.480   0.095 -0.0506 -0.1952 -0.0055
 2502W        W22036   6.064   0.648  11.740 -0.1112  0.0408  0.2652
 2503W        W22037  10.966   8.322  12.510 -0.0901  0.0174  0.3435
 2504W        W22038   5.426   5.011   2.682  0.0622  0.0808 -0.1411
 2505W        W22039  10.688   8.319  11.041  0.1426 -0.2441  0.1019
 2506W        W22040  14.878   5.689   3.399  0.0927  0.0582 -0.2025
 2507W        W22041   5.653   4.649   4.485 -0.2066  0.3068  0.2226
 2508W        W22042  11.995  13.249   2.933 -0.0375  0.3577  0.2917
 2509W        W22043   8.151  18.632   4.066  0.2337  0.0483 -0.4458
 2510W        W22044   0.789   2.319  11.584  0.3746 -0.0728 -0.0242
 2511W        W22045  18.050   0.610   9.751  0.1541 -0.1253  0.1018
 2512W        W22046   1.769   6.542   0.633  0.1716 -0.3288  0.0584
 2513W        W22047   8.272   4.395  12.685  0.0249  0.0552  0.0866
 2514W        W22048   9.746   2.392   3.085  0.1337 -0.2404 -0.2357
 2515W        W22049   3.588   7.259  13.951 -0.0135  0.0102 -0.0691
 2516W        W22050   2.680   9.111  13.392  0.0288 -0.2139 -0.1677
 2517W        W22051   8.055  15.794  12.032  0.2067 -0.0590  0.1454
 2518W        W22052  17.139   6.915   3.126  0.2078  0.2184 -0.1379
 2519W        W22053   0.220   3.910  12.795 -0.1365  0.0117 -0.0155
 2520W        W22054   9.821   0.112  12.884 -0.1523 -0.0948 -0.0226
 2521W        W22055  12.192   6.267   0.945  0.0551 -0.1505 -0.1848
 2522W        W22056   8.374   9.313  12.049  0.0879  0.0869  0.2258
 2523W        W22057  12.181   5.896  11.143 -0.2515  0.0383 -0.1128
 2524W        W22058   2.545   4.373  11.188 -0.0021  0.2560 -0.3247
 2525W        W22059   3.096   5.060   1.009 -0.1168 -0.1793  0.1336
 2526W        W22060   3.988  12.127   0.971 -0.1087 -0.0564  0.2459
 2527W        W22061   0.240  10.626   1.777  0.1530 -0.0328 -0.2801
 2528W        W22062   3.041  13.204  13.513  0.0394 -0.0708 -0.0058
 2529W        W22063  11.333   4.007  13.351  0.1904  0.3913  0.2004
 2530W        W22064   6.483   3.770  13.936 -0.1857  0.0001 -0.1254
 2531W        W22065   9.480  13.723  11.261  0.1112 -0.2731  0.1180
 2532W        W22066  14.857  10.171  11.771  0.2035 -0.2375 -0.0615
 2533W        W22067  16.734   7.624   0.367  0.1687 -0.1343 -0.1087
 2534W        W22068  18.897  13.352   2.156  0.1599  0.0968  0.2542
 2535W        W22069  16.944  15.805   2.487  0.1745 -0.0046 -0.2285
 2536W        W22070   6.356  17.218   4.096 -0.2878  0.0781 -0.1157
 2537W        W22071  14.315  12.590   3.789 -0.1260  0.0727  0.0906
 2538W        W22072  14.327   4.480   2.532 -0.0206 -0.3126  0.0326
 2539W        W22073   9.304   1.451   4.988 -0.2016  0.0542 -0.2515
 2540W        W22074   2.745   6.258  10.728  0.0095  0.0552  0.3142
 2541W        W22075   1.226   1.931  11.643  0.1058 -0.0665 -0.0683
 2542W        W22076   3.615  18.088   0.209  0.2165 -0.0518 -0.0698
 2543W        W22077  11.192   5.633   3.569 -0.0529  0.1814 -0.4509
 2544W        W22078   8.099   7.308   3.695 -0.0023  0.0994 -0.0467
 2545W        W22079   9.131  14.438   1.736  0.0738  0.1594 -0.0033
 2546W        W22080   4.521   6.556  10.285  0.1904 -0.1279 -0.0953
 2547W        W22081  14.021  14.848   4.632  0.1129 -0.2254  0.0116
 2548W        W22082   8.107  12.852   3.283  0.0471  0.0906 -0.1281
 2549W        W22083  10.291   1.042  11.335 -0.0810 -0.1050  0.2765
 2550W        W22084  12.642   2.692  10.593  0.1073 -0.0026  0.0100
 2551W        W22085   3.981  16.263  13.158  0.1457  0.0441 -0.0809
 2552W        W22086   5.099  13.378  14.072 -0.2772 -0.1180  0.1064
 2553W        W22087   0.453  11.631  13.496  0.2313 -0.0148 -0.1981
 2554W        W22088   5.603   8.003  14.150 -0.1065 -0.0289  0.0353
 2555W        W22089  18.984  11.171   1.638  0.1680 -0.2628  0.2831
 2556W        W22090  11.271  11.266  13.663  0.0533 -0.0110 -0.1569
 2557W        W22091   3.346  15.851  12.098 -0.1524  0.0004  0.0939
 2558W        W22092   9.806  17.296  11.749 -0.0583 -0.1089 -0.0218
 2559W        W22093  14.836  15.803  13.735 -0.2362  0.1764 -0.3172
 2560W        W22094   5.325  17.177  11.939  0.2552  0.2276  0.1222
 2561W        W22095  11.637   8.426   0.236  0.0975 -0.2571 -0.1625
 2562W        W22096  19.501  17.910   0.047  0.3153  0.1344  0.1028
 2563W        W22097  10.958   4.075   1.234  0.1389 -0.0905  0.0433
 2564W        W22098  12.805   3.543  13.053  0.0457 -0.2285 -0.0807
 2565W        W22099  15.456   6.234  11.863 -0.1316 -0.2355  0.0698
 2566W        W22100  14.819   6.794   1.909  0.0349  0.2477  0.2199
 2567W        W22101  15.013  11.486  12.047  0.0144  0.2717  0.1193
 2568W        W22102   5.817   9.574  11.521  0.1903 -0.0182 -0.0574
 2569W        W22103   3.014  16.237  11.174  0.1731 -0.3293 -0.1144
 2570W        W22104  18.555  17.345  10.704  0.1601  0.3140 -0.0152
 2571W        W22105   9.293  12.140  12.334  0.2937  0.1307 -0.1018
 2572W        W22106   4.882  11.418   1.928  0.0337 -0.1045  0.1262
 2573W        W22107  14.463  16.503  10.175  0.0119 -0.0047 -0.2176
 2574W        W22108  11.431   8.373  12.930 -0.0683  0.2238 -0.2585
 2575W        W22109   0.219   1.372  12.905  0.3992 -0.2847  0.0299
 2576W        W22110   7.732  11.122   3.126 -0.2317  0.1672 -0.1288
 2577W        W22111  10.162   1.560  11.277 -0.1302  0.1601  0.1790
 2578W        W22112   1.396   9.257  11.643  0.2217  0.0957 -0.4489
 2579W        W22113  14.137   8.605  12.408 -0.2130 -0.2291  0.2191
 2580W        W22114   4.076  13.165  13.302  0.1629 -0.0369 -0.0893
 2581W        W22115   6.478   2.475  12.530  0.1168  0.0627  0.0852
 2582W        W22116  14.910   0.752  11.088  0.1524  0.2757  0.1191
 2583W        W22117   7.223  13.438   0.105  0.2519 -0.1999  0.4341
 2584W        W22118  16.111   2.752  10.545 -0.3402  0.0820 -0.3400
 2585W        W22119   8.003  17.369   1.085 -0.1538 -0.2098 -0.0931
 2586W        W22120   7.691  14.901   2.029  0.0580 -0.0667 -0.2584
 2587W        W22121  11.990  16.825   2.327 -0.0738 -0.1323 -0.0534
 2588W        W22122  17.259  15.236  10.729 -0.0971 -0.1432  0.0003
 2589W        W22123   0.959   7.437  11.947  0.0021  0.1832  0.2212
 2590W        W22124  11.415  13.306  12.226  0.0983 -0.1203  0.0167
 2591W        W22125   0.761   6.473   9.843  0.1364  0.4442  0.0607
 2592W        W22126   8.516  16.627  12.114 -0.1428 -0.2417 -0.0919
 2593W        W22127   7.703  19.422   3.634  0.1624 -0.1488  0.5654
 2594W        W22128  10.179   4.589   2.014 -0.0939  0.0260  0.1514
 2595W        W22129  14.968   4.417  13.403 -0.1687 -0.0522 -0.1563
 2596W        W22130  18.596  18.637  13.089 -0.0157  0.0920 -0.0087
 2597W        W22131  14.843  13.979  14.350  0.1794  0.1171  0.0766
 2598W        W22132   4.718   1.278  11.333  0.3001 -0.0994 -0.3641
 2599W        W22133  15.780  14.330   3.765 -0.1148 -0.1098  0.1386
 2600W        W22134   7.862  16.416   3.520 -0.0546 -0.1964 -0.0278
 2601W        W22135   7.715   2.651   1.991  0.2005 -0.0348 -0.0435
 2602W        W22136  18.320  18.924  10.828 -0.1225 -0.1137 -0.1192
 2603W        W22137  11.731   3.588  13.519  0.0429 -0.0028 -0.0706
 2604W        W22138  13.469  10.388  11.970 -0.0563  0.1661  0.0772
 2605W        W22139  18.607  16.365  14.095  0.0142 -0.0805  0.0270
 2606W        W22140   0.371   8.018  11.993 -0.0995 -0.1561 -0.3059
 2607W        W22141   1.920  19.319  11.046 -0.0150 -0.0780 -0.0155
 2608W        W22142  18.074   5.725  13.758  0.1837 -0.3871  0.0855
 2609W        W22143   8.339   1.276   0.778  0.1620  0.1014 -0.1698
 2610W        W22144   0.822  11.668  13.174 -0.1765 -0.1252 -0.1697
 2611W        W22145   7.243  15.375   1.082 -0.1486  0.0313 -0.0313
 2612W        W22146   5.886   8.612   4.201 -0.0503  0.1700 -0.1062
 2613W        W22147  10.043  13.420  13.260 -0.3023  0.2268 -0.1668
 2614W        W22148   0.441  15.581  10.964  0.0384 -0.0996 -0.1086
 2615W        W22149  12.594  15.499   3.527 -0.0292 -0.0917 -0.1191
 2616W        W22150  11.651  16.198   3.257  0.0676 -0.3645  0.0540
 2617W        W22151  11.794   0.553   0.411  0.2606 -0.1289  0.3372
 2618W        W22152   2.806   5.811   1.734 -0.0031 -0.0387 -0.2471
 2619W        W22153  17.597  10.104  11.203 -0.1582  0.0674  0.3069
 2620W        W22154  17.012  10.305   0.896 -0.0003 -0.1745 -0.0753
 2621W        W22155  17.061   4.172   1.750  0.3604  0.1712  0.1172
 2622W        W22156   0.505   0.383   0.115  0.0300 -0.0149 -0.4837
 2623W        W22157  15.083  16.307   3.372  0.1908 -0.0556 -0.1463
 2624W        W22158  18.995  19.127  11.814 -0.0079 -0.0386 -0.1568
 2625W        W22159   9.041   7.184  10.368 -0.2389 -0.2656  0.0978
 2626W        W22160   8.252  15.952   2.835  0.1766 -0.0589 -0.2250
 2627W        W22161   8.905   1.367   2.246  0.1763  0.1688 -0.0581
 2628W        W22162   3.523   0.907   1.577 -0.1143 -0.2275 -0.0553
 2629W        W22163   5.457   1.171   3.721 -0.0951  0.0506  0.2616
 2630W        W22164   4.553   7.809  10.762  0.2321 -0.2087  0.1715
 2631W        W22165  14.433   7.078   1.618 -0.1901 -0.0455 -0.0690
 2632W        W22166  16.953   3.177   2.626 -0.2282 -0.2545 -0.2069
 2633W        W22167   9.306   0.916  13.950  0.0614 -0.1149  0.0716
 2634W        W22168   0.256   3.699   4.754 -0.1812  0.0489 -0.0174
 2635W        W22169   7.521   6.254  12.316  0.0077 -0.0116 -0.3066
 2636W        W22170  14.028   5.667  13.777  0.1289 -0.1232  0.2529
 2637W        W22171   0.192   1.090   4.224 -0.0666 -0.4590  0.1236
 2638W        W22172  17.113   4.095   3.645 -0.2674 -0.3525  0.0252
 2639W        W22173   3.766  13.133   2.241 -0.1629  0.1149 -0.1282
 2640W        W22174  13.060   5.864   1.629  0.0641 -0.2920 -0.0901
 2641W        W22175  13.227   4.426   0.493  0.0920  0.1370  0.0081
 2642W        W22176   8.004  11.122  11.628  0.0163 -0.2744  0.0074
 2643W        W22177  13.519   3.337   1.246  0.1669  0.2325 -0.0373
 2644W        W22178   5.339  11.571   0.264  0.1312  0.3514  0.3465
 2645W        W22179   2.837   7.799  10.970 -0.0262  0.0264 -0.2070
 2646W        W22180  15.780   9.373  11.322  0.2446  0.0342  0.2071
 2647W        W22181  13.798  17.215   1.104 -0.1792 -0.1945  0.4250
 2648W        W22182   4.082   0.720   9.542 -0.0583  0.1766 -0.0545
 2649W        W22183   9.029   4.102   0.520  0.4526 -0.0550 -0.0595
 2650W        W22184  10.926  13.086   0.597  0.1569 -0.0941  0.4111
 2651W        W22185   6.842   4.335  12.135  0.1416  0.4173  0.1945
 2652W        W22186  14.045   9.359  12.252  0.1542  0.3626  0.0359
 2653W        W22187  16.055   7.987   1.716  0.1280 -0.0832 -0.2912
 2654W        W22188   1.404   9.566  11.224  0.2656  0.1606 -0.0178
 2655W        W22189  15.311  10.323   0.973  0.4188  0.0958  0.2977
 2656W        W22190   4.550  14.694  12.620 -0.2075  0.1113 -0.0153
 2657W        W22191  10.635  13.751   1.766 -0.0801  0.1053 -0.0530
 2658W        W22192  13.765  11.563   2.734  0.2011 -0.0701 -0.0904
 2659W        W22193   8.225   4.435  11.277 -0.1499  0.0967  0.1730
 2660W        W22194  17.088   3.630  10.729  0.1907 -0.0655  0.1592
 2661W        W22195   9.430  16.237  11.764  0.3574 -0.1276 -0.2615
 2662W        W22196  12.930   6.223   3.595  0.0703  0.0300 -0.3162
 2663W        W22197  17.647  18.315  12.297 -0.0792 -0.2946  0.0424
 2664W        W22198   5.540   8.740   1.196  0.0579 -0.0800 -0.2267
 2665W        W22199  11.339   2.637   3.546 -0.0048  0.0348  0.2421
 2666W        W22200   7.425   7.401  13.409  0.2675  0.0020 -0.1706
 2667W        W22201   4.782  11.969   3.034 -0.0855  0.0542  0.1735
 2668W        W22202   3.169  18.501  12.082 -0.0357 -0.1997  0.1629
 2669W        W22203   5.467  11.873   2.651 -0.0675 -0.0777 -0.1274
 2670W        W22204   1.563   2.735  12.045  0.1622 -0.0530  0.2371
 2671W        W22205   6.413  14.257   2.237 -0.1802 -0.0633 -0.0834
 2672W        W22206   5.538   0.768  11.886  0.0538 -0.0975  0.0181
 2673W        W22207   9.975  17.699  11.984  0.1776  0.2042 -0.0441
 2674W        W22208  11.142  10.159  11.843 -0.1440  0.1605  0.4098
 2675W        W22209  18.639   1.859  10.955 -0.1265  0.2984  0.0551
 2676W        W22210  10.778   8.639  14.068  0.0413 -0.3326 -0.2686
 2677W        W22211  14.642   3.728   1.249  0.2056  0.1722  0.2170
 2678W        W22212   2.197  18.392   2.366 -0.2190  0.0886 -0.1617
 2679W        W22213   5.576  14.291  13.945  0.0312  0.0104  0.1415
 2680W        W22214   7.521   5.966  10.966  0.0353 -0.4608 -0.0792
 2681W        W22215   0.568   9.920   2.716 -0.0194 -0.1348  0.0758
 2682W        W22216  12.339   5.797  14.202  0.0938  0.0269 -0.4556
 2683W        W22217   1.646   6.187  13.879 -0.2971  0.1329 -0.1026
 2684W        W22218   3.015  11.308   3.259 -0.1555 -0.1042 -0.0404
 2685W        W22219   7.567   1.891   1.498 -0.0165 -0.0933  0.0016
 2686W        W22220   6.644  12.463  13.706 -0.2364  0.0252 -0.0770
 2687W        W22221   7.729   6.559   0.956  0.1553 -0.2250  0.0084
 2688W        W22222  10.549  12.304  14.147 -0.0005 -0.2285 -0.0399
 2689W        W22223   1.129  12.201   0.056  0.5310  0.2043  0.0039
 2690W        W22224  11.398   3.753   0.363  0.3028  0.1966  0.4215
 2691W        W22225   9.289   1.720  13.589 -0.0628  0.1523  0.4747
 2692W        W22226  19.509   8.341  11.831 -0.2332  0.2423  0.2476
 2693W        W22227   8.569  13.465  14.245 -0.2445 -0.0776  0.0380
 2694W        W22228   0.375  16.557  10.189 -0.0258  0.0653 -0.3775
 2695W        W22229   8.119  17.688  13.076  0.4452 -0.2931 -0.2510
 2696W        W22230  16.112  12.127   1.825 -0.1074  0.0396 -0.1196
 2697W        W22231   4.620  15.636  13.706 -0.2251 -0.0382  0.3519
 2698W        W22232  17.923  15.594   2.261  0.1234  0.0174 -0.1122
 2699W        W22233   6.323   9.121  13.564  0.2329  0.1794 -0.2128
 2700W        W22234   7.859  18.016   3.205 -0.0219  0.1666  0.1155
 2701W        W22235  17.704  16.100  11.728 -0.2759  0.1609 -0.5875
 2702W        W22236   7.240  12.682   0.734 -0.1151 -0.1008  0.0186
 2703W        W22237  17.381  11.571  13.097  0.0941  0.0879  0.0578
 2704W        W22238  18.024   3.019   4.127  0.2614  0.2054  0.2310
 2705W        W22239  16.660  11.904  10.699 -0.7440  0.1018  0.0455
 2706W        W22240  11.592   8.916   1.143  0.2493 -0.1524 -0.0761
 2707W        W22241  14.018   6.083  10.730 -0.2005  0.1247 -0.1261
 2708W        W22242   9.059  15.002  12.698  0.0610  0.0368  0.1115
 2709W        W22243   4.582  11.547  14.031 -0.2861 -0.2321  0.3977
 2710W        W22244   4.601  12.519  13.274 -0.5620 -0.2225  0.4262
 2711W        W22245   7.506   0.383   4.392 -0.1171 -0.3165  0.0572
 2712W        W22246   9.667   1.574   0.662  0.3099 -0.2160 -0.1845
 2713W        W22247  17.360  13.906   1.581  0.6652  0.0363 -0.1327
 2714W        W22248   7.952  16.834  11.048  0.0929 -0.0293  0.0306
 2715W        W22249  10.813  19.394   3.350  0.0485 -0.3861 -0.1408
 2716W        W22250   0.944  17.270  13.571  0.2368 -0.0661  0.0291
 2717W        W22251   0.700  10.467   4.366 -0.2906  0.0578 -0.0592
 2718W        W22252  11.342  18.543   2.924 -0.0616 -0.0277  0.0572
 2719W        W22253  17.390  18.017   1.099 -0.1822 -0.1568  0.0029
 2720W        W22254  15.922  18.541   3.148 -0.1613  0.0444  0.0829
 2721W        W22255  13.202  15.435  11.638 -0.2312  0.1858  0.2254
 2722W        W22256   3.037   8.122  12.681  0.0445  0.1001  0.2226
 2723W        W22257  11.264  11.630   0.434 -0.0463 -0.3733  0.0422
 2724W        W22258   9.444   4.323  11.177  0.3523 -0.5335 -0.1196
 2725W        W22259   9.942   9.306  10.926  0.1727 -0.3873 -0.1910
 2726W        W22260  11.507  15.597  12.709 -0.0859  0.2575  0.0721
 2727W        W22261  18.001  17.672  11.769  0.0556  0.0404  0.2838
 2728W        W22262   8.393   0.606   3.363  0.1221  0.0793  0.4087
 2729W        W22263  12.139   4.592   0.885  0.3452 -0.2039 -0.0879
 2730W        W22264   0.382   7.738   4.276  0.0325 -0.0089  0.1130
 2731W        W22265  11.839   6.821   3.216  0.0513  0.1428 -0.2948
 2732W        W22266   4.465  10.585   0.584  0.1566 -0.1093 -0.1400
 2733W        W22267  14.197   8.933  12.049 -0.1923 -0.0356  0.0163
 2734W        W22268  10.237  11.090   1.156  0.1820 -0.3597 -0.1088
 2735W        W22269  10.604   6.652   1.760  0.3462  0.2263 -0.0942
 2736W        W22270  17.867  16.673   0.587 -0.0301 -0.0963  0.5717
 2737W        W22271  18.621  15.104  11.926 -0.1393 -0.0407  0.0599
 2738W        W22272  12.106  17.484   1.510 -0.0268  0.0763 -0.0234
 2739W        W22273  16.245  13.239  12.590  0.1599 -0.0949  0.0570
 2740W        W22274  16.733   8.235   1.215  0.0814  0.2038 -0.2073
 2741W        W22275  16.251  16.146   9.600  0.2598  0.2546 -0.0457
 2742W        W22276  16.089   1.581   1.477  0.1998  0.0869  0.0963
 2743W        W22277  19.236  17.530   2.980  0.1628  0.0086 -0.1546
 2744W        W22278  11.176   0.632   3.787  0.1164  0.0861  0.3138
 2745W        W22279   6.217  16.381   0.688  0.0350 -0.3370 -0.0056
 2746W        W22280   0.295  13.403   1.530 -0.0828 -0.2549 -0.0316
 2747W        W22281  11.555  10.100   9.484 -0.0036 -0.0786  0.1486
 2748W        W22282   9.907  14.932   0.095 -0.2897  0.0831 -0.1421
 2749W        W22283  10.727   2.223  14.227  0.0069  0.1903 -0.0618
 2750W        W22284   5.787  10.905  11.198 -0.0679 -0.2551 -0.0959
 2751W        W22285  19.312   4.116   3.598  0.2009 -0.1381 -0.0172
 2752W        W22286  17.105   1.880   0.444  0.1148  0.1244  0.0453
 2753W        W22287   7.268   2.348   1.495  0.1034  0.0698 -0.1243
 2754W        W22288   6.070  12.686  11.849 -0.1995  0.0449  0.1128
 2755W        W22289  10.808  14.812  10.599 -0.1198 -0.0578  0.0068
 2756W        W22290   2.500  13.717   2.970  0.0498 -0.0951  0.0512
 2757W        W22291   8.515  10.899   2.660  0.1762  0.0782  0.2289
 2758W        W22292  12.700   0.990   0.311  0.0665 -0.1847  0.3422
 2759W        W22293   9.316  17.055  11.956  0.0428  0.2943 -0.0434
 2760W        W22294  11.600   5.077  13.213 -0.0426 -0.1838 -0.1853
 2761W        W22295  14.339  12.485  12.418  0.2049  0.1669 -0.0543
 2762W        W22296   6.389  17.564  13.384  0.0532  0.0640  0.2969
 2763W        W22297  19.097   9.075   2.383  0.1544  0.1710 -0.1316
 2764W        W22298  13.006  13.005   3.703 -0.0331 -0.3554 -0.1161
 2765W        W22299   5.169  13.985  11.169  0.0501 -0.1089  0.0694
 2766W        W22300   1.242  18.993  10.360  0.0904 -0.3785  0.3167
 2767W        W22301   7.889   1.467   0.218  0.0396 -0.2745  0.3531
 2768W        W22302  10.374  11.935   0.290 -0.1524 -0.1064 -0.1502
 2769W        W22303   2.920  10.720  12.226  0.0816  0.0004  0.3308
 2770W        W22304   3.745   9.045   4.402 -0.0914  0.1213  0.0693
 2771W        W22305   1.967  13.326   0.787 -0.2005 -0.2579 -0.0086
 2772W        W22306   7.037  14.784   2.688  0.4709  0.0667 -0.1499
 2773W        W22307  19.375  15.309  13.407 -0.1594  0.0474 -0.1552
 2774W        W22308   6.313   0.163   1.985  0.1948 -0.1704  0.0977
 2775W        W22309   7.876   9.903  11.184  0.2420 -0.0306  0.2224
 2776W        W22310  12.561  18.160   1.087 -0.3595  0.1039  0.0145
 2777W        W22311  10.777   1.392  12.641  0.1293  0.0659 -0.0400
 2778W        W22312   8.643   3.666   1.522 -0.2394  0.2426 -0.1396
 2779W        W22313   1.065  15.961  10.534  0.1509 -0.1049  0.2331
 2780W        W22314   2.480   7.541  10.813  0.2369  0.0959  0.0082
 2781W        W22315  10.633   4.533   3.606 -0.3055  0.0263  0.0407
 2782W        W22316  16.526   2.397  10.831  0.0868  0.1609  0.0116
 2783W        W22317   0.117  15.011  14.166  0.0458  0.0200  0.2126
 2784W        W22318  19.258  18.116  13.256  0.1028  0.0303 -0.0600
 2785W        W22319   3.268  12.500  11.110  0.2016  0.2436 -0.0312
 2786W        W22320   5.526   7.857   2.300  0.1507 -0.0783 -0.1061
 2787W        W22321  10.044   1.339   3.970 -0.0499 -0.1976 -0.2149
 2788W        W22322  10.840  10.678   0.752 -0.4929  0.1619 -0.0410
 2789W        W22323   3.646   1.372   2.450  0.3032 -0.2429 -0.0204
 2790W        W22324  10.809   9.087   2.925 -0.0776  0.2311 -0.0617
 2791W        W22325   9.321   6.219   3.576 -0.0066  0.1349 -0.5056
 2792W        W22326   4.767   6.769   3.912 -0.0833  0.2431 -0.1611
 2793W        W22327   9.980  10.806  11.585 -0.0067  0.0245  0.1228
 2794W        W22328   6.320   6.567   0.967  0.1780  0.0126  0.1073
 2795W        W22329   0.329   2.537  11.273  0.0380  0.0126  0.1478
 2796W        W22330   5.782   3.880  14.255 -0.0379  0.0154  0.0169
 2797W        W22331  19.412  13.567   1.883 -0.4482  0.1256  0.1144
 2798W        W22332   8.387  17.659  14.111  0.2461 -0.1222 -0.1290
 2799W        W22333   6.583   9.146   4.548 -0.1360 -0.1367 -0.1945
 2800W        W22334  10.041  19.260   2.054 -0.3851 -0.0835  0.1722
 2801W        W22335   2.738  15.963   0.835 -0.2691  0.2913 -0.1198
 2802W        W22336  17.217  13.449   1.158  0.1034  0.0738  0.2717
 2803W        W22337   2.455   4.293   2.800 -0.1138  0.1093 -0.1860
 2804W        W22338  14.690   9.816   1.249 -0.0105 -0.0788  0.1075
 2805W        W22339   4.195   2.281  13.334 -0.0665  0.1684 -0.1662
 2806W        W22340  14.407   8.929   0.200 -0.0596 -0.1083 -0.2433
 2807W        W22341   2.669  18.643   2.703 -0.0711  0.2482 -0.0400
 2808W        W22342   0.131  13.898  11.917 -0.2084  0.0266 -0.0194
 2809W        W22343   5.686  18.267   2.230 -0.0918  0.0746  0.0226
 2810W        W22344  16.352   2.580  10.136 -0.1815  0.2191 -0.0588
 2811W        W22345   5.320  14.121   0.413  0.1108 -0.3920 -0.1936
 2812W        W22346  10.340  12.736  13.626  0.0957  0.1469 -0.1660
 2813W        W22347   4.256  15.589  12.639 -0.0641  0.0043 -0.2030
 2814W        W22348   7.393   8.452   3.132 -0.1961 -0.0064  0.0419
 2815W        W22349  16.475   8.357   0.787  0.1668 -0.1800  0.1212
 2816W        W22350  10.539   5.484   2.347  0.0177  0.2366  0.1836
 2817W        W22351   4.498  10.405   4.566 -0.1744 -0.0609  0.0828
 2818W        W22352  14.232  14.654  12.434  0.0835 -0.1619 -0.0701
 2819W        W22353  16.371  14.940   1.487 -0.0517 -0.0799 -0.0074
 2820W        W22354  10.864  12.214  10.981  0.1052 -0.3286 -0.0060
 2821W        W22355  12.040  18.104   0.688  0.4024  0.0854 -0.2034
 2822W        W22356   5.452   3.623   2.686  0.1194 -0.0295 -0.0344
 2823W        W22357   3.362   8.352  13.560  0.1248  0.0338 -0.0369
 2824W        W22358  19.477   9.316  11.615  0.2637 -0.4964  0.3211
 2825W        W22359   4.089  14.469   1.266  0.1946  0.0043 -0.0326
 2826W        W22360   0.440   5.920  13.344  0.3520 -0.1194 -0.1060
 2827W        W22361   0.515  13.342  14.165  0.2917 -0.0962  0.0986
 2828W        W22362   1.422   8.869   2.321 -0.5993  0.0361 -0.0214
 2829W        W22363   2.862  15.949   5.172 -0.0484  0.0781  0.2240
 2830W        W22364   2.431  10.527  13.176  0.1072  0.0911  0.0957
 2831W        W22365   3.945   3.876  12.052  0.3722 -0.0286  0.0365
 2832W        W22366   7.922   9.506  12.790 -0.1363  0.1749  0.2791
 2833W        W22367  12.126  13.228  12.680  0.0493 -0.1125  0.1006
 2834W        W22368   1.928  19.325  14.332 -0.0451  0.1127  0.0611
 2835W        W22369   8.641   8.939   1.602  0.0942  0.2101  0.2541
 2836W        W22370  18.383   2.937   1.741 -0.0626 -0.2518 -0.1065
 2837W        W22371  19.192  14.732  13.938 -0.1647 -0.1094 -0.1658
 2838W        W22372   2.373  12.199  12.017  0.0235  0.0413  0.3510
 2839W        W22373  16.005  18.673  11.869  0.0132  0.0840  0.0394
 2840W        W22374  15.717   1.217  10.248 -0.0743  0.0041 -0.0814
 2841W        W22375   1.410   3.341   0.889 -0.2887  0.1215 -0.1786
 2842W        W22376  10.234   0.847   0.253 -0.1495  0.1402  0.2464
 2843W        W22377  12.069  17.251  14.237  0.0300 -0.1285 -0.2853
 2844W        W22378  16.082  12.282  12.400  0.0552 -0.2857 -0.1724
 2845W        W22379   6.961  19.061  11.900  0.0165 -0.0578  0.0412
 2846W        W22380   0.156  18.776  13.849 -0.2195 -0.3893 -0.3714
 2847W        W22381  18.513   3.726  12.391  0.0542  0.1821 -0.0380
 2848W        W22382  16.829  10.167  12.766 -0.3782 -0.1875 -0.1888
 2849W        W22383  15.156  11.825  14.101  0.0011 -0.0984 -0.0888
 2850W        W22384   8.996   3.092  10.864  0.0799 -0.0866 -0.1386
 2851W        W22385  10.843   2.483   0.631 -0.0869  0.1363  0.0941
 2852W        W22386  15.721  15.818  14.335  0.1453 -0.0911  0.2380
 2853W        W22387  16.795   9.573   0.593 -0.0774  0.0445 -0.1808
 2854W        W22388   4.076   2.281  10.361 -0.0356  0.4006 -0.1348
 2855W        W22389   2.118  10.496  12.622 -0.3056  0.1015 -0.0023
 2856W        W22390   3.380  10.706   4.309 -0.1884  0.2495 -0.0075
 2857W        W22391  11.942  14.388   0.309  0.0060  0.1398 -0.0039
 2858W        W22392  18.309  10.822  11.831  0.0985  0.0747 -0.0799
 2859W        W22393  15.936   0.134   0.877  0.1157  0.0902 -0.1082
 2860W        W22394  16.282   2.487  13.242 -0.0165 -0.0547  0.1368
 2861W        W22395   8.714  18.858   0.532  0.1460  0.0768  0.2633
 2862W        W22396  13.873   8.704  12.888  0.4384  0.0944  0.4323
 2863W        W22397   4.991  14.200   2.968 -0.1108 -0.0128 -0.3219
 2864W        W22398   6.307   0.798   4.113  0.0068 -0.0046  0.1541
 2865W        W22399  13.895  14.186   3.018 -0.0579  0.1395 -0.1613
 2866W        W22400  10.153  19.027   0.514  0.3105  0.0545 -0.2715
 2867W        W22401  15.461   1.529  13.905  0.3328 -0.1130  0.1561
 2868W        W22402   5.969  18.172   3.986  0.1641  0.1387 -0.2328
 2869W        W22403   0.019  15.433   3.635  0.3316  0.4966 -0.2498
 2870W        W22404  17.683   0.882   1.081  0.1802 -0.0665 -0.0179
 2871W        W22405   6.469  11.517   3.122  0.1744  0.0269  0.0640
 2872W        W22406   0.237  14.725  10.693  0.0304  0.1688  0.0344
 2873W        W22407   9.662  18.078  14.166  0.0718  0.0707  0.0090
 2874W        W22408   8.975   0.535   0.436 -0.0558  0.0742 -0.0456
 2875W        W22409   8.224  19.034   0.546  0.0655  0.0365  0.4690
 2876W        W22410   4.922  18.153  10.980 -0.2530  0.1944  0.1044
 2877W        W22411   8.883   9.520  11.935 -0.1692 -0.0689  0.2556
 2878W        W22412   6.167   2.461   1.742 -0.0495  0.0088  0.2559
 2879W        W22413  13.355   6.410   1.884  0.2004  0.0064  0.4213
 2880W        W22414  14.633  11.618  13.144 -0.0184  0.4637  0.2117
 2881W        W22415  13.179   7.411   0.898  0.1164 -0.2142  0.1990
 2882W        W22416   6.117  18.766   3.884 -0.0924 -0.0188 -0.0775
 2883W        W22417   9.439   2.011  10.158  0.1115 -0.1699 -0.1313
 2884W        W22418  17.460  19.042  14.043 -0.1391  0.0822 -0.0904
 2885W        W22419  16.548  10.111  11.267  0.2824  0.1459 -0.2445
 2886W        W22420  15.727  17.820   1.107  0.0930 -0.2437 -0.1524
 2887W        W22421   1.887   6.183  12.691 -0.0598 -0.0939  0.0620
 2888W        W22422   6.722  18.205  12.292 -0.1438  0.3603 -0.4063
 2889W        W22423   4.809   8.392   0.551  0.2672  0.1097  0.0147
 2890W        W22424  13.322   5.035   1.209 -0.0249 -0.1407 -0.1551
 2891W        W22425   8.540   1.621   9.355  0.2714  0.1502 -0.1326
 2892W        W22426  10.461  11.467  12.688 -0.3404 -0.1595  0.1733
 2893W        W22427   2.700   3.803  11.333  0.0198 -0.0595 -0.2092
 2894W        W22428   9.724  16.348   1.164 -0.3985 -0.1288 -0.2894
 2895W        W22429   4.562   1.736   0.223  0.1159 -0.0498  0.0445
 2896W        W22430  12.115   7.651   2.781 -0.2567  0.1234  0.0325
 2897W        W22431   3.600   3.172   0.013 -0.1464  0.0491  0.2161
 2898W        W22432  17.681   1.296   3.547  0.2326  0.1722  0.0399
 2899W        W22433   9.389   8.500  13.401  0.1655  0.1665 -0.1485
 2900W        W22434   4.813  15.135   3.480 -0.1776  0.2129  0.1595
 2901W        W22435   3.007   5.846  12.669 -0.2193 -0.0916 -0.1358
 2902W        W22436  15.298  12.214  13.765  0.2996  0.1838  0.1797
 2903W        W22437   5.090  15.892  12.941 -0.3749  0.3294 -0.0851
 2904W        W22438  19.301   6.396  10.136 -0.0916  0.1127  0.3508
 2905W        W22439  15.827  10.673   1.697  0.0356  0.2460 -0.0545
 2906W        W22440   5.625  11.427  12.589  0.1085 -0.0558  0.1884
 2907W        W22441   0.625   1.525   4.417  0.1037 -0.1008 -0.2039
 2908W        W22442  13.327  19.023   1.634 -0.2084  0.0566 -0.4039
 2909W        W22443  13.665   7.605   0.774  0.3015  0.1295 -0.1333
 2910W        W22444   9.092   2.590   1.711  0.1413  0.1375 -0.0041
 2911W        W22445   2.933  12.934   4.142  0.2708  0.3960  0.0407
 2912W        W22446   8.564  13.973   3.032  0.0271  0.3015 -0.0654
 2913W        W22447  15.408   2.004   2.518 -0.3387 -0.1418  0.2045
 2914W        W22448   7.030  15.967   3.220 -0.5277 -0.3679 -0.0511
 2915W        W22449  11.070   9.131  13.810  0.0952  0.3478  0.0281
 2916W        W22450  13.748  12.571   0.612 -0.1754 -0.0666  0.0295
 2917W        W22451  16.622   6.673   4.914  0.2246 -0.1824 -0.2124
 2918W        W22452   8.242  18.261  11.562  0.2006 -0.2128 -0.0832
 2919W        W22453  10.628   7.776  12.410 -0.0495 -0.3748 -0.3341
 2920W        W22454  13.532   8.041  13.804  0.0621 -0.1436  0.2189
 2921W        W22455  16.867  14.580  11.082  0.2291 -0.0701 -0.1614
 2922W        W22456   8.991  17.646   2.222 -0.0132  0.3308  0.1286
 2923W        W22457   4.405   7.690   1.248  0.2588 -0.0176 -0.0039
 2924W        W22458  14.364   3.814  12.585 -0.0356  0.3332  0.0439
 2925W        W22459  18.298   4.082   3.533  0.2771 -0.1955 -0.0838
 2926W        W22460  10.536  15.116   4.080 -0.4597  0.0318  0.2137
 2927W        W22461   1.712  18.199  12.861 -0.0655  0.1439  0.0704
 2928W        W22462   6.621  16.741  13.287  0.0651 -0.1242 -0.0716
 2929W        W22463   1.488   1.821   0.878  0.1690 -0.1475  0.0233
 2930W        W22464   7.853  15.152   3.084 -0.1852  0.1011 -0.0816
 2931W        W22465  18.777   4.141  13.513 -0.0983  0.1920  0.1966
 2932W        W22466   6.401  10.039   3.395  0.2853  0.0528 -0.0469
 2933W        W22467   5.253  14.415  13.610  0.3424 -0.0712 -0.2982
 2934W        W22468  16.451  17.034  10.268 -0.2782  0.2227 -0.2363
 2935W        W22469  19.383  10.258  12.722 -0.0072 -0.0665 -0.0762
 2936W        W22470  12.359  15.459  10.450  0.0726  0.2745 -0.1991
 2937W        W22471   5.178   7.081   2.281 -0.0517  0.1617  0.0535
 2938W        W22472   6.730   6.608   0.710  0.0320 -0.2175  0.1258
 2939W        W22473  14.137  18.514  12.377 -0.0950 -0.1697  0.1973
 2940W        W22474   3.769   6.685   3.445  0.1751 -0.0428  0.0147
 2941W        W22475   3.039  12.104  10.917 -0.0484 -0.0898  0.1993
 2942W        W22476   4.097  12.579   3.475 -0.0050 -0.1285  0.0785
 2943W        W22477   4.289   6.092  13.998 -0.1572  0.0525  0.1312
 2944W        W22478   3.422   8.134   1.898  0.1122  0.2134 -0.4044
 2945W        W22479   9.427   3.339  10.971 -0.1725  0.1956 -0.1578
 2946W        W22480   7.017  13.339   3.611  0.0373  0.1415 -0.2359
 2947W        W22481   0.819   1.522   2.708  0.3565  0.2514 -0.2732
 2948W        W22482   4.448  18.452   2.810 -0.1504 -0.0341 -0.2087
 2949W        W22483  17.277   3.599   3.506  0.3529  0.0724 -0.0210
 2950W        W22484   2.662   3.301   0.740  0.0863  0.3269 -0.1663
 2951W        W22485   2.683   0.681  12.238 -0.2554 -0.1165  0.0800
 2952W        W22486   8.886   4.751   1.624 -0.0434  0.1696  0.0591
 2953W        W22487  17.537   1.178  11.546 -0.1902  0.0496 -0.0048
 2954W        W22488   5.945   6.685   2.968  0.0153  0.3454 -0.0633
 2955W        W22489  17.127  15.678   2.979 -0.2767 -0.1834 -0.1819
 2956W        W22490  14.108   6.565   2.718  0.2005  0.0398 -0.0533
 2957W        W22491   0.057   7.334   4.178  0.1594  0.0692  0.0296
 2958W        W22492   5.779   7.005   3.796  0.1551 -0.0288 -0.2046
 2959W        W22493   9.855   0.351  10.008  0.2225 -0.1334 -0.1233
 2960W        W22494  18.628  16.181  13.409 -0.2652 -0.0153 -0.1381
 2961W        W22495   5.935  12.780   0.353 -0.1629  0.2162  0.0610
 2962W        W22496  18.526   1.915   1.735  0.1034 -0.0191  0.0357
 2963W        W22497   5.574  15.117  12.478 -0.1283 -0.1276  0.0700
 2964W        W22498   0.842  14.753   2.073 -0.1372  0.0888  0.1398
 2965W        W22499  17.950   4.174  13.503 -0.2019  0.2701 -0.4971
 2966W        W22500  18.907   1.373  10.208  0.4206  0.1391  0.1731
 2967W        W22501   8.056   6.953  13.621  0.2910  0.0327  0.2120
 2968W        W22502  15.081  17.249   0.654  0.1162 -0.1294  0.0420
 2969W        W22503  11.678   9.511   4.189  0.2136 -0.0460  0.0651
 2970W        W22504  10.948   1.143  13.252  0.1304 -0.0032 -0.3599
 2971W        W22505   4.912  13.920  11.986 -0.2234 -0.1643  0.0441
 2972W        W22506   9.085  13.794   3.196  0.3674  0.0748  0.2190
 2973W        W22507   3.448  19.013  10.784  0.2443  0.2038  0.1671
 2974W        W22508  18.051  17.483  10.378 -0.0613  0.1462 -0.1908
 2975W        W22509   5.755   4.900  13.959 -0.1193  0.0747 -0.2313
 2976W        W22510  16.367  14.652   3.392  0.1750  0.1612  0.0583
 2977W        W22511  16.063   9.908  14.334  0.0290  0.0104  0.0324
 2978W        W22512  12.070   5.872   3.301  0.3804 -0.0478  0.1731
 2979W        W22513   4.266   8.052  11.946 -0.2230 -0.0251 -0.0532
 2980W        W22514   0.875   6.299  11.224  0.0398  0.0877 -0.2514
 2981W        W22515  15.879  15.332  10.412  0.4530  0.2904  0.2067
 2982W        W22516  10.528  13.556  13.778  0.2437  0.3551 -0.1029
 2983W        W22517  13.621  13.964   3.433 -0.0175 -0.1919  0.2080
 2984W        W22518   1.627   8.333  13.660  0.0946  0.0812  0.1707
 2985W        W22519   4.985   0.721  13.574 -0.2126 -0.0212  0.0515
 2986W        W22520   9.334  15.985   2.088  0.0984  0.0147  0.1958
 2987W        W22521  15.708  10.451   2.144  0.1123 -0.0172  0.0909
 2988W        W22522   7.819   6.676   2.866 -0.1486  0.1134 -0.4710
 2989W        W22523   6.156  16.930   0.692  0.0328  0.1281 -0.0936
 2990W        W22524   9.810   2.207   1.352 -0.0125 -0.0607  0.0200
 2991W        W22525   5.821  16.314  12.871 -0.2063 -0.1466  0.1001
 2992W        W22526  18.903  11.529  13.316 -0.4517  0.1261 -0.0561
 2993W        W22527   6.266  18.881   1.188  0.1790  0.1383  0.2859
 2994W        W22528   2.183   9.242   1.438 -0.0295 -0.0187  0.1232
 2995W        W22529   6.672  19.118  12.903 -0.2110  0.0148  0.0601
 2996W        W22530  12.390  19.061   4.537  0.1203  0.2749 -0.1411
 2997W        W22531  14.809   9.134  11.920  0.1230  0.0155  0.0709
 2998W        W22532  15.397  10.977  13.286 -0.1136  0.2234 -0.1532
 2999W        W22533   1.925  14.858  12.809 -0.3375  0.0031 -0.0729
 3000W        W22534   3.611   9.872   1.787 -0.2487 -0.1551 -0.1454
 3001W        W22535  15.359   8.946   3.542 -0.0126  0.1110  0.2439
 3002W        W22536  11.363  15.801   4.013 -0.0448  0.0638  0.0535
 3003W        W22537  12.256  19.000   3.041  0.2344  0.2220 -0.1529
 3004W        W22538   0.850  12.410  14.085 -0.0695 -0.2120 -0.2786
 3005W        W22539   1.832   2.831   3.944  0.0368  0.0923  0.1734
 3006W        W22540  17.760   6.917   0.449  0.1105  0.2337 -0.1803
 3007W        W22541   9.282  12.435  11.523  0.0925 -0.0207 -0.1903
 3008W        W22542  15.469  10.121  10.323 -0.0770  0.1303 -0.1078
 3009W        W22543   3.715   4.693   0.441 -0.0172 -0.3045 -0.0405
 3010W        W22544   9.746   0.741   2.077  0.0180  0.1688  0.0906
 3011W        W22545   9.788  16.458   3.689 -0.3422 -0.0769  0.1249
 3012W        W22546   1.416   1.398   0.644  0.0159  0.3476 -0.0199
 3013W        W22547   5.132   8.235  12.580  0.0729 -0.1612  0.1470
 3014W        W22548   3.491  11.319  11.781  0.1341  0.3317 -0.0899
 3015W        W22549  13.067   8.195   0.211 -0.0065  0.4966 -0.3575
 3016W        W22550  17.670  12.950  13.617 -0.0599  0.0564 -0.1433
 3017W        W22551   6.445  15.287  12.445 -0.0496 -0.2785 -0.0821
 3018W        W22552  14.547   3.991   0.147  0.0907 -0.0315 -0.0437
 3019W        W22553   8.113   7.841  14.057 -0.0134 -0.1209 -0.1278
 3020W        W22554   4.134  18.895  14.335  0.1494 -0.1469 -0.1398
 3021W        W22555   9.303   4.435  12.631 -0.1006 -0.3071  0.3047
 3022W        W22556   0.909  17.928   2.855  0.2499  0.2761  0.1973
 3023W        W22557  17.193   3.799   5.291  0.1097  0.2251  0.0827
 3024W        W22558  14.633  17.872   2.807  0.0467  0.1131 -0.0165
 3025W        W22559  16.643   6.501   2.323 -0.2592 -0.2852  0.3168
 3026W        W22560   8.932   5.171  13.875  0.1164  0.1025 -0.2119
 3027W        W22561   7.817   4.072   2.435  0.0083 -0.1671 -0.0964
 3028W        W22562  13.981  12.148  10.890  0.2288 -0.2787 -0.0011
 3029W        W22563   5.097   8.639  10.870  0.3570  0.3775 -0.0556
 3030W        W22564  19.483  16.144  13.381  0.3064 -0.2671 -0.2077
 3031W        W22565   7.455  14.098   3.226 -0.2006  0.0617 -0.0099
 3032W        W22566   4.273  12.694  14.014  0.1548  0.0392  0.0206
 3033W        W22567  14.084   0.576   3.562  0.1607  0.0782  0.0755
 3034W        W22568   0.659   3.617   0.877  0.0089  0.4145 -0.2174
 3035W        W22569  10.499   1.120  12.092 -0.1348 -0.2051 -0.3450
 3036W        W22570   5.607   2.864  11.637 -0.0853 -0.0150 -0.2410
 3037W        W22571  12.958   9.780   2.984 -0.0045 -0.0984  0.0431
 3038W        W22572   5.094   0.850   2.165 -0.3187  0.0210  0.1181
 3039W        W22573   8.378   5.575   0.711  0.1053 -0.0814 -0.0232
 3040W        W22574   8.351   1.805   1.012  0.2217 -0.0193 -0.1205
 3041W        W22575  15.141   9.298   3.845  0.3530 -0.2791 -0.1044
 3042W        W22576  18.435   9.315  13.174 -0.2751  0.2800 -0.0631
 3043W        W22577   8.328   8.974  11.252 -0.0449 -0.1587  0.2325
 3044W        W22578   6.754   8.846   2.732 -0.0156  0.0817 -0.1546
 3045W        W22579   6.126   5.681  11.496 -0.0609  0.0539  0.0492
 3046W        W22580  18.206  11.403  10.825 -0.1588 -0.0625 -0.0599
 3047W        W22581   1.124   2.041   2.666 -0.1192 -0.2348 -0.2186
 3048W        W22582   1.778   4.287  13.568 -0.2935 -0.0381  0.3018
 3049W        W22583  13.763   3.189   2.133 -0.1401 -0.1504  0.1320
 3050W        W22584  11.469   5.131   0.552 -0.2323 -0.1599 -0.2319
 3051W        W22585   6.158  17.178  10.684  0.1354 -0.1432  0.2545
 3052W        W22586   6.607  19.164  10.912  0.0048  0.0443  0.3211
 3053W        W22587   5.175   1.779  12.557 -0.1071 -0.3421 -0.1247
 3054W        W22588  18.845   0.520   0.156  0.0031 -0.1472 -0.0284
 3055W        W22589  13.580  17.645  13.407  0.4276 -0.0258 -0.3355
 3056W        W22590  13.289   0.564  10.589 -0.2123 -0.1331  0.1755
 3057W        W22591  14.525  13.341  12.205  0.0660  0.2487 -0.1386
 3058W        W22592  18.796   9.438   4.174 -0.1301 -0.0371  0.1109
 3059W        W22593  15.696  12.353  11.093  0.0693 -0.1879  0.0528
 3060W        W22594  15.554   2.781   0.301 -0.2398  0.0096 -0.1119
 3061W        W22595   6.074   8.678   1.436  0.1320  0.3078  0.1646
 3062W        W22596   4.149  11.557   0.711  0.0326 -0.1638  0.1516
 3063W        W22597  10.256   6.629   0.809 -0.0119 -0.1068 -0.1432
 3064W        W22598   1.363   8.247   0.261 -0.0178 -0.1098 -0.0870
 3065W        W22599  14.722   4.077   4.228  0.0554  0.2860 -0.0239
 3066W        W22600  19.193  15.050   0.940 -0.0148 -0.0776 -0.1999
 3067W        W22601   7.357   2.404   2.387  0.0425  0.0560  0.1047
 3068W        W22602   1.531   0.867  14.302 -0.2175  0.2369 -0.0401
 3069W        W22603   2.313   5.417  13.767 -0.0764 -0.0867 -0.0438
 3070W        W22604   5.773   0.271   2.538  0.2036  0.0729  0.1375
 3071W        W22605   9.744  17.316  11.101  0.0951 -0.2042  0.1744
 3072W        W22606   2.751   1.376   0.260  0.1117  0.3589  0.1639
 3073W        W22607  18.936   2.677   9.442  0.0230  0.1999 -0.1587
 3074W        W22608  14.242  12.969  12.479 -0.2258  0.3738 -0.1907
 3075W        W22609   6.058   7.455   2.415  0.3352 -0.5204  0.0668
 3076W        W22610  11.748   6.373   1.228  0.0270 -0.2015  0.0413
 3077W        W22611   1.799   5.704  11.775 -0.2719 -0.2677  0.1684
 3078W        W22612  18.058  12.142   2.263  0.1586  0.1533 -0.1274
 3079W        W22613   5.843   6.476  11.192 -0.0926 -0.1370  0.0536
 3080W        W22614   6.312   5.176  14.067  0.1202  0.0312  0.2047
 3081W        W22615  18.126   0.512  10.614 -0.0460 -0.3320  0.1004
 3082W        W22616  19.506   4.087   2.667 -0.2119 -0.2392  0.0056
 3083W        W22617  15.275  19.384  13.972  0.0952 -0.0706 -0.0988
 3084W        W22618   7.905  16.703   1.876 -0.0147 -0.1974  0.0464
 3085W        W22619   3.145   3.328   0.567  0.1609 -0.0278 -0.1843
 3086W        W22620  14.269   0.978   3.899 -0.3367 -0.0238  0.0431
 3087W        W22621   9.136  15.968   0.137 -0.1019 -0.0839  0.0099
 3088W        W22622  13.170  18.557   1.272 -0.1407  0.2914 -0.2135
 3089W        W22623  14.111   7.505  12.211  0.1553 -0.2280  0.0112
 3090W        W22624  19.446  17.330   0.841 -0.1249 -0.3285 -0.1420
 3091W        W22625   1.283   7.502   2.102  0.1845 -0.1407  0.1593
 3092W        W22626   1.665   4.374  11.846 -0.0368  0.1310 -0.2713
 3093W        W22627  13.815  16.690   2.698 -0.1610  0.3916  0.0227
 3094W        W22628   5.914  18.977  10.268  0.2660  0.4695 -0.0544
 3095W        W22629  10.741   9.392   3.292 -0.0694  0.1958  0.0838
 3096W        W22630   9.660  16.338   2.228  0.0826 -0.2758  0.0527
 3097W        W22631   6.553   6.744  11.588  0.0694 -0.1011  0.2547
 3098W        W22632   9.682   5.392  11.516  0.3999  0.2968 -0.0568
 3099W        W22633  16.074  15.259   0.684 -0.3165  0.0009  0.1270
 3100W        W22634  18.037  15.750  13.121 -0.2718 -0.0766  0.0932
 3101W        W22635  16.038  16.205   0.309 -0.2011 -0.2639 -0.0674
 3102W        W22636   2.004   5.750   2.716  0.0577  0.2183  0.0131
 3103W        W22637  11.658  13.055   2.207  0.2020  0.1751 -0.0101
 3104W        W22638   3.950  11.114  14.058  0.0368 -0.0109  0.0567
 3105W        W22639  17.778  18.978  11.741  0.0515 -0.0044 -0.0306
 3106W        W22640  11.547  14.004   2.694 -0.2348  0.1932  0.0202
 3107W        W22641   0.182   3.372   1.090 -0.1136  0.3265 -0.1122
 3108W        W22642   2.127   9.212  12.795 -0.1327  0.0045  0.0867
 3109W        W22643  13.137  15.861  10.696 -0.0625 -0.0100 -0.1519
 3110W        W22644  17.733   3.644   0.212  0.3080 -0.0247  0.3281
 3111W        W22645  10.656  17.816   0.408 -0.3412  0.4284  0.0577
 3112W        W22646   4.554  14.571   1.310  0.3206 -0.1467  0.0476
 3113W        W22647   9.691  15.702   3.017  0.1991 -0.2133 -0.0903
 3114W        W22648  11.046  15.444   0.630  0.0878  0.4209  0.0451
 3115W        W22649  11.485  12.848   1.307  0.0078 -0.3018 -0.1185
 3116W        W22650   5.345   9.302   2.240 -0.1577 -0.1637  0.3521
 3117W        W22651   8.260   7.193  12.502  0.1183  0.0187 -0.0186
 3118W        W22652  12.873  11.276   1.413  0.2619 -0.1513  0.4035
 3119W        W22653  19.052   4.576  13.260 -0.1791  0.0612 -0.2165
 3120W        W22654  14.931   3.162  13.076 -0.1435  0.2428 -0.3294
 3121W        W22655  11.048  14.033   2.812 -0.0818 -0.3140 -0.2804
 3122W        W22656  12.736   1.454   2.298  0.0381 -0.4333 -0.1320
 3123W        W22657   8.034   0.193  13.420 -0.0987 -0.2872 -0.0933
 3124W        W22658  12.183  11.680  10.800 -0.3457  0.0319 -0.0197
 3125W        W22659  11.620  18.179  13.208 -0.0997 -0.0881  0.4215
 3126W        W22660   6.041   3.288   1.364  0.2381  0.1857 -0.0219
 3127W        W22661  11.397  11.078  11.675  0.0836  0.0778  0.2448
 3128W        W22662  10.929  18.741   2.698  0.1390 -0.2334  0.3208
 3129W        W22663  11.161  12.889   2.477  0.1724 -0.2047  0.1127
 3130W        W22664  15.159  17.591   0.213 -0.1619 -0.0675  0.1247
 3131W        W22665  14.264  11.813   3.483 -0.2198  0.1283 -0.1544
 3132W        W22666  14.113   6.849  14.343  0.0958 -0.1111  0.0091
 3133W        W22667   9.628   2.092   0.833 -0.0810  0.0689  0.0859
 3134W        W22668  15.565  16.051   2.653 -0.0874  0.0692  0.2179
 3135W        W22669   3.837   7.760  13.484  0.0062 -0.0930  0.0373
 3136W        W22670  13.573  18.969   2.961 -0.1468  0.3219 -0.0431
 3137W        W22671   3.862   3.042  11.808 -0.0841  0.0912  0.1461
 3138W        W22672   9.825   1.158  11.369 -0.3682  0.0561 -0.1020
 3139W        W22673   0.399   5.645   2.773 -0.0164 -0.2485 -0.0036
 3140W        W22674  18.413  16.302  10.567  0.1388 -0.1260 -0.0304
 3141W        W22675   0.694  17.032  11.907 -0.3832 -0.3748  0.1616
 3142W        W22676   0.626   7.628   3.721 -0.4752  0.0007  0.2046
 3143W        W22677  13.873   4.737   1.023  0.3919 -0.2327  0.0985
 3144W        W22678   9.433   2.955  11.765 -0.2828  0.1595 -0.1088
 3145W        W22679  10.625  14.122   0.834  0.1274  0.0599  0.0206
 3146W        W22680   4.295   4.799   3.218 -0.0481 -0.1781  0.0219
 3147W        W22681   2.758   0.430   1.492  0.2970  0.0107 -0.0438
 3148W        W22682   2.450  18.344  10.477  0.1566 -0.0808  0.0466
 3149W        W22683   6.763   6.999  14.178  0.1205  0.3711 -0.0489
 3150W        W22684   3.680   1.144   3.905 -0.1614 -0.2650  0.2254
 3151W        W22685   2.308  12.918   3.495  0.2141 -0.0003 -0.1831
 3152W        W22686   7.232   9.957   3.537  0.0665 -0.2214  0.1231
 3153W        W22687  10.653  14.777  13.221  0.1243 -0.1925 -0.0680
 3154W        W22688   0.082  13.399  13.543  0.1780 -0.0382 -0.1306
 3155W        W22689   0.243   5.018   0.101  0.1527 -0.0325  0.2226
 3156W        W22690   4.636  11.341  12.468  0.0094 -0.1201  0.0048
 3157W        W22691  19.125  16.830  11.231  0.0074 -0.3183 -0.1477
 3158W        W22692   7.736  17.672   2.309 -0.0111 -0.1148 -0.3211
 3159W        W22693   2.370  19.464  13.738  0.1202 -0.0827 -0.2544
 3160W        W22694  18.868  15.819   1.291  0.1284 -0.1344 -0.0954
 3161W        W22695  13.824  11.381   0.009 -0.1424  0.0525 -0.1037
 3162W        W22696  12.744  16.476   0.722  0.0591  0.0153  0.0611
 3163W        W22697   9.447   4.651  14.295  0.4538 -0.1419  0.0168
 3164W        W22698   2.150   5.253  12.647  0.4822 -0.3410 -0.2815
 3165W        W22699   3.845  17.615   0.178 -0.3792 -0.1207  0.1984
 3166W        W22700  11.016   3.483   9.908  0.1261  0.0767 -0.1786
 3167W        W22701  14.615   5.269   3.691 -0.2072  0.0288 -0.0497
 3168W        W22702  15.488  10.249  12.114  0.2560  0.0770  0.0127
 3169W        W22703   2.217   1.678   1.577 -0.2919  0.1369 -0.3582
 3170W        W22704  14.005  10.701  12.023 -0.4612  0.2477 -0.4688
 3171W        W22705   3.620  10.366   1.679 -0.1777  0.0654 -0.2465
 3172W        W22706   0.295  10.563   3.952  0.2098  0.0207 -0.1873
 3173W        W22707  10.253   6.534   2.614 -0.4863 -0.0257  0.0161
 3174W        W22708  17.006   2.641   2.028 -0.5873  0.1670  0.0657
 3175W        W22709   7.900  18.690  13.845  0.1034  0.3289 -0.5101
 3176W        W22710   7.395  11.236   2.008 -0.4574 -0.1002  0.1895
 3177W        W22711  10.010  17.323  13.785  0.0983  0.2514  0.0120
 3178W        W22712  13.782  18.955  13.067  0.2485  0.0355  0.1912
 3179W        W22713  10.677   1.359  14.079  0.0619  0.2724  0.1893
 3180W        W22714   7.307  15.540  12.892  0.0999  0.0875 -0.0768
 3181W        W22715  14.139  10.305  11.187 -0.3513  0.0851 -0.0861
 3182W        W22716   0.100  18.530  14.340  0.0184  0.2098  0.1402
 3183W        W22717   6.796   3.341   3.430 -0.2214  0.0005 -0.1131
 3184W        W22718  14.940   5.416   1.566  0.1056 -0.0697  0.1485
 3185W        W22719  11.526   8.736  11.959 -0.1132  0.1568  0.0198
 3186W        W22720  10.581  10.159   0.877  0.1907 -0.1548  0.3046
 3187W        W22721   3.977  12.869  11.558 -0.0932  0.1015  0.0999
 3188W        W22722   4.030   7.247   9.656  0.4363 -0.0615  0.1229
 3189W        W22723  17.911   7.489   2.470 -0.3244  0.1732 -0.1860
 3190W        W22724   0.419  14.201  10.505 -0.0592 -0.2222  0.2645
 3191W        W22725  16.635  10.711   3.895 -0.0566 -0.0807  0.1965
 3192W        W22726   5.199  11.558   1.200 -0.0298 -0.1276  0.1186
 3193W        W22727  18.743  19.115  12.701  0.3318  0.1728 -0.1042
 3194W        W22728   3.503   4.444   4.079  0.2661 -0.0119 -0.2802
 3195W        W22729  10.502   1.880   3.754  0.2570 -0.3900 -0.1490
 3196W        W22730   2.167  11.997  13.348  0.2471  0.1056 -0.0242
 3197W        W22731  12.272   3.511   0.063  0.1539 -0.5428  0.0925
 3198W        W22732  12.620  18.981  12.724  0.0301 -0.0493  0.0806
 3199W        W22733  13.153   4.105   1.420 -0.0398 -0.2102  0.1080
 3200W        W22734   3.313  13.247   3.064 -0.2904 -0.1512  0.2683
 3201W        W22735  12.977  18.013  12.894  0.3444 -0.1202 -0.3066
 3202W        W22736   8.663  15.625   2.769  0.0354  0.0296 -0.0825
 3203W        W22737  10.492   8.069   4.108 -0.1555  0.1138  0.0188
 3204W        W22738   1.568  14.732   0.811  0.0925  0.1212 -0.2024
 3205W        W22739  18.341   2.563  13.139  0.0365  0.0684  0.0831
 3206W        W22740   9.895   6.787   1.686 -0.2089  0.0421 -0.1457
 3207W        W22741  14.339   1.544   3.566 -0.4233  0.4147 -0.0298
 3208W        W22742  12.285   5.911   2.800 -0.0788 -0.0232  0.0479
 3209W        W22743  10.890   5.474   3.941 -0.2230 -0.1884 -0.1598
 3210W        W22744   8.713  11.062  11.564  0.3027  0.1211  0.2329
 3211W        W22745   0.198  12.088   2.358  0.2312  0.2218  0.1096
 3212W        W22746   3.851  10.177   2.097 -0.1160  0.0246 -0.1721
 3213W        W22747  12.343  17.096   1.357  0.1445 -0.1477 -0.2055
 3214W        W22748  16.694   1.447   3.346 -0.0240  0.0115 -0.0120
 3215W        W22749   9.881  15.202   1.577  0.0651  0.0463 -0.1252
 3216W        W22750   6.869   7.834   2.216 -0.0979 -0.0574  0.2953
 3217W        W22751   1.557   1.529  13.612 -0.0692 -0.1102  0.2199
 3218W        W22752  10.240   5.983  14.107  0.0487 -0.0791 -0.0425
 3219W        W22753  12.226   2.257  13.865 -0.1432 -0.1288  0.1829
 3220W        W22754  11.885   4.116   0.882 -0.2683 -0.2256  0.0557
 3221W        W22755  12.627   4.497   9.548 -0.0961 -0.1627 -0.1444
 3222W        W22756   2.292   6.528  10.636 -0.0433  0.0156  0.0589
 3223W        W22757   2.549   3.925   3.222 -0.0707 -0.1761  0.1695
 3224W        W22758   1.452  14.908  13.983  0.2752 -0.2493  0.1984
 3225W        W22759  11.414  15.238   3.425 -0.0398 -0.2756 -0.1296
 3226W        W22760   6.505  16.787   1.642  0.2623 -0.0623 -0.0676
 3227W        W22761  14.311  17.188   1.224  0.2440 -0.0467 -0.1835
 3228W        W22762  14.589  16.759  10.956 -0.1264 -0.0750 -0.0884
 3229W        W22763  18.747   2.521  11.943 -0.0259 -0.0938 -0.0195
 3230W        W22764   5.798  19.070  12.620  0.3316  0.1785 -0.3560
 3231W        W22765   3.750  18.066  13.647 -0.0424  0.1346 -0.1286
 3232W        W22766   9.089   7.136   1.040 -0.1732 -0.0333  0.2734
 3233W        W22767   7.729   3.310  14.168 -0.2549  0.0214  0.0045
 3234W        W22768   7.552   0.619  10.372 -0.1525  0.1552 -0.5083
 3235W        W22769  11.309  15.865   0.616 -0.1342 -0.0140  0.1553
 3236W        W22770  17.512  13.145  12.094  0.0219 -0.0383 -0.2318
 3237W        W22771  12.668  12.177  12.980  0.2364  0.0381 -0.1017
 3238W        W22772  12.164  17.954  10.612  0.2121  0.0227 -0.1469
 3239W        W22773   9.021   5.905   1.315 -0.2034 -0.2758  0.0705
 3240W        W22774   0.091  14.027   2.719  0.1025 -0.5468 -0.4787
 3241W        W22775   5.727  10.338  13.589  0.1336 -0.1141 -0.0575
 3242W        W22776   3.334   3.164  13.662 -0.1953 -0.2529  0.1499
 3243W        W22777   7.007   2.723   2.724 -0.0675  0.0012 -0.1472
 3244W        W22778  18.329  12.207  12.582  0.1396  0.1893 -0.2123
 3245W        W22779   3.846   8.206   3.007 -0.1923  0.0902  0.0454
 3246W        W22780   4.667   0.703   2.902  0.2084 -0.2321 -0.0054
 3247W        W22781   9.752   6.762   0.047  0.2007  0.0905 -0.0611
 3248W        W22782   8.162   1.846  14.229  0.1950  0.1735  0.2686
 3249W        W22783   9.220  14.855  11.267  0.0530  0.0082  0.1981
 3250W        W22784   5.080   3.931  12.142  0.1404  0.2783  0.0522
 3251W        W22785  14.602   5.991   1.487  0.0513 -0.0063  0.2666
 3252W        W22786   1.252   9.500   1.586  0.0539  0.2595  0.3058
 3253W        W22787  15.481  16.865   0.772  0.2277 -0.1198  0.2311
 3254W        W22788  12.215  14.304  12.210  0.0500 -0.2232 -0.1538
 3255W        W22789   9.654  10.410   0.698  0.1534 -0.0114 -0.3097
 3256W        W22790   1.910   8.021   1.590  0.2800 -0.0468  0.3417
 3257W        W22791   3.916   8.509   0.957  0.0003  0.1220  0.0477
 3258W        W22792  16.675   5.278   1.647  0.0673  0.5776 -0.3632
 3259W        W22793  10.441   7.421   2.630 -0.2184 -0.2349  0.0126
 3260W        W22794   9.719   5.942   3.340 -0.0905 -0.1271 -0.2270
 3261W        W22795   5.399  12.718  12.696  0.2860 -0.0616  0.3785
 3262W        W22796   0.374   9.313   2.883  0.0399 -0.2671  0.0708
 3263W        W22797  17.911   5.516  14.275 -0.1949 -0.1021  0.1207
 3264W        W22798   4.642   3.459  14.114 -0.1363  0.4573 -0.3232
 3265W        W22799   8.446  14.435   9.397  0.3853 -0.1192 -0.1111
 3266W        W22800  18.842   2.745   3.468 -0.1542  0.1065  0.1664
 3267W        W22801   2.245   8.875   1.830 -0.1126  0.0913  0.0772
 3268W        W22802   5.427  12.846   2.100 -0.1068 -0.2379 -0.3263
 3269W        W22803  14.436   7.646   2.387  0.0488  0.1566 -0.0159
 3270W        W22804   7.257   6.469  13.289 -0.3484 -0.0851  0.0080
 3271W        W22805  10.667   2.866  11.862 -0.2029  0.2168  0.3007
 3272W        W22806   2.469  19.324  14.254 -0.0899 -0.2523  0.2299
 3273W        W22807   8.432   3.306  13.904 -0.0219 -0.1422  0.0514
 3274W        W22808  12.166   5.971   0.551 -0.3483 -0.1949 -0.1572
 3275W        W22809  19.471   9.743   0.000 -0.1080  0.0313 -0.1738
 3276W        W22810  18.404   8.354  11.261 -0.0703  0.5495 -0.0285
 3277W        W22811   8.285  16.987  12.907 -0.0278 -0.1960 -0.1206
 3278W        W22812  10.846   1.754   1.957  0.1221  0.0513 -0.2772
 3279W        W22813   9.030   0.567  13.748  0.2208 -0.0620 -0.0535
 3280W        W22814   9.324  11.427   0.998  0.1217  0.0606 -0.0847
 3281W        W22815  17.363   9.708   1.170  0.0477 -0.0226  0.2207
 3282W        W22816   3.444  16.827  11.946 -0.1646  0.5327  0.2530
 3283W        W22817  11.850  10.140  13.085  0.1132  0.2179  0.0581
 3284W        W22818  18.339  17.466  14.219 -0.0926  0.0838 -0.2872
 3285W        W22819  17.743   0.698  12.329  0.3861  0.0492 -0.0166
 3286W        W22820   6.319  12.851   0.689 -0.0759 -0.1536  0.1292
 3287W        W22821  16.771   3.395  13.769 -0.1258 -0.1717  0.2133
 3288W        W22822   9.481   4.947  13.718 -0.0066  0.0031 -0.1538
 3289W        W22823   2.134  10.026  12.017  0.1303 -0.1736 -0.0893
 3290W        W22824  12.384   9.639   0.235 -0.1406 -0.0978  0.0632
 3291W        W22825  12.322   4.026   2.769  0.0449  0.2644 -0.2317
 3292W        W22826   0.420   5.443   0.283 -0.0491 -0.1143 -0.0451
 3293W        W22827  13.359  16.792   2.603 -0.0994  0.2298  0.3208
 3294W        W22828  18.694  11.723   2.412 -0.0909  0.2311  0.0710
 3295W        W22829   8.077  19.326   1.599 -0.2775  0.3287 -0.0692
 3296W        W22830  11.479  15.226  11.544  0.4705  0.0748  0.1722
 3297W        W22831   5.891  11.179   4.709  0.2336  0.0919  0.2212
 3298W        W22832  16.298  15.647  10.223  0.0405  0.0914 -0.1537
 3299W        W22833   9.331   7.311   9.036  0.1008 -0.2210  0.0921
 3300W        W22834  19.099   6.906   1.753 -0.0524  0.2716  0.0018
 3301W        W22835  17.711   5.670   3.039 -0.1284  0.1859  0.1056
 3302W        W22836  17.374   2.928  13.965 -0.0873 -0.1875 -0.0298
 3303W        W22837   9.627  13.620   4.451 -0.2661 -0.0038  0.0767
 3304W        W22838  14.962  15.840   1.957 -0.1754 -0.0349  0.0038
 3305W        W22839  19.517  13.649  11.259  0.2993 -0.3300 -0.1767
 3306W        W22840  12.144   6.393  11.975  0.0503  0.1368  0.2483
 3307W        W22841   3.616   0.325  11.421  0.1374  0.3109 -0.3469
 3308W        W22842  18.282   0.561  13.814 -0.3767 -0.1256  0.2342
 3309W        W22843  11.727   9.554  10.086  0.0406  0.1587 -0.0315
 3310W        W22844  16.091   2.836   2.191 -0.3082 -0.0863  0.0157
 3311W        W22845  17.898   7.950   2.258  0.2477  0.3346 -0.0819
 3312W        W22846   9.619   9.744   2.834  0.2719  0.1328  0.0558
 3313W        W22847  15.622   2.251  12.213 -0.1668  0.0899  0.0381
 3314W        W22848  10.797   0.311  12.948  0.1875  0.0754 -0.1362
 3315W        W22849   5.039   5.773   3.734 -0.1539 -0.0021  0.0194
 3316W        W22850   0.890   7.243  13.988 -0.2230  0.1034 -0.1295
 3317W        W22851   6.739  17.252  13.170 -0.0436  0.1945  0.1218
 3318W        W22852  18.087   3.092  11.838 -0.1794  0.0177 -0.3826
 3319W        W22853   4.985  14.438  12.790  0.0494 -0.0127  0.1805
 3320W        W22854   8.437  15.742  11.684 -0.0452  0.2112  0.0012
 3321W        W22855  13.904   0.513  10.020  0.1610 -0.3447  0.0663
 3322W        W22856   8.290   1.626   2.095 -0.1731  0.1346  0.0333
 3323W        W22857   5.121   7.051  13.917 -0.2369  0.1642 -0.0276
 3324W        W22858   1.250  11.423  13.311 -0.0503  0.0988  0.0550
 3325W        W22859  13.640   2.955   0.830  0.2121  0.0918 -0.1034
 3326W        W22860   7.363  16.769  12.118  0.2162  0.1525 -0.1939
 3327W        W22861  19.445  11.360  11.283  0.0594 -0.0800 -0.0975
 3328W        W22862   4.681   9.508  10.571 -0.0549  0.2115 -0.0069
 3329W        W22863  10.003   6.193   2.345  0.1171  0.0994 -0.0292
 3330W        W22864   0.490   6.087   2.062  0.3091  0.1534 -0.1038
 3331W        W22865  16.482  16.287  11.129  0.0899  0.3272 -0.0468
 3332W        W22866  13.612  14.075  14.148 -0.2051 -0.1332 -0.0024
 3333W        W22867   4.392   6.085  10.678  0.1599  0.0901  0.1400
 3334W        W22868   4.450   6.147  13.474 -0.0272 -0.2462  0.0412
 3335W        W22869  15.674   4.841  12.549  0.0820  0.0261  0.0278
 3336W        W22870  10.934   8.049  10.016  0.2620  0.2145  0.3331
 3337W        W22871   9.249   1.256  11.569  0.0572 -0.1280  0.0220
 3338W        W22872   3.240  19.131   3.195  0.0809 -0.0019  0.1048
 3339W        W22873   4.225   1.928   9.922  0.3401  0.0093  0.2187
 3340W        W22874   5.743  16.261   3.397  0.0169 -0.3026 -0.2752
 3341W        W22875   6.755   5.777   3.310  0.0984  0.3841  0.2518
 3342W        W22876   8.702  12.419  12.082 -0.1217 -0.0799 -0.2103
 3343W        W22877   3.307   8.556  12.712  0.3126 -0.0956 -0.2409
 3344W        W22878   6.250  17.405  14.258  0.4348  0.2500  0.1659
 3345W        W22879  10.737   3.595   1.227  0.2092 -0.2794 -0.0110
 3346W        W22880  10.696   6.264  14.177 -0.1412  0.3370  0.2175
 3347W        W22881  18.130  16.069  12.088 -0.0863  0.0360 -0.0646
 3348W        W22882   9.013   9.907  11.083 -0.2148  0.2195  0.0805
 3349W        W22883   1.596   8.096  10.820  0.1720  0.2302  0.0174
 3350W        W22884  16.450   7.404  10.991 -0.2482  0.0318  0.0570
 3351W        W22885  18.786   5.669   1.769 -0.1894 -0.0168 -0.0434
 3352W        W22886  11.256  15.370  12.341 -0.2763  0.0710  0.0047
 3353W        W22887   0.876   0.992   2.567  0.1586  0.1011  0.0275
 3354W        W22888  14.175  14.171  14.206  0.0919  0.1474  0.0105
 3355W        W22889   4.422   8.084   2.957  0.0500  0.1105 -0.1726
 3356W        W22890  18.184  18.342   4.621  0.0103  0.0131  0.0044
 3357W        W22891  15.170   4.051   0.821 -0.1473 -0.1384 -0.4129
 3358W        W22892  18.478  18.144   1.243 -0.1566  0.0074  0.1558
 3359W        W22893   0.770  16.784   0.857 -0.0761  0.0434 -0.2930
 3360W        W22894  18.269  16.543   2.468  0.0255 -0.2449  0.0345
 3361W        W22895  17.830   0.782   1.547 -0.0186  0.0032  0.1399
 3362W        W22896  16.342  18.742   3.474 -0.0550 -0.0483  0.0577
 3363W        W22897   1.098   4.026  13.612 -0.0674  0.1420  0.2419
 3364W        W22898   3.187  12.608  11.656 -0.1157 -0.0956 -0.1891
 3365W        W22899   3.829   1.304   8.847 -0.3183 -0.0085  0.1848
 3366W        W22900  17.891  11.113   5.043  0.2517  0.0181  0.0510
 3367W        W22901  18.564   8.903  14.217  0.0826 -0.2761  0.0932
 3368W        W22902   1.814   1.564   3.961  0.3346  0.0926  0.0938
 3369W        W22903   4.574   5.600   3.479  0.0008  0.0040 -0.1360
 3370W        W22904  13.899   6.971  13.202  0.0408 -0.1550  0.0426
 3371W        W22905   9.070   2.332   0.871  0.3570 -0.1785 -0.0195
 3372W        W22906  18.083   6.365  11.879 -0.2431 -0.3472  0.1890
 3373W        W22907   4.497  19.181  12.586  0.1723  0.0904 -0.0605
 3374W        W22908   1.865  17.921   9.946 -0.2300  0.0494  0.1382
 3375W        W22909   0.670   6.988   2.595  0.1335 -0.0942  0.3304
 3376W        W22910  11.162   7.466  10.921  0.1706 -0.0309 -0.2337
 3377W        W22911  16.401  19.204   2.735  0.1458  0.2048  0.2689
 3378W        W22912  10.734   2.166   3.313 -0.2728  0.4507  0.0980
 3379W        W22913   9.382  13.034   1.269  0.2201 -0.0946  0.0723
 3380W        W22914   1.345  14.349  11.060 -0.0740 -0.0644 -0.2222
 3381W        W22915   9.489   4.181   4.297  0.1910  0.1007 -0.2777
 3382W        W22916   3.296  16.488  14.353  0.1235 -0.3495 -0.1073
 3383W        W22917   4.953   2.773  10.853 -0.0047 -0.0120  0.2185
 3384W        W22918  13.844   5.379   3.512  0.0094 -0.0942 -0.1402
 3385W        W22919  16.898  11.976  12.889  0.0861  0.0695 -0.0543
 3386W        W22920  10.032   4.534  10.683 -0.0235 -0.0299  0.1145
 3387W        W22921   6.715  18.944   3.705  0.1587  0.1163  0.0638
 3388W        W22922   9.192   9.081   3.044  0.2002  0.1597 -0.1764
 3389W        W22923   0.044   9.014  11.227  0.1226  0.0901  0.2701
 3390W        W22924  17.662   9.786  13.666  0.2416 -0.0277  0.2838
 3391W        W22925   1.511  18.618   3.599 -0.0144 -0.0726  0.0401
 3392W        W22926  11.691  15.416   2.328  0.1790  0.0715 -0.1000
 3393W        W22927   8.557   1.664  10.347  0.0636 -0.0087  0.0959
 3394W        W22928  14.379   0.999   2.015 -0.1604  0.1008 -0.1348
 3395W        W22929  12.739  14.213   3.952  0.1110 -0.1089  0.1779
 3396W        W22930   3.172  13.704  11.808  0.0467 -0.0669  0.0430
 3397W        W22931  13.888   3.692  11.056  0.1015 -0.0375  0.0165
 3398W        W22932   7.855  15.491   3.465  0.0789  0.3705  0.0600
 3399W        W22933  16.422   5.222  11.369 -0.5506  0.0196 -0.1622
 3400W        W22934  10.648  16.313  11.707 -0.2100 -0.0385 -0.0486
 3401W        W22935   2.254  18.592  11.279 -0.0087  0.1737  0.0952
 3402W        W22936  10.550  10.450   2.254 -0.3360  0.1612  0.0543
 3403W        W22937   0.706   2.726   1.704 -0.0175 -0.1369  0.0396
 3404W        W22938   0.074   1.618  14.177 -0.2139  0.1066 -0.0891
 3405W        W22939   7.522   5.787   3.149  0.0522 -0.3927  0.0609
 3406W        W22940   8.194   5.058  11.035  0.0628 -0.2327  0.1197
 3407W        W22941  15.152  17.567  11.356  0.0241  0.1044  0.1301
 3408W        W22942   1.041   3.528   0.540 -0.0788 -0.0493  0.5214
 3409W        W22943   1.109  13.666   4.039 -0.2180  0.0506  0.1577
 3410W        W22944  12.247  17.541   2.725 -0.0229 -0.0185 -0.0181
 3411W        W22945   0.634   6.978  13.148  0.1593  0.1842 -0.1631
 3412W        W22946   9.972  10.758  10.741  0.2265  0.4877  0.1966
 3413W        W22947   4.958  11.250   4.416 -0.0777 -0.2370  0.2164
 3414W        W22948   5.875  15.761  11.879  0.3158  0.2622 -0.0909
 3415W        W22949  16.952  18.396   9.763 -0.0563  0.2144 -0.0370
 3416W        W22950   3.475  10.777   0.766  0.1208 -0.0609  0.2472
 3417W        W22951  14.207  12.811   0.446 -0.3632 -0.1052 -0.0341
 3418W        W22952   4.620   1.690   9.547 -0.0412  0.1244 -0.0227
 3419W        W22953   2.994  12.784   1.126 -0.1105  0.0530  0.0121
 3420W        W22954   8.485  16.629  13.980  0.0799  0.3228  0.1183
 3421W        W22955   2.834   1.209   9.114  0.0856  0.0154  0.1351
 3422W        W22956   3.938  19.086   3.829 -0.1372 -0.2158  0.2937
 3423W        W22957   2.344  12.447   2.589  0.0902  0.0000  0.1990
 3424W        W22958  16.462   5.437  14.092  0.1638 -0.0095  0.2083
 3425W        W22959  13.826   9.925  14.108  0.3404 -0.2030 -0.3152
 3426W        W22960   8.004   7.053  11.734  0.2523  0.2133  0.2897
 3427W        W22961   1.053  16.402  12.635  0.0463 -0.1502 -0.3370
 3428W        W22962   1.748  16.644  10.260 -0.0444 -0.0949 -0.2119
 3429W        W22963   4.828   2.182  11.587 -0.2144  0.1886  0.0145
 3430W        W22964  14.444   5.570   0.195  0.0342 -0.0792 -0.0932
 3431W        W22965  11.386  12.555  13.748 -0.3422  0.0972  0.0221
 3432W        W22966  17.018  17.037  13.664  0.0189 -0.3473 -0.1486
 3433W        W22967  17.992  14.789   4.966  0.1413  0.1400  0.4129
 3434W        W22968   4.417   5.963   2.109 -0.1990 -0.0117  0.0826
 3435W        W22969   7.562  17.241   1.850  0.1689 -0.0532  0.1788
 3436W        W22970  14.684  18.866  10.902 -0.0831 -0.0928 -0.0460
 3437W        W22971  12.327  16.280  12.359 -0.1841 -0.0820 -0.0680
 3438W        W22972  13.521  16.649  11.784 -0.3966 -0.2305  0.0017
 3439W        W22973  10.279   3.252   0.868  0.1882  0.2635 -0.0644
 3440W        W22974  10.257   8.310   0.563 -0.4180 -0.0111  0.1285
 3441W        W22975  19.416   2.247   2.147  0.2025  0.1323  0.0730
 3442W        W22976   6.189   3.290  11.329 -0.1451  0.2202 -0.0978
 3443W        W22977   1.338  15.887   3.633 -0.1991  0.1925 -0.0270
 3444W        W22978   5.945   9.901   0.916  0.1760  0.1060 -0.1725
 3445W        W22979  13.271   2.317   1.512 -0.1439  0.0753  0.2398
 3446W        W22980  14.192  12.537   1.710 -0.0950  0.1580 -0.1868
 3447W        W22981  10.168   0.667  10.941 -0.0346 -0.0570 -0.0098
 3448W        W22982   5.569   1.228  10.915 -0.0075 -0.0755  0.1076
 3449W        W22983  11.617   9.284   9.581  0.0064  0.0737  0.2623
 3450W        W22984   2.622  15.878  14.177 -0.2840 -0.0402  0.0726
 3451W        W22985   2.864  10.797  13.151 -0.1396  0.2116  0.0429
 3452W        W22986   2.909  11.292   4.678 -0.2183 -0.1755 -0.0240
 3453W        W22987   8.089  16.300   0.677 -0.2260 -0.2638  0.0806
 3454W        W22988   5.306   3.064  13.020  0.0565  0.1336 -0.0618
 3455W        W22989  19.086  15.135   2.530  0.1245  0.0393 -0.3024
 3456W        W22990  18.731   8.076   1.677 -0.0439  0.1574  0.2335
 3457W        W22991   8.503   5.494  12.725  0.0155  0.2218  0.0958
 3458W        W22992  12.825  17.843   4.288 -0.2696  0.1139 -0.1736
 3459W        W22993  10.823   1.588   3.566 -0.0426  0.0509 -0.0555
 3460W        W22994  18.532   8.973   2.420  0.0059  0.1272  0.1207
 3461W        W22995  15.380   8.557  10.585 -0.1373  0.1527  0.2442
 3462W        W22996   6.291   5.286   0.589 -0.2513  0.1227 -0.0650
 3463W        W22997   3.933   1.610  11.488 -0.2835  0.0552  0.2237
 3464W        W22998   7.567  13.928   1.405  0.2559  0.1978  0.3579
 3465W        W22999  16.186  18.713   2.697  0.1087 -0.3279  0.0747
 3466W        W23000  16.536  14.243  12.305 -0.0128  0.1255  0.1643
 3467W        W23001  11.264  13.431   3.656 -0.1698 -0.3633 -0.1538
 3468W        W23002   6.071  14.630   2.437 -0.0950 -0.1450  0.2086
 3469W        W23003  10.328  10.674   4.050  0.1108 -0.1647  0.0016
 3470W        W23004   1.996   9.931  13.655 -0.0614 -0.2336 -0.0611
 3471W        W23005  11.022  15.355   2.473  0.3226 -0.1018 -0.1142
 3472W        W23006  10.095  13.096   2.862  0.0285  0.2986  0.1571
 3473W        W23007  17.545   4.847   3.212 -0.1953 -0.0129 -0.1718
 3474W        W23008   1.377  19.408  11.019  0.0782  0.1930  0.0779
 3475W        W23009   7.816  11.481   1.585  0.0392  0.0332 -0.0985
 3476W        W23010   7.000  11.260  12.530 -0.1469 -0.0554 -0.0096
 3477W        W23011   2.345   1.171   3.313  0.0373  0.2005  0.0227
 3478W        W23012   6.673  14.177   3.508  0.2192  0.0353  0.0802
 3479W        W23013   3.866  10.553  11.030  0.2421  0.1185 -0.0511
 3480W        W23014   3.080  15.464   3.166 -0.1379 -0.1353  0.1849
 3481W        W23015  16.495   3.724   2.380  0.0028  0.0448 -0.0577
 3482W        W23016   5.441  11.347   1.924 -0.1258  0.0830 -0.3528
 3483W        W23017  18.868   9.468  11.060 -0.2532  0.1225 -0.2222
 3484W        W23018  17.585  13.309   1.622 -0.0967 -0.2084 -0.0855
 3485W        W23019   4.447  13.622   0.293 -0.1301 -0.1401  0.1521
 3486W        W23020  10.816   8.283  11.545 -0.0233  0.0185  0.4198
 3487W        W23021   2.775  15.847  11.003  0.0172  0.1828  0.0818
 3488W        W23022  11.630   7.787   0.584  0.1754  0.2219 -0.1069
 3489W        W23023  10.476  10.343  12.612 -0.0885  0.1642  0.1701
 3490W        W23024  11.560  12.582  13.266 -0.0865 -0.3518  0.2026
 3491W        W23025  16.412   8.444   2.066  0.0468  0.0636  0.0410
 3492W        W23026  11.133   8.967  12.204 -0.1700  0.3199 -0.1586
 3493W        W23027  16.993  13.399   9.418  0.0083 -0.0974  0.1079
 3494W        W23028  14.933   4.609  11.174  0.0365 -0.1063  0.0639
 3495W        W23029   7.111   6.786  13.802  0.2070 -0.0691 -0.0582
 3496W        W23030   6.247   4.155  14.334  0.0012  0.2200 -0.0848
 3497W        W23031   8.402  12.689  14.311  0.1617  0.2054  0.3844
 3498W        W23032  10.078  13.645   1.199  0.0828  0.0947 -0.2162
 3499W        W23033   2.424  15.738   2.989 -0.2853 -0.0065 -0.1726
 3500W        W23034  16.545  11.010  14.014 -0.3392 -0.0175  0.0131
 3501W        W23035   3.843   5.506  10.986  0.1882  0.1783 -0.1764
 3502W        W23036   5.581   6.602  14.373  0.4400  0.0097 -0.0469
 3503W        W23037  11.604   5.684   3.272  0.3984  0.1078  0.0697
 3504W        W23038  15.499   5.846   9.827  0.0250  0.0635 -0.0084
 3505W        W23039  13.852   0.256   3.237 -0.1915 -0.1703 -0.2197
 3506W        W23040  13.192   0.574   2.535  0.2524  0.0068 -0.1803
 3507W        W23041  11.988  18.511  11.234  0.2598 -0.1060 -0.1851
 3508W        W23042  11.746  10.945   3.595  0.2076 -0.3067 -0.2189
 3509W        W23043   1.765  19.495   3.052  0.0340  0.1283 -0.0051
 3510W        W23044   4.604   2.993   0.015  0.0464  0.0113 -0.0210
 3511W        W23045  19.126  11.771   3.960 -0.3703  0.0081 -0.1339
 3512W        W23046   3.772  15.611  11.449  0.1534  0.0722  0.1748
 3513W        W23047   8.964   1.529   0.080  0.1957  0.1390  0.0866
 3514W        W23048  13.587   6.577   1.358  0.1741 -0.2084  0.3241
 3515W        W23049   3.238  14.538  12.388 -0.0424  0.3359  0.0403
 3516W        W23050   0.646   3.696  14.272  0.0721  0.0023  0.2109
 3517W        W23051  10.228  17.595  10.938  0.2376  0.1862  0.0029
 3518W        W23052   2.395  13.672  12.867  0.1443 -0.0481 -0.1278
 3519W        W23053   2.413   7.253  11.662  0.1643  0.1786 -0.2505
 3520W        W23054  10.087   3.845  14.023 -0.0582  0.1720  0.1018
 3521W        W23055   6.970  14.104   0.619 -0.0867  0.1159 -0.0500
 3522W        W23056   2.792   8.224   0.476 -0.2733  0.2077  0.0389
 3523W        W23057  13.541   3.331   3.561 -0.0339  0.1737 -0.2144
 3524W        W23058  16.039   6.502  12.762 -0.0033  0.0342  0.2864
 3525W        W23059  10.404   9.926   3.908  0.1016 -0.1491  0.0710
 3526W        W23060  14.035   1.103  13.082 -0.0005  0.0507  0.0218
 3527W        W23061  10.336  17.639   3.212 -0.1434  0.1122  0.1575
 3528W        W23062  14.462   3.527   0.273 -0.1310  0.2553  0.1649
 3529W        W23063   3.881  13.809   1.130 -0.0021  0.0106 -0.0911
 3530W        W23064   4.014  10.623  13.897  0.0705 -0.0434  0.0062
 3531W        W23065   8.184  11.996   0.389 -0.2589  0.3214  0.1860
 3532W        W23066   7.307  10.633  14.078  0.2067 -0.1882  0.2770
 3533W        W23067  12.134   4.419   3.125 -0.1836 -0.2111 -0.0587
 3534W        W23068   3.315   8.444   0.683 -0.1581  0.0376 -0.3190
 3535W        W23069   8.455  12.147  14.364 -0.2319 -0.0240  0.0811
 3536W        W23070   6.641   4.004   2.867 -0.2761 -0.0819 -0.1992
 3537W        W23071  12.798   9.592  10.062 -0.1884  0.0964  0.1332
 3538W        W23072  14.838   5.075  11.176  0.0263 -0.1089  0.0050
 3539W        W23073  13.537   0.100  14.215  0.3642  0.0945 -0.3366
 3540W        W23074  16.820  10.764   0.020 -0.2283 -0.0934  0.0575
 3541W        W23075   7.678  12.515   3.432  0.2942 -0.2301  0.3221
 3542W        W23076  10.333   3.976  10.798  0.3007 -0.0693  0.2813
 3543W        W23077  18.158  14.119   0.599 -0.0955  0.0617  0.0469
 3544W        W23078  17.442  18.406  13.617 -0.0691 -0.0013  0.0404
 3545W        W23079  15.872   6.816  11.471 -0.0643  0.2543 -0.0908
 3546W        W23080   5.396   0.543   1.936  0.2105 -0.0592 -0.0224
 3547W        W23081   8.632   8.165  12.250  0.2204  0.0047  0.1545
 3548W        W23082   8.152   8.333  14.019  0.2932  0.0473  0.3993
 3549W        W23083  15.327   7.770   0.946  0.2291  0.0729  0.1118
 3550W        W23084  16.507  14.493   1.272  0.2617 -0.3118 -0.1604
 3551W        W23085   9.023  17.316   2.627  0.4252  0.1758 -0.1358
 3552W        W23086  18.840  16.736   2.510  0.0740  0.2333 -0.0990
 3553W        W23087   0.473   5.015   0.663 -0.1727  0.0782  0.0379
 3554W        W23088   7.425  12.025   0.801 -0.1926 -0.0082  0.2684
 3555W        W23089  16.702  10.638  10.175 -0.4138  0.0731  0.0404
 3556W        W23090  13.398   4.497   2.450 -0.1998  0.2674 -0.3002
 3557W        W23091   1.600   7.005   0.909 -0.2696 -0.2414  0.0077
 3558W        W23092  17.781  18.438  11.623  0.2091 -0.0309 -0.1671
 3559W        W23093   6.020  11.177  11.547 -0.0005  0.0111 -0.0864
 3560W        W23094  14.563   6.426   1.152 -0.3446 -0.1998 -0.1185
 3561W        W23095  15.402   5.528   4.129  0.0639 -0.1906 -0.0521
 3562W        W23096   7.506   5.638  10.596  0.2672 -0.1934  0.1036
 3563W        W23097  14.559   2.641   0.572  0.3394  0.0114 -0.1249
 3564W        W23098   1.380  10.410   3.752  0.0589 -0.0624  0.1557
 3565W        W23099   1.564   1.787   2.490 -0.2749  0.2505 -0.1388
 3566W        W23100   8.841  12.934   1.236 -0.1291  0.1617 -0.3913
 3567W        W23101  11.645  13.785   1.750  0.0431 -0.1808  0.0780
 3568W        W23102  10.224  16.515   0.973  0.0544 -0.0331  0.0792
 3569W        W23103   7.175   7.026   3.178 -0.2536 -0.0105  0.1083
 3570W        W23104   2.064   2.945  12.046 -0.0543 -0.1640  0.1382
 3571W        W23105  15.104  15.350  12.492 -0.1757 -0.1042  0.2943
 3572W        W23106   4.501  15.304   2.538  0.0578 -0.1345 -0.0979
 3573W        W23107  11.598  11.939  10.594  0.1185 -0.0949  0.0299
 3574W        W23108  16.954   3.300  10.258 -0.0197 -0.1438  0.0472
 3575W        W23109  14.891   4.361   3.764 -0.0610 -0.2441 -0.4235
 3576W        W23110   4.337  14.418  11.815  0.0579 -0.0552 -0.0609
 3577W        W23111  12.869   0.572   2.955 -0.2847  0.0252  0.0263
 3578W        W23112  12.639   9.438   2.186 -0.0800  0.1322 -0.1986
 3579W        W23113  15.986  15.606   2.099 -0.0949 -0.0451  0.0071
 3580W        W23114   9.814  14.804   1.280  0.0880  0.3317  0.1756
 3581W        W23115  12.995  11.557  14.016  0.1360 -0.2698 -0.1792
 3582W        W23116  19.297  12.263  10.656 -0.3415  0.0198  0.0516
 3583W        W23117  10.462  19.250  13.510 -0.1293  0.3092 -0.3555
 3584W        W23118  15.571  19.234  13.595  0.0444 -0.0485  0.1513
 3585W        W23119   2.432   6.294  11.123 -0.0810  0.2266 -0.2188
 3586W        W23120  14.844   0.597   2.329  0.1122  0.0824  0.2385
 3587W        W23121   8.084   3.394  12.928  0.1552 -0.2832  0.1979
 3588W        W23122   6.024  13.855  10.771 -0.1150 -0.1139 -0.1741
 3589W        W23123  19.154  11.457   0.236 -0.0279  0.1099  0.3678
 3590W        W23124  16.049   8.703   2.909 -0.1140  0.3224  0.1336
 3591W        W23125   6.555   2.752  10.773 -0.0478 -0.0597  0.0413
 3592W        W23126  12.588   1.357  12.521 -0.0647  0.0421 -0.1106
 3593W        W23127   6.076   9.309  12.437  0.0887  0.2439 -0.0430
 3594W        W23128  14.437  15.876  13.424 -0.1792 -0.0335 -0.0222
 3595W        W23129  10.325  13.985   0.274  0.2097  0.1631  0.2052
 3596W        W23130   3.197  19.270  10.461  0.0066 -0.2187 -0.0833
 3597W        W23131   9.636   5.353   0.908 -0.0638 -0.2322  0.0628
 3598W        W23132   3.057   7.234  11.590  0.0269  0.0502  0.2489
 3599W        W23133   6.550   2.801   4.286 -0.4372 -0.0342  0.1735
 3600W        W23134  12.163   9.503   1.994  0.0390 -0.1369 -0.0006
 3601W        W23135   5.343   3.351   0.209 -0.0546 -0.1556 -0.4855
 3602W        W23136  13.142   6.988  10.955  0.2950 -0.2673 -0.2578
 3603W        W23137  17.304   2.848   2.989  0.0339 -0.0809  0.2096
 3604W        W23138  18.950  13.608  12.805  0.0970  0.0697 -0.1639
 3605W        W23139   1.772   0.479  12.187 -0.0493  0.1085  0.1334
 3606W        W23140   9.370  18.201   0.447 -0.0986 -0.1038 -0.0100
 3607W        W23141  16.955   3.615   9.842 -0.0211 -0.0007 -0.2288
 3608W        W23142  14.888   9.010   0.091  0.2872  0.0833 -0.1715
 3609W        W23143  18.785   2.084   3.574  0.1577  0.2105 -0.2342
 3610W        W23144   1.502  16.727   3.123 -0.5391 -0.0242  0.0134
 3611W        W23145   2.347  17.086  13.567  0.3048  0.1699  0.2033
 3612W        W23146  13.578   8.230   0.379 -0.1666 -0.2703 -0.2457
 3613W        W23147   5.540   9.874   0.639  0.4820  0.1865  0.1975
 3614W        W23148  17.311   8.439   9.645  0.0507 -0.1461 -0.1394
 3615W        W23149   4.099  16.824  14.152 -0.0870 -0.1398  0.1711
 3616W        W23150   3.136  12.753   3.033  0.0899 -0.3583  0.1178
 3617W        W23151   3.219  12.529   1.507 -0.0327  0.0245  0.0629
 3618W        W23152  10.472  13.368  12.531 -0.0888 -0.1488  0.1158
 3619W        W23153  16.722  13.423  11.416  0.0099  0.2248  0.1344
 3620W        W23154  13.225   0.987   3.731  0.2876  0.2370 -0.4017
 3621W        W23155   2.227   5.134  11.116 -0.1265  0.0934 -0.1185
 3622W        W23156   5.025   2.651  13.977  0.0028 -0.0702 -0.4465
 3623W        W23157  18.553   0.204  13.591  0.0599  0.1671 -0.3011
 3624W        W23158  18.441  17.307   1.076  0.1386 -0.1067 -0.4075
 3625W        W23159   9.498  11.326   4.297 -0.2178 -0.1292  0.0300
 3626W        W23160  11.137  15.574  11.819  0.4542  0.1709  0.1445
 3627W        W23161   1.831   6.906  11.998  0.1321 -0.0711 -0.2008
 3628W        W23162  15.496  14.089   1.056 -0.1313  0.0989 -0.0264
 3629W        W23163  19.188   3.959  13.766  0.0603  0.4455 -0.2607
 3630W        W23164  14.553  10.614   0.678  0.2351  0.0477  0.0700
 3631W        W23165   6.025  16.944   1.813  0.1641 -0.0330  0.0348
 3632W        W23166   9.572  10.605   1.242 -0.0971  0.1425  0.0990
 3633W        W23167   3.203   3.405  14.221 -0.0192  0.2228 -0.2391
 3634W        W23168   6.970  17.692   2.525  0.0531  0.1175  0.3808
 3635W        W23169  14.291   5.664  11.046  0.1137 -0.0331  0.3982
 3636W        W23170   7.949   6.063   4.058 -0.0662 -0.1653 -0.0869
 3637W        W23171   5.388   7.565  13.832 -0.3412  0.2633  0.1090
 3638W        W23172   8.445   9.804  11.049 -0.2597 -0.1255  0.0692
 3639W        W23173  12.179  14.725  11.037 -0.0138 -0.1023  0.0985
 3640W        W23174   2.810   8.876  14.352  0.1245  0.0296  0.0270
 3641W        W23175  16.784  12.452   3.026 -0.3225  0.0005  0.2069
 3642W        W23176  12.816   4.186  11.717 -0.0583 -0.2345  0.3075
 3643W        W23177   5.588  10.578   4.401  0.0732  0.0964  0.0439
 3644W        W23178  12.867   7.799   4.152  0.1325 -0.4150 -0.0236
 3645W        W23179   9.555  12.246   3.985 -0.4406  0.2498  0.2165
 3646W        W23180  17.031   3.199   0.766  0.1232 -0.0553 -0.4177
 3647W        W23181  17.479   5.171  12.381  0.1160 -0.0751 -0.0206
 3648W        W23182   2.779  10.908   1.415  0.0185  0.0239 -0.1342
 3649W        W23183   5.983  12.097   2.554 -0.0355  0.2011 -0.0898
 3650W        W23184  17.142   8.595   0.005 -0.0634  0.2875  0.0393
 3651W        W23185   6.348  15.572   3.065 -0.1668 -0.1821  0.3027
 3652W        W23186   7.676  15.221  12.979 -0.1630  0.2326  0.3240
 3653W        W23187  16.883   9.828   1.034  0.1700 -0.3091 -0.5065
 3654W        W23188   2.118  18.275   2.860  0.0906  0.1778 -0.0262
 3655W        W23189  16.739  17.329   2.652 -0.2446 -0.0051 -0.0937
 3656W        W23190   5.054  14.276   2.133 -0.0206  0.1231 -0.0959
 3657W        W23191  14.426  18.595   2.805  0.0396 -0.0433 -0.1443
 3658W        W23192   5.685  19.044   2.397  0.1086  0.1019 -0.2022
 3659W        W23193  13.825   7.380  10.482  0.0177 -0.1324 -0.0242
 3660W        W23194   2.857   5.941  11.220 -0.1131 -0.0328 -0.2734
 3661W        W23195   4.929  12.236  10.919 -0.0655  0.1273 -0.2148
 3662W        W23196  13.869  15.382   0.112 -0.0826 -0.0393  0.1790
 3663W        W23197   6.605   7.000   2.864  0.0571 -0.1447 -0.2136
 3664W        W23198  18.716  18.202  11.344 -0.1044 -0.0258  0.2371
 3665W        W23199   0.289   8.049   5.061  0.1096  0.0936  0.2204
 3666W        W23200   6.196  12.048   3.420  0.2648 -0.0048 -0.3023
 3667W        W23201   6.796  16.334   1.179  0.1206 -0.2860  0.2360
 3668W        W23202   8.883   5.678   0.799  0.2057  0.2956 -0.2080
 3669W        W23203   6.995   0.234   4.120  0.2654 -0.1100  0.4837
 3670W        W23204   2.912   4.234  13.032 -0.2275  0.1715 -0.0426
 3671W        W23205  13.385   5.490   2.513  0.0123 -0.0319 -0.0436
 3672W        W23206  14.148  16.836  11.801  0.1374 -0.0109 -0.0477
 3673W        W23207  13.112  16.017  11.685  0.2994  0.2106  0.0012
 3674W        W23208  14.994  10.634   2.825  0.1778  0.2367 -0.0757
 3675W        W23209   8.087   9.960   2.316  0.1429  0.1720  0.1463
 3676W        W23210  10.633  12.073   2.797 -0.1893  0.3372 -0.1495
 3677W        W23211  15.524   7.774   2.145  0.0710 -0.0095  0.0611
 3678W        W23212   7.161   8.552  12.423 -0.1596  0.2527 -0.2110
 3679W        W23213   0.466   0.992  11.139  0.1070  0.1220  0.0146
 3680W        W23214  15.305  10.454  13.886  0.0284 -0.0144  0.1901
 3681W        W23215   5.833   0.085  12.767 -0.2689  0.1266  0.1205
 3682W        W23216   1.083   9.558  12.728 -0.0013 -0.2435  0.0198
 3683W        W23217  13.740   3.150  11.041  0.2756 -0.1210 -0.0363
 3684W        W23218   0.520  10.337  13.950 -0.1518  0.0568 -0.3279
 3685W        W23219  15.992   5.808   3.087 -0.1246  0.1357 -0.1879
 3686W        W23220   1.030   8.711   0.491  0.1541  0.0569  0.0902
 3687W        W23221   4.836   8.220  13.397 -0.1583 -0.1003  0.0153
 3688W        W23222  19.068   9.847   2.842  0.1665  0.1629 -0.0542
 3689W        W23223  10.665   2.901   2.426 -0.0769  0.1053 -0.0257
 3690W        W23224   1.919   0.869   3.143  0.3337 -0.2212 -0.1950
 3691W        W23225  14.210  17.217  11.327 -0.1001 -0.3968  0.2103
 3692W        W23226   6.616  13.734  12.741  0.1846  0.1265  0.0016
 3693W        W23227  15.726   0.358   2.219 -0.1685 -0.1487 -0.1285
 3694W        W23228  14.634  12.109   0.594 -0.0228  0.0911 -0.0488
 3695W        W23229   0.399  18.582  12.643  0.0547  0.0201  0.1938
 3696W        W23230   4.628  14.886   0.447  0.0814  0.2021 -0.0310
 3697W        W23231  17.599   4.530   0.584  0.1079  0.1260  0.1948
 3698W        W23232  13.350  14.569   2.099  0.2276  0.2857 -0.3877
 3699W        W23233   7.397  16.887  11.152  0.2219  0.3405 -0.0901
 3700W        W23234  12.931  18.222   0.492 -0.1571 -0.2135 -0.1534
 3701W        W23235   0.700  14.441  14.170 -0.0120 -0.1167  0.3876
 3702W        W23236   4.035  15.178   2.874  0.0414  0.0079  0.4557
 3703W        W23237   1.589   4.173   4.416 -0.1221 -0.1116  0.0319
 3704W        W23238  15.915  16.868  12.463  0.1553  0.5206 -0.2665
 3705W        W23239  16.772   6.559  11.819 -0.2053  0.0158  0.2157
 3706W        W23240  14.139   3.388  12.400  0.0594 -0.3154  0.1362
 3707W        W23241  18.459   7.719  12.106 -0.0707 -0.2697  0.0781
 3708W        W23242  18.500  12.139  13.852  0.1739  0.1395  0.2108
 3709W        W23243   7.360   6.314  12.792 -0.0127  0.1021 -0.0515
 3710W        W23244  16.542   1.415   1.695 -0.0334 -0.1097 -0.0992
 3711W        W23245  18.837   4.756  10.995  0.0335  0.3527  0.0172
 3712W        W23246   2.525   3.040  10.941  0.0446  0.0876 -0.1222
 3713W        W23247  15.576  10.255   3.694 -0.2042 -0.3529 -0.1815
 3714W        W23248  10.473  18.308  14.155 -0.0685 -0.1628  0.0209
 3715W        W23249   6.189   3.756   0.220  0.1940  0.0298  0.1011
 3716W        W23250   8.712  10.101  12.977 -0.0838  0.0734 -0.0407
 3717W        W23251  16.185   8.450  13.448 -0.0207 -0.1114 -0.0455
 3718W        W23252  13.800   7.216  11.770 -0.0316  0.2013 -0.3598
 3719W        W23253  18.997  12.965   3.047  0.4731 -0.2113  0.3740
 3720W        W23254   5.087   0.906  12.642  0.1381 -0.1137  0.2489
 3721W        W23255   7.000  14.911   0.238 -0.0455 -0.1261  0.0121
 3722W        W23256   9.553   4.417   9.415 -0.0166  0.3455 -0.2053
 3723W        W23257  16.131   9.329  14.009  0.3694 -0.3772 -0.1741
 3724W        W23258  18.389   5.912  11.774  0.0782 -0.1362 -0.0487
 3725W        W23259   9.496  17.236  13.472  0.1167 -0.0581 -0.1445
 3726W        W23260  12.781   1.404   3.105 -0.0084  0.0967  0.0441
 3727W        W23261   3.124  14.718  13.582  0.2523 -0.1986 -0.0094
 3728W        W23262   7.594   3.123  12.720  0.1083  0.0441 -0.1648
 3729W        W23263   5.545  18.834  12.281 -0.0509  0.2469 -0.0531
 3730W        W23264   2.459  12.291   0.125 -0.2264  0.0848 -0.2673
 3731W        W23265  19.357  13.125  11.876 -0.2472 -0.2753  0.1116
 3732W        W23266   4.536  18.207   1.254 -0.0398  0.1866 -0.2634
 3733W        W23267  17.881   5.538   0.876 -0.1026 -0.0268 -0.1340
 3734W        W23268   8.869   7.334   3.553 -0.0183 -0.2693  0.0650
 3735W        W23269   6.030  16.046   2.967 -0.1755  0.0459  0.0825
 3736W        W23270   9.830  16.926  13.599 -0.0957  0.3260  0.0273
 3737W        W23271   5.250  16.447   3.558  0.0610 -0.1217  0.2577
 3738W        W23272   0.461   0.190   1.767 -0.0169  0.0500  0.0610
 3739W        W23273  19.169  17.167   3.321 -0.1067 -0.0422 -0.2203
 3740W        W23274   3.981   2.133  13.901  0.0451  0.3759 -0.0041
 3741W        W23275  16.323  16.164  11.580 -0.0190 -0.2081 -0.2571
 3742W        W23276  11.320  12.350  11.356 -0.1360 -0.0250  0.3618
 3743W        W23277   4.913   3.058   0.419 -0.2652 -0.0156  0.3003
 3744W        W23278   2.236  17.152   3.217 -0.0922  0.4336 -0.0675
 3745W        W23279   7.156   7.191   1.407 -0.1874  0.0167  0.1215
 3746W        W23280   8.723   0.319   0.837 -0.2159  0.1252 -0.2139
 3747W        W23281   7.859  10.695   0.317  0.0109 -0.3405 -0.1670
 3748W        W23282   1.743  14.674   0.315  0.2771  0.0954  0.1491
 3749W        W23283  16.267   2.029   0.598 -0.0776 -0.1069  0.1824
 3750W        W23284  18.499   2.383   1.364  0.1210 -0.1391 -0.1566
 3751W        W23285  17.842  11.313   3.770 -0.0878 -0.4309 -0.0418
 3752W        W23286   8.956  14.415  12.758  0.0403  0.0241 -0.1205
 3753W        W23287   9.722  17.531  10.660 -0.0453 -0.0347 -0.2946
 3754W        W23288  18.953  15.436   0.054  0.0081  0.0431  0.0606
 3755W        W23289  18.819  10.680  13.951 -0.0754 -0.0130  0.0348
 3756W        W23290   9.905  10.228  11.462  0.1721  0.2524  0.2866
 3757W        W23291   3.496  18.969   3.609 -0.1469 -0.0525  0.0885
 3758W        W23292   4.500  10.859  11.697  0.1727  0.0948 -0.1680
 3759W        W23293   3.852   3.090  13.735  0.3185  0.1646 -0.2484
 3760W        W23294  14.583  10.293   2.784  0.0817  0.0735 -0.0287
 3761W        W23295  14.472  14.688  11.851 -0.1001 -0.1230  0.0220
 3762W        W23296   9.331  18.482   2.631 -0.1209  0.1631  0.2158
 3763W        W23297  18.288   7.161   0.621 -0.2441  0.5024  0.2460
 3764W        W23298   0.997   8.256   2.992 -0.0525 -0.0877  0.1178
 3765W        W23299  14.322   6.243   2.131 -0.1708  0.4261  0.0170
 3766W        W23300  15.694  18.748   3.990 -0.3655 -0.1633  0.0064
 3767W        W23301   0.521   7.765  11.075  0.3035  0.0793  0.3828
 3768W        W23302  19.165  15.568   0.915 -0.1521 -0.2486  0.0574
 3769W        W23303   0.448  12.618  10.527 -0.0701  0.4087  0.0230
 3770W        W23304   7.706   5.269  12.323  0.0171 -0.0568  0.0660
 3771W        W23305  12.122   1.772   1.777  0.0491  0.2286  0.1963
 3772W        W23306   9.845  18.004  10.539  0.0532  0.0945  0.1034
 3773W        W23307   9.505  14.551   0.051  0.3435 -0.1064  0.0668
 3774W        W23308   1.650  16.100  10.396  0.2262 -0.0534 -0.1255
 3775W        W23309  13.393   7.245   3.748 -0.4218 -0.0770  0.1362
 3776W        W23310   4.243  13.048   2.506 -0.0819  0.1568  0.0370
 3777W        W23311   1.992  18.116  13.367 -0.1338 -0.0568 -0.2098
 3778W        W23312   7.591   9.573  14.016 -0.1583 -0.0724 -0.2921
 3779W        W23313   1.084  11.594   2.368 -0.1219 -0.1964  0.3032
 3780W        W23314  11.571  10.997  11.117  0.0516  0.0082 -0.1991
 3781W        W23315  18.137  17.651   8.965  0.2533  0.0334  0.1228
 3782W        W23316  13.426  13.016   4.937 -0.0851  0.0770 -0.0874
 3783W        W23317  17.931  14.369   0.987  0.3368 -0.1062  0.0296
 3784W        W23318  18.799   0.395   2.854  0.2709  0.3349 -0.1219
 3785W        W23319  12.223   6.253   2.430  0.0078 -0.3936  0.0645
 3786W        W23320  18.108   3.724   3.198 -0.0000  0.0215  0.1784
 3787W        W23321   1.338   5.643   3.172 -0.2781  0.1356 -0.0335
 3788W        W23322  16.023  19.072  12.168  0.2173  0.0960  0.1957
 3789W        W23323  13.309   0.457  11.604 -0.0055 -0.0504 -0.1654
 3790W        W23324  14.004   0.907  10.332 -0.0583  0.2011 -0.2145
 3791W        W23325  13.327   6.123   2.404 -0.0955 -0.0091  0.1833
 3792W        W23326  17.678   8.866   3.071 -0.1256 -0.0079  0.2434
 3793W        W23327   1.769  14.299   0.891 -0.0184  0.0506  0.0182
 3794W        W23328  14.989   2.858   1.057 -0.2843  0.0386 -0.0134
 3795W        W23329  13.951   5.999  11.243  0.0257  0.2606 -0.1927
 3796W        W23330  14.438   4.300  13.165  0.2077 -0.0994 -0.0324
 3797W        W23331   1.234  14.827  11.917  0.2453  0.4189 -0.3204
 3798W        W23332  15.640   3.975  11.176 -0.0287 -0.1731  0.2068
 3799W        W23333  13.501  14.004  12.691 -0.3627 -0.2413  0.3619
 3800W        W23334   6.584  13.865   2.675  0.0191  0.0010 -0.1699
 3801W        W23335   4.351  16.001   9.791  0.0734 -0.0935 -0.1867
 3802W        W23336   6.604  14.982   3.003 -0.0838  0.0576  0.3272
 3803W        W23337  11.529  17.808  11.544  0.1447  0.2658 -0.3841
 3804W        W23338  13.356  17.008   0.522  0.2112  0.1397 -0.1359
 3805W        W23339  18.436   6.368   0.666  0.1385  0.1756  0.1296
 3806W        W23340   6.377  12.031   2.951  0.2770  0.0301 -0.2214
 3807W        W23341   4.546  13.506  11.407 -0.0435  0.0916  0.0847
 3808W        W23342   3.061  14.586  11.334 -0.2769 -0.1889  0.3312
 3809W        W23343  10.230  13.062  12.168 -0.1007  0.1977 -0.2255
 3810W        W23344   7.909  14.669   3.061 -0.3006  0.2136 -0.0764
 3811W        W23345  16.916   0.205  12.302  0.0316  0.3967 -0.2206
 3812W        W23346   0.025   7.402   2.964  0.0837  0.0921 -0.0963
 3813W        W23347  13.341  12.393  10.422 -0.1565  0.4107 -0.0148
 3814W        W23348   6.624  13.568  11.641  0.0263  0.3317  0.0448
 3815W        W23349  15.193   4.963  11.551 -0.2775 -0.2158 -0.0277
 3816W        W23350  19.088  16.767   2.919 -0.0588 -0.2104 -0.3400
 3817W        W23351  15.170  11.918  10.470  0.1592 -0.1271 -0.2319
 3818W        W23352   3.244   5.396   2.266  0.2613  0.0675  0.0682
 3819W        W23353   1.004  19.464  10.646 -0.0252 -0.1470  0.2248
 3820W        W23354  16.269  18.298   2.414  0.2018 -0.2147  0.0448
 3821W        W23355   8.088   9.561  13.823 -0.0398 -0.1974  0.0095
 3822W        W23356   4.903   8.041   2.795  0.0036 -0.0861 -0.0564
 3823W        W23357   0.703   1.050   0.334 -0.0311  0.0616  0.0873
 3824W        W23358   5.116   8.918   2.464 -0.1997 -0.0642 -0.2180
 3825W        W23359   6.986  11.900   0.240 -0.3331  0.0029 -0.3537
 3826W        W23360   6.788   7.860  12.740 -0.0238 -0.0990  0.0344
 3827W        W23361   4.908   1.266  12.223  0.0414  0.2591  0.1005
 3828W        W23362   0.434   7.600   0.462 -0.0563 -0.1315 -0.0292
 3829W        W23363   3.727   1.458   3.471  0.3184  0.2146 -0.0174
 3830W        W23364  17.906   2.155   3.771  0.0745 -0.3122 -0.0419
 3831W        W23365   8.079  12.842   0.281 -0.0418  0.1028  0.3543
 3832W        W23366  15.357  14.116   0.511  0.0338 -0.2729 -0.0105
 3833W        W23367   4.667  13.694  12.801  0.3709  0.1381 -0.0367
 3834W        W23368  11.521  12.527  12.211  0.0636 -0.0925 -0.1001
 3835W        W23369   8.419  12.116   2.156 -0.2695 -0.1345  0.0456
 3836W        W23370   1.979  18.859   9.302  0.2763 -0.1213  0.1343
 3837W        W23371  19.207  12.668  14.078  0.2842  0.0776  0.0171
 3838W        W23372  10.593   4.063   4.376 -0.1245  0.1087 -0.0032
 3839W        W23373   0.500   0.892  12.365 -0.1073 -0.2440  0.2043
 3840W        W23374  13.875   6.428   1.817  0.0067  0.3288  0.1025
 3841W        W23375  12.419   7.043   9.911 -0.2052 -0.0900  0.0110
 3842W        W23376   9.356  11.808   3.499 -0.0732  0.0301 -0.1050
 3843W        W23377  16.398   7.625   3.356 -0.1900 -0.0372  0.0222
 3844W        W23378   2.400   8.616   0.300 -0.1435  0.0169  0.0310
 3845W        W23379  10.070   5.000   1.761  0.3223  0.2050 -0.0415
 3846W        W23380  18.417  13.078   9.994 -0.1730  0.0252  0.0677
 3847W        W23381   0.751  17.465   3.164  0.0039 -0.1447  0.1363
 3848W        W23382  14.487  13.043  11.696 -0.4751  0.1024 -0.3101
 3849W        W23383  15.810   6.366   4.535  0.1796  0.0531 -0.1725
 3850W        W23384  13.639  16.592   2.205  0.0122  0.0586  0.1941
 3851W        W23385   6.718  16.659  11.528  0.2250  0.0062 -0.0213
 3852W        W23386  18.698  13.389  14.075 -0.5258 -0.0762  0.0220
 3853W        W23387  11.223  18.731   9.022  0.0569  0.0573  0.2047
 3854W        W23388   3.371   1.160  11.603  0.0078 -0.0470 -0.3499
 3855W        W23389  16.903  18.614  11.175 -0.1750 -0.0977  0.1395
 3856W        W23390  15.395   2.050  11.722  0.2823  0.0720  0.0149
 3857W        W23391  14.881  11.046  13.637  0.0933 -0.1982 -0.1142
 3858W        W23392   6.855  15.213   1.941  0.4760 -0.0801 -0.1495
 3859W        W23393   7.794  16.703  13.074  0.1979  0.0889  0.1912
 3860W        W23394   6.261  17.065  13.221 -0.0364  0.3104  0.0284
 3861W        W23395   5.526  12.808  11.811 -0.2789  0.2221 -0.1395
 3862W        W23396  11.827  17.382   3.683 -0.0886  0.1587 -0.1267
 3863W        W23397  18.767  14.387  13.979 -0.0388  0.2151  0.0738
 3864W        W23398  17.536  17.001  14.097  0.1442 -0.2304  0.3556
 3865W        W23399   8.572  19.240   1.503 -0.0443  0.2880 -0.0628
 3866W        W23400   4.269   7.041   2.619  0.3026  0.0568  0.2552
 3867W        W23401   4.748  13.217  12.739  0.4255 -0.1720 -0.0204
 3868W        W23402  10.465  17.480   0.722 -0.2157 -0.0019 -0.1232
 3869W        W23403   1.470  18.410  11.748  0.2520 -0.0947  0.1548
 3870W        W23404  15.964   4.239   0.284 -0.1716 -0.2275 -0.1205
 3871W        W23405  18.708  12.203   1.936  0.0907  0.0806  0.1230
 3872W        W23406  12.825   7.497   0.537 -0.2209  0.2903  0.1762
 3873W        W23407   2.104   9.058   0.862  0.0454 -0.0448 -0.3114
 3874W        W23408   8.189  10.406  12.113  0.1241 -0.0418  0.1493
 3875W        W23409  19.494   6.113   2.177  0.0672  0.3788 -0.4533
 3876W        W23410  12.173  16.510   1.488 -0.1238  0.0915 -0.0684
 3877W        W23411  16.562   4.661  12.283 -0.0335 -0.1372 -0.2052
 3878W        W23412   1.722   7.444   0.636 -0.2417 -0.1689 -0.1196
 3879W        W23413  17.525  10.231   2.049  0.0354  0.0044  0.1478
 3880W        W23414   5.482  17.460  13.825 -0.1275  0.4849  0.0820
 3881W        W23415  18.215   9.249   2.764  0.2136  0.2056 -0.0717
 3882W        W23416   4.106   2.050   1.983  0.0386  0.0633 -0.0702
 3883W        W23417  14.349  11.409  12.688 -0.2313  0.0782 -0.0129
 3884W        W23418   2.870   3.589   3.081 -0.0337 -0.0261  0.0397
 3885W        W23419  13.302  18.829  13.272 -0.0686  0.2348 -0.2655
 3886W        W23420  17.311  11.957   0.406 -0.2026  0.2249  0.4768
 3887W        W23421  11.111  17.980   2.844 -0.1247  0.1656 -0.0314
 3888W        W23422   2.193  13.302   0.334 -0.2510 -0.1301  0.3252
 3889W        W23423  16.259   8.197   4.172  0.2340 -0.0791 -0.1127
 3890W        W23424   8.654  13.628   3.461  0.1919  0.1918  0.2404
 3891W        W23425  10.877  10.390   1.632 -0.0589  0.2381  0.1622
 3892W        W23426   6.143   1.650   2.382 -0.0600  0.2674 -0.0948
 3893W        W23427   5.032   0.265  10.271  0.0984 -0.1578  0.0639
 3894W        W23428  15.451   3.877   2.880 -0.1441  0.0843 -0.0888
 3895W        W23429   5.734   3.267  10.616 -0.1227  0.0341 -0.1321
 3896W        W23430  12.689  11.274   1.898 -0.0256 -0.0572 -0.3492
 3897W        W23431  16.265  14.802   2.942 -0.3310 -0.4914  0.1929
 3898W        W23432   3.564  19.054  10.207 -0.2529  0.1208 -0.1049
 3899W        W23433  10.667   5.843   1.704  0.0418  0.1723  0.0167
 3900W        W23434   5.135   6.868   0.032 -0.0415  0.2094 -0.3304
 3901W        W23435   5.101   2.845   1.007  0.0783  0.0689 -0.3356
 3902W        W23436   0.401   1.851   3.692  0.0475  0.1757 -0.2373
 3903W        W23437  13.071   0.062   2.701 -0.0504 -0.0593 -0.3867
 3904W        W23438  18.165   5.734   0.280 -0.2513  0.2712  0.2941
 3905W        W23439  19.024  16.230   0.492 -0.1146 -0.3967 -0.0501
 3906W        W23440   5.388  17.847  11.616  0.3511  0.1886 -0.2449
 3907W        W23441  15.239  11.341  10.646  0.1064  0.0241  0.4335
 3908W        W23442   2.081   2.900  11.459  0.0991  0.0833 -0.2025
 3909W        W23443  18.513   7.290  11.926 -0.2979 -0.0020 -0.3509
 3910W        W23444  15.216   5.614   0.661 -0.0181  0.1839  0.2247
 3911W        W23445   7.464   3.967   3.099  0.0457  0.0870 -0.2252
 3912W        W23446   3.024  12.342  12.268  0.3065 -0.1752  0.0493
 3913W        W23447  16.251   1.819   9.267  0.0171 -0.0684  0.0101
 3914W        W23448   9.546  13.120   1.715  0.1445 -0.0381  0.1472
 3915W        W23449   4.525  13.438   1.246  0.4322  0.1731 -0.0938
 3916W        W23450   5.916   7.590  12.321  0.2196  0.1351  0.2706
 3917W        W23451   3.926   2.636   0.504 -0.1203  0.0240  0.0332
 3918W        W23452  17.437   1.884   0.825  0.0943 -0.2600 -0.2186
 3919W        W23453   3.839   6.259   3.781  0.1519 -0.3095  0.0671
 3920W        W23454   8.220   9.289   2.302 -0.0217  0.1124  0.1932
 3921W        W23455  15.306  12.553   0.695  0.2142 -0.0116 -0.3464
 3922W        W23456  19.484  16.493  12.970 -0.0423  0.1610 -0.1445
 3923W        W23457   8.491   6.229   1.489  0.0184 -0.0510  0.1887
 3924W        W23458   0.975   1.142   0.791 -0.2013  0.2023 -0.0838
 3925W        W23459   6.736   4.782   2.227 -0.1794  0.3828  0.0441
 3926W        W23460   0.259  17.356   4.407  0.0611 -0.2636  0.0309
 3927W        W23461  15.446   3.433  13.383 -0.0215  0.2817 -0.3312
 3928W        W23462  15.695  19.110  14.048 -0.2619 -0.2860  0.0628
 3929W        W23463  16.017  13.955  11.537  0.0362 -0.2285  0.0471
 3930W        W23464   0.500  14.310   0.613  0.0905 -0.2663  0.1679
 3931W        W23465   6.473  14.428   5.344 -0.2417 -0.0926 -0.0644
 3932W        W23466  13.517   2.012  12.763  0.0673 -0.0508  0.1102
 3933W        W23467   2.089  17.659   0.467 -0.0278 -0.5413 -0.1615
 3934W        W23468  11.460   8.605   3.199  0.0345 -0.2179  0.1340
 3935W        W23469   1.975   3.754  13.400 -0.0240 -0.2449  0.3212
 3936W        W23470   0.548  19.467  12.107 -0.0469 -0.2311 -0.1540
 3937W        W23471   8.659  14.372   2.597 -0.0873  0.1643  0.2260
 3938W        W23472   4.111   6.001   0.594  0.0290  0.2762 -0.4154
 3939W        W23473   7.752   4.734  11.184  0.0265 -0.3077 -0.2973
 3940W        W23474   5.341  16.934   2.018  0.0177  0.2325  0.2959
 3941W        W23475   9.061  16.449   3.884  0.1394  0.0061 -0.0243
 3942W        W23476  15.645  18.892   0.166  0.3490  0.1032  0.4084
 3943W        W23477  11.244  11.903  12.540 -0.0260 -0.5645 -0.0256
 3944W        W23478  17.834   1.772  13.786 -0.1598 -0.2562 -0.0654
 3945W        W23479  13.368  18.662  10.179 -0.0169 -0.0068  0.1894
 3946W        W23480  18.660  12.091   1.401 -0.0164 -0.3020  0.0360
 3947W        W23481  17.868   2.857  14.046 -0.1990 -0.3813  0.0854
 3948W        W23482  16.734  12.721  13.869  0.0032 -0.1880 -0.3038
 3949W        W23483   3.326   7.377   3.324 -0.0249  0.4351  0.1631
 3950W        W23484   7.962  18.201   1.734  0.4034  0.1823  0.2262
 3951W        W23485  10.467  13.824  14.190  0.1694 -0.2031 -0.0244
 3952W        W23486  10.282  17.100  11.174 -0.2130  0.3576 -0.2449
 3953W        W23487   6.384  14.277   0.232  0.0192 -0.2291  0.0615
 3954W        W23488  10.897  18.930  13.306  0.0709 -0.2065  0.0484
 3955W        W23489  19.332   4.135  14.180 -0.0278  0.0328 -0.0659
 3956W        W23490   2.471  18.988   4.890 -0.0055 -0.1870 -0.1459
 3957W        W23491   3.564  14.498  13.380 -0.0765  0.0986 -0.0205
 3958W        W23492  18.198  18.114   9.142  0.2544  0.3785 -0.1476
 3959W        W23493  12.084   8.663  10.752  0.2153  0.2192 -0.1325
 3960W        W23494  18.533   8.451   1.305  0.2719 -0.0534 -0.0211
 3961W        W23495  10.934   2.111  12.139 -0.0707 -0.3087 -0.3664
 3962W        W23496   6.186   9.813   2.341  0.0947  0.0227  0.1812
 3963W        W23497  10.788   0.735   9.689 -0.0935  0.1373  0.3552
 3964W        W23498  15.205   0.303   1.477 -0.2927  0.1018 -0.0462
 3965W        W23499  16.622   1.962  13.956 -0.1371  0.1688  0.0276
 3966W        W23500   1.683  13.368  11.654 -0.2333  0.1755  0.2603
 3967W        W23501   7.567  16.213  11.753 -0.1838 -0.0512  0.0304
 3968W        W23502  12.023   4.388   0.306  0.1640  0.0261  0.0408
 3969W        W23503   9.400  14.404  11.332  0.0489 -0.1491  0.1090
 3970W        W23504   9.646   3.566   2.665  0.1444 -0.3309 -0.1148
 3971W        W23505  11.768  14.932  13.030  0.2667 -0.1011  0.2885
 3972W        W23506   6.494   2.134  13.907  0.2790 -0.2105  0.3634
 3973W        W23507  16.191  11.338   3.273  0.0549 -0.1591  0.0168
 3974W        W23508   1.084  17.280   4.028 -0.0050  0.2842 -0.0303
 3975W        W23509  16.040  18.050  11.951 -0.0701 -0.1745  0.2871
 3976W        W23510  14.401   9.146  13.212 -0.2339 -0.2325  0.0693
 3977W        W23511  12.250   1.173   0.366 -0.1206 -0.4857  0.1978
 3978W        W23512  11.925  19.260   0.644  0.3496 -0.0289  0.0238
 3979W        W23513   0.697  12.333   0.812 -0.3435 -0.1143  0.4786
 3980W        W23514  16.113  17.085  11.641  0.4242  0.0444  0.0035
 3981W        W23515   8.926  17.409   3.835  0.1138  0.1537 -0.1980
 3982W        W23516  17.715   7.263   3.659 -0.2351 -0.0460  0.0226
 3983W        W23517   3.686  11.290   2.528 -0.0652  0.1129  0.0625
 3984W        W23518  16.265  14.815   2.001  0.2361 -0.1108  0.2584
 3985W        W23519   4.521  16.540  13.978  0.1499 -0.2665  0.1242
 3986W        W23520  14.406  12.064   1.864  0.0899  0.2144  0.0929
 3987W        W23521   5.069   0.796  14.203 -0.1488 -0.0710 -0.2031
 3988W        W23522   9.105   3.111   3.055 -0.1521  0.1181  0.1313
 3989W        W23523   4.690  16.362  12.645 -0.1755  0.2027  0.1270
 3990W        W23524   4.759   9.648  13.095 -0.0254 -0.0543 -0.2160
 3991W        W23525  19.484   4.009  11.346 -0.2849 -0.1914 -0.0419
 3992W        W23526  12.795  12.373  13.473  0.1036  0.1375 -0.0938
 3993W        W23527   7.445  18.572   2.729  0.3586 -0.1185 -0.0383
 3994W        W23528  13.669  18.616   3.317  0.0143  0.0861  0.1587
 3995W        W23529  19.450  12.600  13.601  0.0175  0.0869  0.4266
 3996W        W23530   9.597  14.348   0.867  0.0030 -0.3766 -0.1084
 3997W        W23531   1.697   6.599   3.514  0.1864 -0.4858 -0.0337
 3998W        W23532   9.738   5.440   4.131  0.0190  0.0069  0.2636
 3999W        W23533  11.442   4.186  13.808  0.2937  0.2827  0.1256
 4000W        W23534  15.958  19.111   0.840 -0.0626  0.0523 -0.0725
 4001W        W23535  13.317   7.864  13.120  0.2220 -0.2007 -0.0697
 4002W        W23536  16.201  17.560   2.258  0.3110 -0.3929  0.1487
 4003W        W23537  17.400   8.493   3.853 -0.1720  0.0725  0.1412
 4004W        W23538  15.224  17.041  11.874  0.1520 -0.3139  0.0296
 4005W        W23539  12.894   7.188   1.924 -0.2162  0.3113  0.2398
 4006W        W23540  17.913  10.700  14.053 -0.2314 -0.0029 -0.3535
 4007W        W23541   1.688  11.899   3.720 -0.0536  0.0968  0.1242
 4008W        W23542  18.534   8.949  11.475 -0.2996  0.1402  0.3080
 4009W        W23543  11.878  13.947  12.151  0.3441 -0.0640 -0.2669
 4010W        W23544  11.481   4.737  10.913  0.0481 -0.4331  0.0388
 4011W        W23545  10.705  11.702  12.161 -0.2303 -0.1579  0.1030
 4012W        W23546   7.072   4.252   3.057 -0.0075  0.0601  0.2062
 4013W        W23547  18.104   5.888  13.183 -0.1238  0.1202 -0.2245
 4014W        W23548  17.388  14.795  10.376  0.4153  0.1545 -0.0291
 4015W        W23549   4.093  17.981  14.326 -0.0519  0.0229  0.0044
 4016W        W23550   1.086  17.794  12.892  0.1263  0.2220 -0.1715
 4017W        W23551   7.614  16.870   3.654 -0.1433  0.0519 -0.1050
 4018W        W23552  16.666  11.592  13.610 -0.5948  0.1894 -0.1870
 4019W        W23553  11.882  15.184   0.902 -0.0312  0.0229  0.1819
 4020W        W23554   9.205  15.933  12.930  0.1619 -0.0461 -0.0030
 4021W        W23555   3.164   0.992   3.161  0.1012 -0.3961 -0.1508
 4022W        W23556   5.493  11.492   2.979 -0.1117 -0.1652  0.2535
 4023W        W23557  17.683  15.704   3.796  0.0724  0.2358 -0.0262
 4024W        W23558  13.836  18.990   1.456 -0.1770  0.2323 -0.0249
 4025W        W23559   5.295   6.069  11.827  0.0768  0.0392 -0.1553
 4026W        W23560   5.824   7.292   3.407  0.3973  0.2860 -0.4696
 4027W        W23561   0.616   7.806   1.411 -0.1966 -0.0976 -0.1827
 4028W        W23562  15.332   5.454   2.430  0.0540  0.0959 -0.0169
 4029W        W23563   1.078  18.817   0.349 -0.0418 -0.0852  0.1440
 4030W        W23564   3.235  17.471  14.301  0.2517  0.5383 -0.1770
 4031W        W23565   2.457   8.062  11.895 -0.0730 -0.0021 -0.0102
 4032W        W23566  15.618   4.963  13.743  0.2287 -0.2231  0.1881
 4033W        W23567   8.284  18.362   3.054 -0.0670  0.0394  0.1067
 4034W        W23568   2.991  16.346   2.171 -0.2133  0.1561  0.0003
 4035W        W23569   0.085  17.323   3.599  0.1600  0.2311 -0.1022
 4036W        W23570   5.460  16.355  11.373 -0.2323  0.1340  0.2346
 4037W        W23571   7.259   0.731   1.436 -0.0585 -0.0417  0.1720
 4038W        W23572   6.362   3.340   0.356 -0.0995  0.0086 -0.2152
 4039W        W23573  12.362  12.013  13.364  0.1362 -0.3689  0.0038
 4040W        W23574   0.822  10.633  13.660 -0.0464 -0.0686 -0.0744
 4041W        W23575   0.582   4.677  14.328 -0.1138  0.2287  0.2096
 4042W        W23576   7.490  10.267  12.809  0.1520  0.3697  0.0023
 4043W        W23577   6.179   3.207  12.710 -0.2472  0.0990  0.3353
 4044W        W23578   1.007   6.535  12.350 -0.0527 -0.1888  0.2494
 4045W        W23579   7.940  14.536  13.208 -0.1250 -0.0585  0.0006
 4046W        W23580   8.148  18.977  10.740  0.0081  0.1129  0.1957
 4047W        W23581   5.938  10.126   0.354  0.2161 -0.0523 -0.1605
 4048W        W23582   3.919  12.134   1.843 -0.0154  0.1506 -0.0860
 4049W        W23583   3.003  13.582   2.103  0.2178  0.1632  0.2123
 4050W        W23584   8.417   0.411   3.800 -0.0036  0.0064  0.3436
 4051W        W23585   5.551  17.219   4.053  0.0687 -0.2026  0.0801
 4052W        W23586   0.611  12.165  12.367 -0.2963 -0.0940 -0.0943
 4053W        W23587   5.465   1.284  13.258 -0.0633 -0.1966  0.1472
 4054W        W23588   6.600   9.112  14.021 -0.0135 -0.1395  0.1381
 4055W        W23589  15.026  15.347   1.970  0.0132  0.0376 -0.0547
 4056W        W23590   1.822   3.792  12.504 -0.2465 -0.0526  0.2723
 4057W        W23591  10.051  14.585  12.984 -0.1330  0.0601  0.0486
 4058W        W23592  11.891   6.503  11.576 -0.0941  0.0058  0.4095
 4059W        W23593  14.292   4.493  11.098  0.1391 -0.1918 -0.0044
 4060W        W23594   1.213   8.328   3.436 -0.4278 -0.3036 -0.4613
 4061W        W23595   3.131  11.923   3.948  0.1423 -0.0951 -0.1287
 4062W        W23596  18.977   4.775   3.852 -0.2581  0.1745 -0.3539
 4063W        W23597  12.372   9.968  12.881 -0.2845  0.1155 -0.0525
 4064W        W23598   2.728   9.267  13.870 -0.3597 -0.0934  0.0321
 4065W        W23599  19.092  17.378   0.485  0.0592 -0.0179 -0.3633
 4066W        W23600   6.532   2.589  13.628 -0.1494 -0.1690 -0.0408
 4067W        W23601   8.498  16.436   0.925 -0.0563 -0.0202 -0.1298
 4068W        W23602  16.323  10.901  11.981  0.1828 -0.2251  0.2462
 4069W        W23603   7.946  18.133   0.401  0.5058 -0.0069  0.1306
 4070W        W23604   4.279  15.206  13.532  0.4016  0.2962 -0.1301
 4071W        W23605   6.382   1.098  12.157  0.0080 -0.3239  0.1832
 4072W        W23606   0.334   4.376  10.632 -0.2573  0.0749 -0.1085
 4073W        W23607   6.560   2.894   1.906  0.0626  0.2902  0.1521
 4074W        W23608  18.884   2.031   2.159 -0.3515 -0.0030 -0.0454
 4075W        W23609  10.041   8.544  13.110  0.0406 -0.2474 -0.0356
 4076W        W23610   0.675   0.121  10.300 -0.1211 -0.0516 -0.4050
 4077W        W23611   7.384  19.507   0.821 -0.4016  0.0242 -0.2205
 4078W        W23612  18.638  12.139   0.742  0.2926 -0.1822 -0.0194
 4079W        W23613  14.163  13.916  11.546 -0.2306  0.0730 -0.1032
 4080W        W23614   1.793  12.669  13.784  0.0824 -0.1780  0.0140
 4081W        W23615  11.557  11.480   0.041 -0.0274 -0.1683  0.3783
 4082W        W23616   4.441  12.372  11.605 -0.0770 -0.1358 -0.1180
 4083W        W23617  13.026   1.141  12.706 -0.1917  0.0628 -0.1359
 4084W        W23618  16.176   2.056   5.144  0.0481  0.1581 -0.1407
 4085W        W23619  11.510   6.005  14.213  0.0906 -0.0634 -0.0674
 4086W        W23620  15.978  13.087  10.348 -0.1577  0.0731 -0.2660
 4087W        W23621  12.230   0.479  12.434 -0.2574  0.0598 -0.3887
 4088W        W23622  14.868  13.677   3.587 -0.1698  0.3074  0.1978
 4089W        W23623   5.783   2.821   3.342  0.0763 -0.3268  0.3495
 4090W        W23624  14.620  18.230   2.418 -0.0249 -0.1374 -0.0380
 4091W        W23625   5.397   2.997   0.572 -0.0839  0.1132 -0.0333
 4092W        W23626   5.617  12.608  14.373  0.2022  0.3223  0.5246
 4093W        W23627  10.003   5.661  11.810  0.1673 -0.1827 -0.2057
 4094W        W23628   1.454   6.916  10.210  0.0111 -0.0097  0.0149
 4095W        W23629   4.587   7.017   3.004  0.0336 -0.0399  0.0764
 4096W        W23630  13.020  13.030   4.253  0.0501 -0.0712 -0.0136
 4097W        W23631   2.622   2.782  12.621 -0.2580 -0.1000 -0.0502
 4098W        W23632  11.783  13.246   1.054 -0.0337  0.0703 -0.0767
 4099W        W23633   6.669  12.267   0.177  0.3088 -0.0345 -0.1533
 4100W        W23634   4.880  17.414   3.490 -0.2372 -0.1352  0.0882
 4101W        W23635   3.991   3.327  10.194  0.1977  0.4417  0.0363
 4102W        W23636  14.472  10.473   3.233 -0.0600  0.1559 -0.2266
 4103W        W23637  19.130  10.875  11.485  0.1974  0.2374 -0.1953
 4104W        W23638   7.994   9.685   1.463 -0.0169  0.0085 -0.2670
 4105W        W23639  12.495  10.112  14.086  0.2779 -0.2008 -0.0880
 4106W        W23640   2.696   1.506   1.654 -0.1798 -0.0377 -0.2510
 4107W        W23641   0.490   6.863   3.482  0.0568 -0.0348  0.2030
 4108W        W23642   9.583   3.584   3.525  0.2496  0.3823  0.2688
 4109W        W23643   4.247   3.144   3.066 -0.1486  0.0499 -0.3113
 4110W        W23644  14.327   4.260   1.917 -0.0250  0.0087 -0.2230
 4111W        W23645  17.108   3.766  13.898  0.0002  0.0538 -0.0535
 4112W        W23646   6.340   2.447   2.215  0.0212 -0.3192 -0.0076
 4113W        W23647  11.238  11.128  14.145  0.1724 -0.1555  0.1447
 4114W        W23648  11.816  16.929   1.449  0.0823 -0.0044 -0.4358
 4115W        W23649  16.473  13.124  12.153 -0.1274 -0.0189 -0.0602
 4116W        W23650  18.392  11.310   1.101  0.0313  0.1339 -0.1362
 4117W        W23651  16.193  15.844   0.001 -0.0255  0.2753  0.0849
 4118W        W23652   1.294  10.086  12.384  0.2897  0.1196 -0.0074
 4119W        W23653   3.319  13.996  10.897 -0.2451 -0.0016 -0.0607
 4120W        W23654   6.918   0.267   3.192 -0.0650  0.0815  0.2414
 4121W        W23655   9.611  16.092  14.270  0.0857 -0.0047 -0.0681
 4122W        W23656  16.206  10.778  12.577  0.2205  0.0150  0.1966
 4123W        W23657  17.981   6.484  10.831  0.0808  0.1029 -0.1596
 4124W        W23658  12.769  16.061  12.105 -0.0478 -0.2627  0.2273
 4125W        W23659   6.122  13.661   1.714  0.1386  0.0062  0.1720
 4126W        W23660  16.471   9.409  13.668 -0.2348  0.1064 -0.0407
 4127W        W23661   3.350   1.734   3.759 -0.1997  0.1985 -0.0518
 4128W        W23662   7.911  11.375  12.233  0.0925  0.1871 -0.0088
 4129W        W23663   9.939  17.128   3.739  0.0373 -0.1001 -0.0130
 4130W        W23664  13.159  17.931  12.079  0.0542 -0.1344  0.1954
 4131W        W23665   0.391  11.514   1.879  0.1166 -0.1288 -0.0530
 4132W        W23666   6.121   9.779  12.226  0.0883  0.0196  0.2835
 4133W        W23667   6.600   7.416   1.180  0.3332  0.2870  0.3466
 4134W        W23668   9.171   6.529   2.842 -0.2287  0.0277  0.2897
 4135W        W23669   3.577   0.541  12.296  0.0734  0.0437 -0.0165
 4136W        W23670   0.139   6.794  11.137 -0.0681 -0.0007  0.0903
 4137W        W23671   0.563  18.282   0.770 -0.0563  0.1442 -0.2130
 4138W        W23672   1.108   0.735   3.048  0.2023  0.0943 -0.0443
 4139W        W23673  16.808   8.941   3.820  0.0413 -0.4156  0.1634
 4140W        W23674   8.761  13.568  13.476  0.2074 -0.0994  0.1246
 4141W        W23675  19.013  16.405   2.176 -0.0330 -0.0786 -0.0054
 4142W        W23676   6.150  14.809  10.772 -0.0363 -0.0322 -0.0484
 4143W        W23677   4.399   9.196  10.237  0.0723  0.2002 -0.4499
 4144W        W23678   1.895   7.282  10.768  0.1041  0.1160  0.1925
 4145W        W23679   8.534   6.169   3.292 -0.0399  0.2754  0.2598
 4146W        W23680   6.388  13.359   4.419 -0.3675 -0.3468  0.2137
 4147W        W23681   7.059   5.817   0.993 -0.2751  0.0701 -0.3564
 4148W        W23682  16.680  18.740   2.567 -0.1712  0.0070  0.1128
 4149W        W23683  18.071  14.851   9.126 -0.0313  0.0245  0.1338
 4150W        W23684   9.219   5.107   3.201  0.5740  0.4070  0.1124
 4151W        W23685   2.471   6.800  14.122 -0.2885  0.1812  0.0384
 4152W        W23686  15.363  17.503   9.838 -0.1485 -0.3396 -0.2281
 4153W        W23687   8.731  18.475   3.933  0.0815  0.1390  0.0475
 4154W        W23688  17.601  10.330  14.255  0.1100 -0.3489 -0.2254
 4155W        W23689   8.107   9.578   0.933 -0.2384  0.1370 -0.2692
 4156W        W23690   0.130   8.697  10.788  0.1309 -0.1623  0.1667
 4157W        W23691   4.853  19.503  10.980  0.1495  0.4034  0.1210
 4158W        W23692   4.079   1.000   1.291  0.1075 -0.0166  0.1043
 4159W        W23693  10.344  14.683  13.767  0.1615  0.0574  0.1222
 4160W        W23694  11.196   2.500  13.082  0.0771  0.2797 -0.0856
 4161W        W23695   6.010   5.451  12.172 -0.3712  0.1788  0.0794
 4162W        W23696  15.054   5.653  12.283  0.1064 -0.1072 -0.4208
 4163W        W23697   9.200  17.253   1.255 -0.1304 -0.4490  0.5252
 4164W        W23698  15.167   5.129  14.107  0.3079  0.2254 -0.2123
 4165W        W23699  11.090  10.854   9.750  0.2066 -0.2838  0.1244
 4166W        W23700   7.645   3.140  11.097  0.1282  0.0407  0.1831
 4167W        W23701   1.124   4.434  11.894  0.2469  0.0047  0.0955
 4168W        W23702   9.828   0.359   0.849  0.1293 -0.0435 -0.2605
 4169W        W23703  12.282  12.381  11.495  0.0421  0.1619 -0.1800
 4170W        W23704   1.225  16.820   9.977  0.0237  0.1865  0.0509
 4171W        W23705  18.047   4.994  12.111  0.2324 -0.0258 -0.2558
 4172W        W23706  11.103   8.859   1.445  0.0931  0.0816 -0.1664
 4173W        W23707  16.064   7.383   0.621  0.4113  0.1694 -0.1189
 4174W        W23708   5.082  14.754   2.241  0.0415 -0.0857 -0.3911
 4175W        W23709   7.994   3.638   2.101 -0.2108 -0.0784 -0.1717
 4176W        W23710   4.090   6.799   2.209  0.2442  0.3210  0.2679
 4177W        W23711   0.152  14.957  12.103 -0.3494  0.0670 -0.1224
 4178W        W23712   0.284  18.146   3.668 -0.2601  0.1221  0.0725
 4179W        W23713   3.170   6.966  12.089 -0.1368 -0.3154  0.0113
 4180W        W23714  14.488   2.993   0.930  0.1248  0.1490  0.1528
 4181W        W23715  19.458   5.411  12.140 -0.3422 -0.1752 -0.2584
 4182W        W23716  13.694   9.040  12.362 -0.0443 -0.2137  0.2727
 4183W        W23717  11.078  11.541   3.228  0.0302  0.1457  0.0162
 4184W        W23718   2.732   4.786  10.804  0.1454  0.2500  0.0627
 4185W        W23719   0.786  16.571   2.774  0.1377  0.1143  0.0619
 4186W        W23720   9.069  12.261   5.266 -0.3785  0.0701  0.1179
 4187W        W23721  14.844  19.296   2.484 -0.1652  0.0718 -0.3459
 4188W        W23722  16.813   3.614   0.069  0.0441 -0.3285  0.2340
 4189W        W23723  18.673   6.491  11.072 -0.0659 -0.4646  0.1196
 4190W        W23724  18.785   0.286  14.072  0.0713  0.0810 -0.1114
 4191W        W23725  11.140  12.723   1.039  0.1473  0.1663 -0.0011
 4192W        W23726  12.664   2.507   3.795  0.1452  0.3263 -0.1364
 4193W        W23727   1.273   8.418   2.553 -0.0226 -0.0243  0.1642
 4194W        W23728   7.400   0.598  14.111  0.2211  0.3060  0.1119
 4195W        W23729  16.534   6.381  11.162  0.1138 -0.0270 -0.0839
 4196W        W23730  13.299   7.430   0.206 -0.0172  0.0926  0.2699
 4197W        W23731   5.523   6.554  10.114 -0.2148  0.0442 -0.1340
 4198W        W23732   5.513  19.490  14.082 -0.0403 -0.2325  0.1730
 4199W        W23733  19.366   4.650   3.511 -0.1356 -0.1315  0.0281
 4200W        W23734  14.175   4.706   2.096 -0.4169  0.0974 -0.1771
 4201W        W23735  10.009  11.707   2.289  0.3165 -0.0476  0.0375
 4202W        W23736  12.574   1.453   0.602 -0.1945 -0.0126 -0.1393
 4203W        W23737   1.432   4.206  13.236  0.2854 -0.0103  0.2054
 4204W        W23738  14.747  14.598  13.630  0.1899 -0.0565 -0.0199
 4205W        W23739   4.922   7.550  13.715  0.1579 -0.3567  0.1504
 4206W        W23740   5.797  17.244  12.185  0.0331  0.1000  0.1716
 4207W        W23741  12.392   2.788  12.538  0.0217  0.0730  0.0999
 4208W        W23742  12.672  19.414   1.189  0.3291 -0.1399  0.1363
 4209W        W23743  19.311  14.028   0.975  0.0667 -0.2577 -0.0778
 4210W        W23744   1.881   4.968   3.328 -0.1074  0.1333 -0.2223
 4211W        W23745  19.244   2.362  12.445 -0.3117 -0.2575  0.3223
 4212W        W23746  16.998   6.900   1.715  0.0500 -0.1711  0.0084
 4213W        W23747   8.570  15.250   0.006  0.1201  0.0496 -0.0087
 4214W        W23748  14.615  11.963  13.936  0.1695  0.0811  0.0656
 4215W        W23749   2.721  13.942  13.553 -0.2901 -0.0179 -0.1176
 4216W        W23750  17.311  13.430   0.606 -0.2975 -0.0492 -0.0829
 4217W        W23751   1.486  11.131   0.381  0.0970  0.1333 -0.0300
 4218W        W23752  11.734   2.529   0.848  0.1316 -0.1430  0.4556
 4219W        W23753  11.301  14.896  10.706 -0.5100 -0.1866  0.2256
 4220W        W23754  13.142   5.480  11.194  0.0303  0.2625 -0.1384
 4221W        W23755   6.750  11.398   4.153  0.2304  0.2372  0.1937
 4222W        W23756  11.429  17.731   2.315 -0.1436 -0.0288 -0.3285
 4223W        W23757   4.679  11.902  12.535  0.1415  0.0072 -0.1569
 4224W        W23758  16.214   8.473  11.270 -0.0362  0.3069 -0.0965
 4225W        W23759   4.899   8.152   9.557 -0.0431  0.1895  0.0424
 4226W        W23760   0.228   5.942   3.833 -0.2565  0.2596 -0.1788
 4227W        W23761   6.117   1.056   1.790 -0.2091  0.0176 -0.2751
 4228W        W23762   9.824  18.456  11.285 -0.0451 -0.1568  0.0870
 4229W        W23763   5.174   5.467   1.661 -0.3539 -0.0620 -0.2773
 4230W        W23764   7.417  13.000   3.539 -0.0955 -0.0807 -0.1418
 4231W        W23765   8.458   9.078   4.221  0.1299 -0.0412  0.0272
 4232W        W23766  15.538   5.730   0.197  0.1154 -0.0965 -0.0141
 4233W        W23767   3.774  10.228  12.119  0.1591 -0.1159 -0.2268
 4234W        W23768  11.676  16.642  13.033 -0.0599  0.0971 -0.3370
 4235W        W23769  14.829   4.361   1.026 -0.0554  0.0563 -0.3807
 4236W        W23770  11.828   3.213  11.949  0.1257  0.0519 -0.0080
 4237W        W23771  14.390   4.832   4.114 -0.1236 -0.0319 -0.1155
 4238W        W23772  14.890   3.308   3.445 -0.1960  0.1897 -0.0264
 4239W        W23773  16.394   3.348   3.434  0.2030 -0.3015 -0.0011
 4240W        W23774   5.393   6.460  11.393 -0.2473  0.0499 -0.1394
 4241W        W23775   4.822  17.303  11.368  0.1569 -0.0466  0.0532
 4242W        W23776   4.654  10.416   4.046  0.0190 -0.0480  0.1115
 4243W        W23777   2.235   0.660  12.424  0.2737 -0.0132  0.0793
 4244W        W23778   1.214   0.534  13.555 -0.2001 -0.0403 -0.1613
 4245W        W23779  11.691   7.943  12.195  0.1040 -0.4790  0.1497
 4246W        W23780  13.330  13.225   0.240 -0.2077 -0.0548  0.0487
 4247W        W23781   3.614   3.468  12.055  0.2915  0.0719  0.0410
 4248W        W23782   2.874  11.444  13.783  0.1266  0.0377 -0.4304
 4249W        W23783   8.436   5.380   5.064  0.2216 -0.1792  0.0396
 4250W        W23784   8.737  17.453   2.997 -0.1582  0.1907 -0.0268
 4251W        W23785  17.681   9.555   2.023 -0.1938 -0.1120 -0.2885
 4252W        W23786  18.777  14.791  13.008 -0.0799  0.0449  0.0154
 4253W        W23787   4.220  12.138  11.153  0.0250  0.1548 -0.0041
 4254W        W23788   3.693   4.552   0.904  0.1376  0.1813 -0.0084
 4255W        W23789   8.150   5.874   0.057  0.0631  0.1986  0.1152
 4256W        W23790   0.679   0.278  10.786  0.0767  0.2352 -0.0239
 4257W        W23791  19.198  13.071  13.473 -0.0672 -0.1014 -0.1976
 4258W        W23792  15.333   7.539  10.038 -0.0445 -0.4855 -0.1286
 4259W        W23793   3.219  15.231   2.783  0.1176  0.1462  0.1416
 4260W        W23794  17.379  12.379   4.181 -0.1218 -0.1267  0.0955
 4261W        W23795   6.981  13.544  12.009  0.0196 -0.1644 -0.0357
 4262W        W23796   1.814  11.194  11.509 -0.1075  0.2452  0.0390
 4263W        W23797  14.064   4.807  13.922  0.1598 -0.1691  0.0642
 4264W        W23798  14.539   1.526  10.815  0.2649 -0.0613  0.0499
 4265W        W23799   4.267   9.884  11.412  0.0648  0.4476 -0.0700
 4266W        W23800  13.429   1.910  14.066  0.0644 -0.2082  0.0977
 4267W        W23801   6.368   0.588  12.134 -0.2498  0.1401  0.0204
 4268W        W23802  18.052   8.158   0.159  0.0704 -0.1089  0.2643
 4269W        W23803   8.884  11.851   3.090 -0.1237  0.0334 -0.0789
 4270W        W23804  18.340   6.348  13.050  0.1904 -0.0558  0.2497
 4271W        W23805  11.417  17.407  13.654 -0.3003  0.0515  0.2852
 4272W        W23806   1.113   5.956   1.357  0.0753 -0.0723 -0.2223
 4273W        W23807   0.474  17.659   3.588  0.0407 -0.1860 -0.2760
 4274W        W23808  18.301  17.062  10.231  0.1072 -0.2372 -0.2330
 4275W        W23809   7.734   2.511  11.794 -0.3536 -0.1139  0.1427
 4276W        W23810   4.300  15.636   2.157 -0.2379 -0.0014  0.0089
 4277W        W23811   0.914  10.853   1.018 -0.2345 -0.2605  0.0135
 4278W        W23812  11.089   6.753  13.974 -0.2834 -0.2747  0.2164
 4279W        W23813   8.241   9.729   9.856 -0.1589  0.1305 -0.1653
 4280W        W23814   3.579  10.897   2.932  0.1387 -0.1127 -0.2943
 4281W        W23815   3.819   4.435  10.850  0.1284 -0.0077 -0.0138
 4282W        W23816   9.128   8.970   0.601  0.0424  0.1364  0.0381
 4283W        W23817  16.802  16.335   2.444  0.0400 -0.1591 -0.0015
 4284W        W23818   5.537  10.589  14.360 -0.0817 -0.3412 -0.1859
 4285W        W23819   6.552  16.185  12.122  0.0782  0.1625  0.2217
 4286W        W23820  17.335  10.678   3.479 -0.1662 -0.1149  0.0910
 4287W        W23821  12.706  15.651  11.776  0.4412  0.2075  0.0863
 4288W        W23822  17.319  10.702  13.568  0.0951 -0.3599  0.2492
 4289W        W23823  18.313   8.483  12.562 -0.0162  0.1665  0.0748
 4290W        W23824  10.174   1.189  14.290 -0.0960 -0.2707  0.0495
 4291W        W23825   4.860  13.907   0.422  0.1379 -0.1398 -0.0998
 4292W        W23826  12.406   8.631   1.843 -0.1391 -0.2173  0.1219
 4293W        W23827   7.884   4.849  10.721 -0.3596 -0.3986  0.1177
 4294W        W23828  12.656   9.583  12.528 -0.2557 -0.1006  0.1791
 4295W        W23829  15.407   2.859   9.929  0.2721 -0.0892  0.2584
 4296W        W23830  15.660   8.443  11.555 -0.0697 -0.0107  0.1224
 4297W        W23831  10.181   3.486   0.085  0.1991  0.0498  0.1674
 4298W        W23832  13.706  18.968   2.002  0.2618  0.1593 -0.2047
 4299W        W23833   9.380   8.060  12.691  0.0962 -0.2865  0.1182
 4300W        W23834   4.362   8.165   3.471 -0.2196 -0.2046  0.2217
 4301W        W23835  17.122  12.549   3.810  0.1068  0.2340 -0.2245
 4302W        W23836   4.528   0.374   0.667 -0.1954  0.0826  0.0896
 4303W        W23837  11.316  10.964  12.322 -0.0511  0.0405 -0.5550
 4304W        W23838  14.622  19.313   1.715  0.0311 -0.1735  0.0266
 4305W        W23839   9.365  13.976   4.160 -0.4780  0.0542 -0.4131
 4306W        W23840   0.989   2.355  13.015  0.0100  0.1377  0.0353
 4307W        W23841   3.609   7.205   1.027  0.0376  0.1433  0.3185
 4308W        W23842   0.936  13.509   0.608 -0.0935  0.0448 -0.0402
 4309W        W23843   9.043  16.611  11.854  0.2022 -0.2137  0.1979
 4310W        W23844  15.262   6.836   1.603  0.0501 -0.2207 -0.0945
 4311W        W23845   9.267   2.638   9.583 -0.2150  0.0895 -0.1985
 4312W        W23846  12.425   4.791  13.942  0.0432  0.2117  0.0497
 4313W        W23847  12.328  14.266   4.281 -0.1313 -0.1004  0.4020
 4314W        W23848  16.245  10.609  13.658 -0.0993 -0.2496  0.1769
 4315W        W23849   6.048  11.458   0.420  0.0961 -0.2555 -0.0437
 4316W        W23850   8.975   7.131  14.161  0.0064  0.3146 -0.1707
 4317W        W23851   1.845  10.089   1.301  0.1322 -0.2206  0.3203
 4318W        W23852   4.997   0.621   1.513 -0.0478  0.2547  0.0697
 4319W        W23853   0.898   9.405   1.931  0.2901  0.3017 -0.0106
 4320W        W23854   5.094   8.777  13.313 -0.2447 -0.1020  0.2382
 4321W        W23855  19.478  15.990  11.708 -0.0577 -0.0107  0.1644
 4322W        W23856  14.297   4.887  12.037  0.1273 -0.0708 -0.3465
 4323W        W23857  19.395  12.515   1.786 -0.0644 -0.0324 -0.1500
 4324W        W23858  11.141  15.996   1.377  0.2992 -0.1395  0.1256
 4325W        W23859  10.031   2.444   0.505 -0.0879 -0.2573  0.0021
 4326W        W23860   1.901   3.539  14.320  0.1912 -0.0542 -0.0018
 4327W        W23861   8.371   9.773  11.909 -0.2072  0.0618 -0.1953
 4328W        W23862   8.789  12.222  11.485  0.1213  0.2558  0.2221
 4329W        W23863   6.757  18.759   2.069  0.0694 -0.0221 -0.1557
 4330W        W23864  11.037   6.093   3.740 -0.2647 -0.0890 -0.1855
 4331W        W23865  16.447  18.140  10.046  0.1197  0.0042 -0.1774
 4332W        W23866  12.292  12.991  10.853 -0.0435  0.1888 -0.0501
 4333W        W23867   2.115   2.161   1.757  0.2665 -0.3088 -0.1488
 4334W        W23868  19.501   9.582  12.921  0.0145 -0.0769 -0.0275
 4335W        W23869  17.030  10.034   2.875  0.1705  0.0344  0.1245
 4336W        W23870  12.196  13.922   3.352  0.1164 -0.2773  0.0537
 4337W        W23871   8.803  11.596  13.407 -0.0850  0.2368  0.1816
 4338W        W23872  16.713  19.277  13.336 -0.4134 -0.0854  0.2106
 4339W        W23873   7.376  10.406   1.181  0.2587 -0.1221  0.1770
 4340W        W23874   3.659  16.587   1.618 -0.1628 -0.0950 -0.1158
 4341W        W23875   8.004  12.297  12.561  0.1567  0.0635  0.1197
 4342W        W23876   1.706  18.200   1.298 -0.1272  0.0207 -0.2019
 4343W        W23877  15.951  15.535  11.968  0.0664  0.2196 -0.0993
 4344W        W23878  12.712   8.914  12.189  0.3248  0.1092 -0.0091
 4345W        W23879   5.077  10.722  12.785 -0.2518  0.1214  0.3442
 4346W        W23880   6.011  11.654  12.351  0.0461 -0.0708  0.0615
 4347W        W23881   4.483  15.448   4.126 -0.2832 -0.2710 -0.4049
 4348W        W23882   9.242   7.230  13.182  0.0834 -0.0633 -0.1994
 4349W        W23883   6.093   1.319  11.321 -0.1888 -0.0170 -0.0192
 4350W        W23884  12.794   5.952  14.071 -0.1933  0.0923 -0.3010
 4351W        W23885  17.804   3.987   2.161 -0.0572  0.1524 -0.1094
 4352W        W23886   3.088   3.295   5.044  0.3075 -0.1639 -0.1735
 4353W        W23887   8.534   0.769   0.687 -0.2480  0.0197 -0.2451
 4354W        W23888   0.061  10.884  11.290  0.1317 -0.0540 -0.0739
 4355W        W23889   9.506  16.216   2.835 -0.1584 -0.1329  0.0433
 4356W        W23890   9.040   6.811  12.875 -0.0695  0.1231  0.1421
 4357W        W23891   8.970  17.626  11.360 -0.2062  0.2049  0.0707
 4358W        W23892   9.064   2.744   2.202  0.2256  0.0344  0.0707
 4359W        W23893  19.444   2.267  11.378 -0.2741 -0.3776 -0.3885
 4360W        W23894   6.165  18.962  12.261  0.1695 -0.1881 -0.2542
 4361W        W23895  18.565   8.259  12.128  0.0564 -0.0413  0.0040
 4362W        W23896   5.775   5.457  14.156  0.1865  0.1179 -0.1228
 4363W        W23897   8.754  14.891   2.297  0.0555  0.1923 -0.0562
 4364W        W23898   5.566   3.485   1.466  0.1631  0.0504 -0.0870
 4365W        W23899   6.092  17.786   2.934 -0.2084 -0.2668 -0.1445
 4366W        W23900  15.971  17.996   2.158 -0.1976  0.0077  0.2446
 4367W        W23901  17.325  19.042   2.316 -0.0002  0.0987  0.0674
 4368W        W23902  10.488  15.897  14.248  0.0567 -0.2282  0.0290
 4369W        W23903  19.077   5.301  11.329  0.2345 -0.2407 -0.1000
 4370W        W23904  18.237  18.352   0.692  0.2674 -0.1920  0.1088
 4371W        W23905  14.181   7.412   2.845  0.2259  0.0341  0.0556
 4372W        W23906   4.832   7.899   1.642  0.0092  0.1943  0.3502
 4373W        W23907  19.254   4.437  13.778 -0.0199 -0.3204  0.0827
 4374W        W23908   8.324  15.158  10.648 -0.1328 -0.0112  0.1351
 4375W        W23909   2.740  19.286  10.540  0.0118 -0.1280  0.1187
 4376W        W23910  12.446  10.264   3.606 -0.0280  0.0850 -0.2411
 4377W        W23911   6.370   2.165  11.437 -0.1161 -0.1180 -0.0391
 4378W        W23912  14.990   3.577   1.615  0.0810 -0.0242 -0.0113
 4379W        W23913  11.981   0.239   1.738 -0.1720  0.0103  0.0219
 4380W        W23914   0.044   3.183   9.173 -0.0657  0.3488  0.2787
 4381W        W23915   1.724  18.468  11.320 -0.0287 -0.1028 -0.0066
 4382W        W23916   1.836  14.331  12.739 -0.0925 -0.0540  0.1331
 4383W        W23917   5.374   4.101  10.122 -0.3789 -0.1242  0.1120
 4384W        W23918  12.404   8.715  13.388  0.3441 -0.0424 -0.3734
 4385W        W23919  12.534  11.923  11.461  0.0708 -0.0260 -0.2376
 4386W        W23920  18.270   7.620  13.497  0.2827 -0.0336  0.0409
 4387W        W23921  11.634  18.935   3.840  0.2235 -0.0449  0.0867
 4388W        W23922  12.112  18.234  13.239  0.1982 -0.1605 -0.1136
 4389W        W23923   8.841  14.717   1.435 -0.1406 -0.1204  0.1119
 4390W        W23924  15.870   8.625  10.450  0.1493 -0.1587 -0.2764
 4391W        W23925   7.154  13.471   1.939  0.1028  0.0537  0.0804
 4392W        W23926  15.143  16.296   2.024 -0.2180 -0.2010  0.0285
 4393W        W23927  17.235  10.980   2.519 -0.0742  0.2076 -0.1414
 4394W        W23928  14.628   2.454  13.239 -0.0011  0.1165 -0.0021
 4395W        W23929   4.287   1.636  11.108  0.2526  0.2678 -0.2392
 4396W        W23930  16.339  15.937   0.720 -0.0877 -0.0615 -0.1298
 4397W        W23931   0.695  13.287  11.605  0.2312 -0.0790 -0.1902
 4398W        W23932   7.831  18.154   3.660 -0.0277  0.1851  0.0969
 4399W        W23933   0.359  11.792   1.122 -0.0079  0.1349  0.3301
 4400W        W23934  19.401  11.822  10.879  0.2397 -0.2047  0.3268
 4401W        W23935  10.162  16.532  12.994  0.2231  0.0569  0.0799
 4402W        W23936   3.199  17.288   1.840  0.1746 -0.2642  0.3344
 4403W        W23937  11.661   9.062  10.086 -0.0779 -0.2043  0.1371
 4404W        W23938   3.245   0.220  14.040  0.0353 -0.0040  0.2574
 4405W        W23939   5.610   2.703   0.895  0.1748  0.0273  0.0056
 4406W        W23940  10.613   1.262   3.050 -0.4375 -0.1907 -0.0947
 4407W        W23941  18.028  15.313   0.020  0.2179  0.0283 -0.1414
 4408W        W23942  17.487   2.856  13.362 -0.1142  0.1031 -0.0319
 4409W        W23943   6.030   8.765  12.348  0.0141  0.3362  0.0808
 4410W        W23944  16.798   5.499   0.643 -0.2325 -0.0160 -0.0271
 4411W        W23945   5.956   1.871  11.310 -0.2117 -0.0111  0.0652
 4412W        W23946  14.342  10.565  14.243  0.0813 -0.1492 -0.4693
 4413W        W23947  15.930  10.145  11.906 -0.0433  0.3082 -0.0824
 4414W        W23948   7.173   3.580   1.888 -0.0315 -0.0078  0.0294
 4415W        W23949   8.129  16.489  12.438 -0.2017 -0.0628 -0.1931
 4416W        W23950  19.017  18.242   0.887  0.0558  0.2490 -0.1348
 4417W        W23951  13.378  17.811  11.169  0.1919  0.0878  0.2291
 4418W        W23952   6.611  18.532   1.253  0.0752  0.1918 -0.0080
 4419W        W23953  18.959   7.688   2.305 -0.1797  0.0777  0.1482
 4420W        W23954  19.415  14.856   1.384 -0.1929 -0.1164  0.0530
 4421W        W23955  16.013   4.136  10.682  0.1452 -0.0385 -0.2346
 4422W        W23956  18.922  17.939   4.167 -0.1854 -0.0707  0.1591
 4423W        W23957  11.826  10.008  10.925  0.2829 -0.0065  0.0105
 4424W        W23958   8.156   3.572   2.638 -0.1444  0.1054 -0.0417
 4425W        W23959   7.943   0.700  12.143  0.0688 -0.1256 -0.1229
 4426W        W23960   5.795   5.145  13.128  0.0295  0.0893 -0.1728
 4427W        W23961  17.258   5.359   0.495  0.0302  0.1334  0.0516
 4428W        W23962   6.729  19.094   4.188 -0.0399 -0.0813  0.2801
 4429W        W23963  17.064   3.957  12.229  0.0917 -0.0219  0.2067
 4430W        W23964   5.510   5.419  12.334 -0.3601 -0.2584  0.0176
 4431W        W23965   8.604  13.231  11.678 -0.1431 -0.0797 -0.2879
 4432W        W23966   5.041  16.212   2.505  0.2214 -0.0443 -0.0628
 4433W        W23967  10.923   3.641   0.719  0.1167 -0.1485  0.2059
 4434W        W23968   4.147   8.288   3.864  0.1441  0.1273  0.1359
 4435W        W23969  15.278   6.991   0.692 -0.3466  0.2880  0.1489
 4436W        W23970   5.980   0.903  10.925 -0.3145 -0.1484 -0.2023
 4437W        W23971   1.526  11.048   4.074 -0.1330 -0.0548  0.0448
 4438W        W23972   2.599   9.051  12.923  0.0640  0.0895  0.1718
 4439W        W23973   2.623  10.240  13.925 -0.2283 -0.1277 -0.2497
 4440W        W23974  13.127   5.555  14.163 -0.0363  0.4681 -0.1171
 4441W        W23975   1.752   5.892   0.394 -0.2088  0.3146 -0.1749
 4442W        W23976  10.431  16.194   0.260 -0.1163 -0.5119  0.0372
 4443W        W23977   0.416   1.443  10.239  0.1694  0.0232  0.0138
 4444W        W23978  15.644  11.465  13.394  0.1656 -0.1249 -0.2670
 4445W        W23979  11.298  15.147  14.303  0.1199 -0.3883 -0.0727
 4446W        W23980  17.468  10.176  10.673  0.3780  0.0928 -0.1243
 4447W        W23981   1.741   8.181  12.204 -0.0094  0.0337  0.0348
 4448W        W23982   3.317   0.263   2.776 -0.2283  0.1111 -0.0485
 4449W        W23983   8.688  18.053  11.462 -0.0864  0.1941  0.0733
 4450W        W23984   1.010   2.648  13.764 -0.1391  0.1048  0.1630
 4451W        W23985  13.124  18.355   2.239  0.0310  0.0010 -0.2717
 4452W        W23986  18.955  19.483  11.309  0.0958 -0.0132 -0.2373
 4453W        W23987   6.484   1.006   2.723  0.1503 -0.0514 -0.3389
 4454W        W23988   8.495  18.455  10.378 -0.0668  0.3843 -0.1106
 4455W        W23989  12.909   2.335  10.411  0.1553  0.0936  0.3030
 4456W        W23990   6.228   6.329  13.653 -0.0962 -0.2016 -0.2693
 4457W        W23991  11.887  17.591   0.678 -0.0122  0.0906  0.5827
 4458W        W23992   0.723  16.242  10.348  0.1449  0.0028  0.0772
 4459W        W23993   8.324   6.692   2.507  0.1432 -0.0015  0.0378
 4460W        W23994   8.086   6.247   3.607 -0.1649  0.0101  0.2268
 4461W        W23995  19.219   5.003   5.010  0.2387  0.0424 -0.0602
 4462W        W23996   5.915  14.396   4.098 -0.0563 -0.2355  0.2068
 4463W        W23997   4.781  11.169   1.072  0.1062  0.0599  0.0697
 4464W        W23998   1.688  14.903  11.910 -0.2028  0.1395 -0.2707
 4465W        W23999  12.464   1.850  13.716  0.0519  0.0400 -0.0335
 4466W        W24000  14.462   3.040  13.381 -0.0633 -0.1345  0.0324
 4467W        W24001   7.018   7.222   3.564  0.1759  0.1042 -0.0451
 4468W        W24002  15.437  12.174  12.870  0.0330  0.2387  0.0259
 4469W        W24003  18.385   2.119   3.079  0.1069  0.2337 -0.2161
 4470W        W24004  11.297   9.691   2.369 -0.3836 -0.2349  0.1570
 4471W        W24005   6.086  16.699   2.259 -0.1264  0.0215 -0.0690
 4472W        W24006   2.308  13.543   1.762  0.0803  0.0939  0.0029
 4473W        W24007   1.710  10.696   2.031  0.1219 -0.2683  0.2588
 4474W        W24008   4.681  11.241   2.789  0.0983  0.1140  0.0440
 4475W        W24009  15.231   2.577   3.150  0.1529  0.1861 -0.1649
 4476W        W24010  17.215   7.232   1.000 -0.2607 -0.5493 -0.0782
 4477W        W24011  17.312  10.900  10.792 -0.4940  0.0890 -0.0171
 4478W        W24012   1.226   8.737   2.980  0.3047  0.0629  0.3175
 4479W        W24013   4.754   9.112   3.406 -0.2496 -0.0827 -0.1144
 4480W        W24014  10.301  13.352   2.541  0.2479  0.1043 -0.2375
 4481W        W24015  19.070   0.852  14.270  0.3134  0.2433 -0.1366
 4482W        W24016  17.220  14.979   2.601 -0.2212 -0.3607 -0.2527
 4483W        W24017  16.751  16.060   0.452 -0.0351  0.0478  0.0380
 4484W        W24018  14.726  17.392   2.403 -0.3349  0.0324  0.3538
 4485W        W24019  15.895  17.185   0.579  0.2039 -0.0114 -0.0943
 4486W        W24020   3.679  15.968   1.178 -0.1297 -0.0524 -0.2492
 4487W        W24021   9.446   2.858  10.798 -0.1080 -0.1030 -0.0916
 4488W        W24022   3.886  11.825  11.469 -0.3083 -0.0462 -0.0114
 4489W        W24023   7.602  18.394   1.361  0.0500 -0.0456  0.5432
 4490W        W24024  16.892   9.477   1.508  0.3128  0.1814  0.0786
 4491W        W24025   4.117  15.020   5.211 -0.0335 -0.2374 -0.0077
 4492W        W24026   8.205   9.995   2.848  0.0565 -0.1306  0.2694
 4493W        W24027   8.244   4.498  10.744  0.0843  0.3198  0.0298
 4494W        W24028  16.057  13.515  14.357  0.2854 -0.2800  0.1957
 4495W        W24029  16.103   2.395   2.459  0.4772 -0.0860 -0.2057
 4496W        W24030  10.648  15.340   3.235  0.0996 -0.0395 -0.1195
 4497W        W24031   8.877  19.284  12.016  0.0666 -0.1090 -0.3302
 4498W        W24032  10.409  15.863   3.147  0.1876 -0.2091 -0.2537
 4499W        W24033   5.824  14.271  11.740 -0.1912 -0.0245 -0.0896
 4500W        W24034  11.171  11.020  10.689 -0.1989 -0.1157  0.1484
 4501W        W24035   5.448  18.187  13.002 -0.3911  0.0855 -0.2181
 4502W        W24036   4.027   7.262   1.534 -0.1833  0.0584  0.3169
 4503W        W24037   2.326   9.426   0.645 -0.0100  0.2722 -0.1877
 4504W        W24038   5.575   6.865  11.984 -0.1601  0.0289 -0.2492
 4505W        W24039   5.048   9.649   1.411 -0.2695 -0.2013  0.0542
 4506W        W24040  14.340  15.505  12.707  0.2992 -0.0297  0.0404
 4507W        W24041  12.945   3.378  11.255  0.0491  0.1931 -0.0915
 4508W        W24042  12.702  19.439  12.434  0.2076  0.3852 -0.0307
 4509W        W24043   4.340   7.496   4.609 -0.3718  0.1488 -0.0566
 4510W        W24044  11.464   8.473  12.431 -0.2902  0.0504 -0.2060
 4511W        W24045  10.747  17.299   2.048  0.1082  0.0145  0.0330
 4512W        W24046  11.606   4.074  14.330 -0.1187  0.0878 -0.1925
 4513W        W24047   0.333  17.482   1.343  0.0728  0.0640 -0.2432
 4514W        W24048   6.153   4.897   3.861 -0.0684 -0.3145 -0.1542
 4515W        W24049  15.757   7.632   1.731 -0.2238  0.1574  0.1360
 4516W        W24050   9.711   8.130   2.328 -0.1206 -0.2246  0.1525
 4517W        W24051   7.701  17.769   1.810  0.2493 -0.1751  0.0497
 4518W        W24052   3.091   4.404  14.070  0.2046 -0.0052  0.0196
 4519W        W24053  14.252  10.636  10.157  0.1515  0.0580 -0.0102
 4520W        W24054  13.845   7.633   1.831  0.1957  0.1035 -0.0618
 4521W        W24055   8.507  17.966   4.498 -0.2631  0.0199  0.1297
 4522W        W24056  11.277   6.529   0.989 -0.2962  0.0944 -0.3049
 4523W        W24057  17.859   7.091   1.737 -0.2279 -0.0540  0.1839
 4524W        W24058  10.094  13.740   3.428  0.2080 -0.1633  0.1859
 4525W        W24059  13.138   3.614   1.391 -0.2889  0.1071  0.2158
 4526W        W24060  10.712   7.235   3.772  0.0152 -0.3505 -0.0838
 4527W        W24061  12.377  18.468  10.746 -0.1440  0.3188 -0.4270
 4528W        W24062  11.389  12.381  10.848 -0.0993 -0.0537 -0.0341
 4529W        W24063  14.525   0.409   1.065  0.0646  0.0878  0.2360
 4530W        W24064  17.917   2.782   3.172  0.0439 -0.2647 -0.1234
 4531W        W24065  10.803   8.781   2.265 -0.0377 -0.0478 -0.2404
 4532W        W24066  15.815   1.886   3.718  0.3318 -0.0830 -0.0842
 4533W        W24067   2.218  19.108  10.571 -0.0303 -0.1174 -0.2123
 4534W        W24068  17.681   7.424  12.918 -0.0147  0.0866 -0.0713
 4535W        W24069   6.265   0.077  13.445 -0.1289  0.0267 -0.1300
 4536W        W24070  13.195  12.725   1.716  0.2535  0.2474 -0.0390
 4537W        W24071  10.262  15.935   0.900 -0.3059 -0.1698  0.0853
 4538W        W24072  16.911  10.919   1.784 -0.2133 -0.2161  0.3803
 4539W        W24073   0.557   4.283   2.193  0.3614 -0.0797  0.0551
 4540W        W24074   0.501  19.421  12.876  0.1142  0.0682  0.0359
 4541W        W24075  13.595  10.937   1.586 -0.2500  0.1414 -0.1147
 4542W        W24076  16.181   5.694   1.914 -0.2588 -0.1730 -0.0591
 4543W        W24077   8.586   2.593  10.251  0.2023  0.0954  0.2431
 4544W        W24078  18.729   3.493   2.466  0.0854 -0.1368 -0.1112
 4545W        W24079  12.383  16.146   0.539  0.0533 -0.1378 -0.1216
 4546W        W24080   4.510  13.161   1.834  0.2922  0.0258 -0.1814
 4547W        W24081  10.061  15.375  10.488  0.2984 -0.0949  0.2808
 4548W        W24082   5.802   9.757  13.990  0.1756  0.0611 -0.0050
 4549W        W24083   3.575  10.850   1.454 -0.0812 -0.0275 -0.1676
 4550W        W24084   0.277   0.655   2.894 -0.4224 -0.0599  0.3177
 4551W        W24085   0.590   5.459   1.311 -0.1456 -0.0123  0.0591
 4552W        W24086   5.567  17.391  12.575  0.2872  0.1007  0.1029
 4553W        W24087   2.613   6.737  12.868 -0.0003  0.1867 -0.0462
 4554W        W24088   0.247   7.666  13.694  0.0092  0.2430  0.0367
 4555W        W24089   0.290  15.157   3.238  0.1248  0.0167 -0.3795
 4556W        W24090   5.116  11.606   4.143 -0.1102 -0.3709  0.2552
 4557W        W24091   2.725   0.329  13.923 -0.1690 -0.1639 -0.3080
 4558W        W24092   5.432  18.847   3.684  0.1731  0.2132 -0.2439
 4559W        W24093  18.023   4.911  14.149  0.1050 -0.1071  0.1770
 4560W        W24094  15.942  18.241   9.840  0.3922  0.0413  0.0379
 4561W        W24095   2.795   2.115   2.638 -0.0468  0.2874 -0.1922
 4562W        W24096   0.240  18.797  11.575  0.2494  0.0275 -0.4180
 4563W        W24097   3.060  15.312  10.865  0.3706  0.1259 -0.1642
 4564W        W24098  13.485   2.578  12.760 -0.3139 -0.0561 -0.0925
 4565W        W24099   0.162  12.035  12.163 -0.1928 -0.1046 -0.3856
 4566W        W24100  14.497  11.967   4.341 -0.2124  0.1673 -0.1341
 4567W        W24101   4.199   4.481  13.376 -0.2457  0.1835  0.2838
 4568W        W24102   9.824   3.243  11.949 -0.0843  0.0929  0.1276
 4569W        W24103   8.759   7.321   2.751 -0.1401 -0.0695  0.3758
 4570W        W24104   1.325   4.628  11.549 -0.1666  0.0261 -0.0265
 4571W        W24105  16.676  17.243  13.250 -0.1718  0.1693  0.2453
 4572W        W24106   2.458  14.468   4.809  0.0126 -0.1399 -0.0501
 4573W        W24107   9.977   6.326  10.651 -0.1776  0.0103  0.1077
 4574W        W24108   5.489  15.516   2.302  0.2803  0.2018 -0.1315
 4575W        W24109  17.889  13.449  13.704  0.0892 -0.2209 -0.0741
 4576W        W24110   5.557  17.702  13.009 -0.3102  0.0387  0.0198
 4577W        W24111   2.403   5.659   1.969 -0.1856 -0.0794  0.3185
 4578W        W24112   9.088  14.225   2.216 -0.1779  0.0706 -0.3508
 4579W        W24113  14.628   9.411   0.168 -0.2892 -0.2116 -0.1800
 4580W        W24114  19.368   1.686   3.018  0.4817 -0.0800 -0.1651
 4581W        W24115  13.137   9.874   9.256 -0.1458  0.1816 -0.0983
 4582W        W24116  13.877   8.503   2.098  0.0000 -0.0629  0.0821
 4583W        W24117   5.248   8.493  11.743 -0.1367  0.1902  0.0581
 4584W        W24118   4.286  17.479  12.543 -0.0374  0.0654 -0.0319
 4585W        W24119  16.441   5.324   2.184  0.0336 -0.1543  0.0830
 4586W        W24120  14.211  12.782  10.554 -0.1233 -0.0337 -0.2031
 4587W        W24121  17.516   4.890   1.947 -0.3327 -0.0248 -0.1251
 4588W        W24122   3.205  17.744   2.133 -0.3124 -0.1546 -0.1122
 4589W        W24123   7.984  15.930   3.267 -0.4159 -0.2243 -0.1970
 4590W        W24124   5.380   2.554  12.997  0.1380 -0.1463 -0.2368
 4591W        W24125  14.574  12.448  14.095 -0.2665  0.0515 -0.1654
 4592W        W24126  15.329   2.704   3.870 -0.3197 -0.2498  0.1873
 4593W        W24127  12.282   4.540   1.674 -0.2853 -0.0470  0.1613
 4594W        W24128  10.724  11.364  13.955  0.1469 -0.0646 -0.2382
 4595W        W24129   0.608  10.450   2.698  0.0508 -0.0446  0.0802
 4596W        W24130  16.142   8.870  12.209  0.1903  0.0691 -0.0667
 4597W        W24131  18.211   9.879   1.262  0.3235  0.0991 -0.0410
 4598W        W24132  17.697   1.447   2.627  0.0942  0.1323 -0.1377
 4599W        W24133  11.717  12.654  12.789  0.2478  0.1587  0.1003
 4600W        W24134  13.933  16.975  12.805 -0.1977  0.0788 -0.1745
 4601W        W24135   5.163  15.584  13.808  0.0942  0.1638 -0.0231
 4602W        W24136   2.719   0.090   2.487  0.0248  0.3663 -0.1218
 4603W        W24137   1.105   4.760  14.241  0.0242  0.2208  0.0544
 4604W        W24138   0.920   9.164  11.427 -0.1079  0.3206  0.2222
 4605W        W24139   7.494  14.045   0.413  0.1412 -0.0824  0.1298
 4606W        W24140  15.179   0.912  13.440  0.0157  0.1191 -0.2982
 4607W        W24141  13.900  17.386   3.175  0.1395  0.0455  0.1305
 4608W        W24142  15.533  16.200  14.044  0.1211 -0.0460  0.3257
 4609W        W24143  15.519  11.243   0.151 -0.0543 -0.1194  0.2362
 4610W        W24144   1.635  17.671   2.165 -0.2184  0.2871 -0.1456
 4611W        W24145  13.016  11.793   3.056 -0.0545  0.0732 -0.2799
 4612W        W24146  12.287   9.349  13.462  0.1062 -0.1335 -0.4275
 4613W        W24147   8.985   6.962   0.538 -0.4305  0.0442  0.2402
 4614W        W24148  15.460   8.450   9.482 -0.1741  0.0860  0.0365
 4615W        W24149  11.848   4.487   1.328  0.0166 -0.2963  0.0334
 4616W        W24150   5.772  12.294   0.384  0.2670 -0.0924 -0.0622
 4617W        W24151   9.950  10.140   2.715 -0.0650  0.0070 -0.1104
 4618W        W24152   6.771   8.467  14.280 -0.0821  0.2050 -0.2222
 4619W        W24153   6.325  11.553  10.353  0.2950 -0.0164 -0.0668
 4620W        W24154   2.872  10.936   2.828  0.0519  0.0007 -0.0458
 4621W        W24155   8.758  17.391  11.736  0.0233  0.0765 -0.1480
 4622W        W24156  18.275   6.038  10.935  0.0893 -0.3172  0.0444
 4623W        W24157   7.930  15.910  11.500  0.4026  0.0070 -0.3397
 4624W        W24158  16.285  13.849  13.672  0.1082 -0.2825 -0.1246
 4625W        W24159   5.904   9.476   4.230  0.2324 -0.0190  0.3898
 4626W        W24160   5.554   8.778   0.017 -0.2144  0.0246 -0.1497
 4627W        W24161   1.229  16.351   2.787 -0.2071 -0.3692  0.4294
 4628W        W24162   1.532   2.462   4.093  0.1973 -0.3708 -0.2498
 4629W        W24163  10.610  13.849  10.712 -0.1368  0.1118 -0.1791
 4630W        W24164  16.748   6.106  10.831  0.1905  0.0867  0.0133
 4631W        W24165  14.487  10.831  10.510  0.1805 -0.0030  0.0244
 4632W        W24166  16.330   9.771  11.585 -0.0041  0.2879 -0.3084
 4633W        W24167  18.548  17.930  14.054 -0.0985  0.0909 -0.1889
 4634W        W24168  10.393  17.630  13.436 -0.1244  0.0617 -0.0560
 4635W        W24169  13.878   5.862  11.814  0.2427  0.1906 -0.1926
 4636W        W24170  16.686  16.878  11.571  0.3102  0.3327 -0.0262
 4637W        W24171  11.153   7.431   3.621 -0.1564 -0.0928 -0.1559
 4638W        W24172   4.019  18.584   0.789 -0.1894  0.0408  0.0418
 4639W        W24173   3.212  14.482   2.526 -0.1278  0.0748  0.1674
 4640W        W24174  13.241   9.735  12.536  0.1808 -0.0804  0.2656
 4641W        W24175  11.582  14.711  14.234 -0.3776  0.2109 -0.0029
 4642W        W24176  11.421   8.771   3.722 -0.1501 -0.1390 -0.0097
 4643W        W24177   9.854   4.521   2.587 -0.0127 -0.0339 -0.0329
 4644W        W24178   7.791  13.249   3.104 -0.1181 -0.1459 -0.2143
 4645W        W24179   1.607  14.879   9.566  0.1619 -0.1489 -0.1567
 4646W        W24180  17.459   0.881   0.110 -0.2623  0.3229 -0.0439
 4647W        W24181   2.099   8.350   3.046 -0.0735 -0.2992 -0.0948
 4648W        W24182  17.840  17.279  12.035 -0.0444 -0.1057 -0.0533
 4649W        W24183  15.191   5.335  11.954 -0.0029 -0.0167 -0.0484
 4650W        W24184  14.358   9.335  11.836 -0.1363 -0.2335 -0.1822
 4651W        W24185  17.351  11.034  11.740 -0.1180  0.1773 -0.1298
 4652W        W24186   5.420  16.053  12.036 -0.1971  0.2886 -0.0642
 4653W        W24187   1.373   7.056  11.501 -0.0502 -0.2315 -0.1677
 4654W        W24188   4.778   0.237   2.788  0.2036 -0.0183 -0.0875
 4655W        W24189   6.796   3.111   0.088  0.1524 -0.3502 -0.0571
 4656W        W24190  12.294  10.655   9.398  0.1273 -0.2544  0.0990
 4657W        W24191   8.354  17.771   1.190 -0.0764  0.4802  0.0145
 4658W        W24192  13.012   9.433  12.213 -0.2071 -0.0963 -0.2163
 4659W        W24193  17.610   4.923  11.938 -0.1298  0.0074 -0.0344
 4660W        W24194  10.983  17.430   4.294  0.1129 -0.2641 -0.1762
 4661W        W24195  15.937   9.422   1.021 -0.0004 -0.1610  0.2368
 4662W        W24196  11.500  12.962   3.369 -0.1087  0.0653 -0.0670
 4663W        W24197   6.224  11.173   2.840  0.0231 -0.4194 -0.2977
 4664W        W24198  12.721   1.793  10.596 -0.1738 -0.0260  0.2639
 4665W        W24199   5.261   0.844  10.999 -0.0342  0.0852  0.2405
 4666W        W24200   7.696   4.012  14.139 -0.0343 -0.1478 -0.1701
 4667W        W24201   6.398   7.167   3.286  0.0940  0.1341 -0.0079
 4668W        W24202  19.000  10.120  11.725 -0.1177  0.0557  0.0083
 4669W        W24203   8.081  10.562   2.239 -0.2779  0.1080  0.3108
 4670W        W24204  12.283   4.257  12.502  0.1074  0.1953 -0.0324
 4671W        W24205   2.868  13.156   2.788 -0.0756  0.0803  0.1619
 4672W        W24206  18.045  16.186   4.216  0.0453 -0.2751 -0.2476
 4673W        W24207  16.932   7.907   3.408  0.1776 -0.1110  0.2219
 4674W        W24208  12.679   8.149  12.284 -0.0025 -0.0827  0.0127
 4675W        W24209  17.201   7.878   1.127  0.1017 -0.1152  0.2082
 4676W        W24210   7.146  11.818   2.596  0.3281 -0.0932 -0.4515
 4677W        W24211   0.346   3.518   2.751 -0.0373  0.1222 -0.0504
 4678W        W24212   9.324  14.054   1.469  0.1188 -0.1474 -0.2058
 4679W        W24213  19.484   8.081  12.271  0.2078  0.0429 -0.2841
 4680W        W24214  18.008   9.884   2.959  0.0419  0.2133 -0.1035
 4681W        W24215   9.152   9.897  13.163  0.1876 -0.0316 -0.2572
 4682W        W24216  12.923  12.410  13.919 -0.3443 -0.3389  0.2434
 4683W        W24217  10.315  16.666   1.413 -0.1619  0.0536 -0.2399
 4684W        W24218  12.136   8.260  13.003  0.3793 -0.0757 -0.2007
 4685W        W24219  11.070   1.193  11.941  0.2204  0.1264 -0.2269
 4686W        W24220  19.000   9.731   1.001 -0.1237 -0.0990 -0.0862
 4687W        W24221   8.660  11.200  14.086 -0.0038 -0.1824  0.2132
 4688W        W24222   3.394  15.789  12.624  0.0425 -0.0278 -0.2131
 4689W        W24223  12.326  10.735   3.065 -0.2737 -0.0686  0.0273
 4690W        W24224   0.978   7.857   0.313 -0.2610 -0.0386 -0.2625
 4691W        W24225   9.597   5.225   1.397 -0.5740  0.0783 -0.2446
 4692W        W24226  18.327  17.875  11.438 -0.1020 -0.2576  0.2691
 4693W        W24227   3.783  15.808   3.740 -0.2400 -0.0929  0.2264
 4694W        W24228  17.546   2.409  10.115 -0.2507  0.0721  0.2212
 4695W        W24229   2.638   2.509   0.822  0.0119  0.0307  0.1677
 4696W        W24230   2.794  12.370   1.328 -0.1000  0.0729 -0.2670
 4697W        W24231   5.250  15.447   3.531  0.1001 -0.1574  0.0611
 4698W        W24232   1.336  16.438  13.675  0.0977 -0.1062  0.4538
 4699W        W24233   0.812   0.905   9.423 -0.1304  0.2231 -0.0807
 4700W        W24234  13.243   2.746  13.292 -0.0343  0.0085 -0.1462
 4701W        W24235  13.373   2.108   2.760 -0.1621  0.1050 -0.0906
 4702W        W24236  13.040   1.992   2.299 -0.3100  0.0891 -0.2143
 4703W        W24237  19.440   4.521  11.658  0.3030 -0.1585  0.1316
 4704W        W24238   1.454  11.738  12.356 -0.2565  0.2875 -0.2674
 4705W        W24239   6.757  18.652  10.898  0.2949 -0.2617  0.1788
 4706W        W24240  13.873   2.666   2.073 -0.2407  0.0814  0.0651
 4707W        W24241  18.915   3.120  10.493  0.0107  0.0273 -0.1353
 4708W        W24242  14.773  18.851   9.147  0.0447 -0.0562  0.0448
 4709W        W24243   4.585   3.850   1.106 -0.0238 -0.3443 -0.1323
 4710W        W24244  15.622   3.281  13.928 -0.4012 -0.0737 -0.0688
 4711W        W24245  14.179  14.880   0.798 -0.0127  0.0516 -0.0610
 4712W        W24246  10.257   2.566  14.075  0.2151 -0.0337 -0.0915
 4713W        W24247  15.451   4.695   0.174 -0.1208  0.2711 -0.0903
 4714W        W24248  13.859   5.311  10.380 -0.2010 -0.4368 -0.4041
 4715W        W24249   5.650  12.926   1.233  0.0357 -0.1778  0.0621
 4716W        W24250   6.896  11.967  13.205  0.1734  0.1300 -0.1797
 4717W        W24251   6.399  15.106   4.541  0.3295  0.0149  0.0892
 4718W        W24252   6.405  11.788   4.193 -0.1010 -0.1710  0.1596
 4719W        W24253  14.130  10.961  12.822 -0.2564 -0.2093 -0.3449
 4720W        W24254  18.970  17.568   2.223 -0.0619 -0.0223  0.1062
 4721W        W24255   3.576   2.281  10.944  0.3295 -0.0547  0.0399
 4722W        W24256  14.271  16.563   9.735 -0.1447 -0.0310 -0.2989
 4723W        W24257  17.069   2.771   4.112 -0.2651 -0.0307  0.3292
 4724W        W24258   3.486  12.931  10.832  0.0275  0.1903  0.0301
 4725W        W24259   1.593   0.294   0.915  0.1309  0.1015  0.0649
 4726W        W24260   6.669   8.416   5.321  0.0944  0.1118 -0.0306
 4727W        W24261   5.212  16.966   3.445 -0.0030 -0.1498 -0.1054
 4728W        W24262  17.349   8.197   3.459  0.1301  0.3233  0.3462
 4729W        W24263  10.485   9.700  12.515  0.2745 -0.0176  0.3593
 4730W        W24264  12.339   1.169   3.299 -0.0638  0.0678 -0.0834
 4731W        W24265   3.787   2.825  11.194  0.2264  0.1536  0.1309
 4732W        W24266  14.663   1.152   3.726 -0.1274  0.2357  0.0231
 4733W        W24267   8.730   8.402  10.048 -0.0183  0.2087  0.3148
 4734W        W24268  18.144  14.847  13.469  0.0187  0.3561  0.1940
 4735W        W24269  12.239  17.731  13.256  0.1285 -0.0357 -0.1062
 4736W        W24270   5.837  10.672   2.169  0.0182 -0.0237 -0.0358
 4737W        W24271  12.865  10.645  13.272 -0.2696  0.0507 -0.1152
 4738W        W24272   0.523   8.946  13.325  0.2298 -0.2160  0.1525
 4739W        W24273  14.464   8.700  13.448  0.0629  0.0755 -0.1126
 4740W        W24274  18.667   9.689   1.412  0.1471 -0.1764 -0.3088
 4741W        W24275   1.242  10.167   3.344  0.3129 -0.3534  0.0303
 4742W        W24276  13.279  10.923  13.334 -0.5246 -0.3898 -0.1315
 4743W        W24277  10.098   8.218  11.266  0.1987  0.0167  0.1304
 4744W        W24278   5.009   9.907   3.766  0.0488 -0.0928  0.4527
 4745W        W24279  17.246   4.187  11.516  0.0336 -0.2282  0.4322
 4746W        W24280  14.149  11.645  11.477  0.0721 -0.2990 -0.0168
 4747W        W24281   8.702   1.998   0.120 -0.0534  0.0852 -0.3674
 4748W        W24282  14.351  17.306  13.659  0.0380 -0.1445  0.1878
 4749W        W24283  12.817   5.963  12.664 -0.0083 -0.1925 -0.0992
 4750W        W24284   9.334  10.915   0.847  0.0918 -0.0517  0.1177
 4751W        W24285   6.236  16.961   2.661  0.0923  0.1520 -0.4175
 4752W        W24286  13.540  19.438   2.905 -0.2296 -0.1479 -0.0033
 4753W        W24287  12.358   7.279   0.811 -0.0816 -0.0671  0.0748
 4754W        W24288   5.841   5.480  10.749 -0.2581  0.0163 -0.0320
 4755W        W24289  10.214   0.609  12.263 -0.1608  0.1489  0.2405
 4756W        W24290  15.881  10.469   4.343  0.0183  0.4162 -0.4597
 4757W        W24291   0.514   1.921  11.458  0.1484 -0.2511 -0.1889
 4758W        W24292  15.430   6.954   1.175  0.0559 -0.2843  0.1682
 4759W        W24293  10.283  16.745  13.876 -0.0790 -0.2763 -0.0036
 4760W        W24294   4.811   8.153  11.586  0.3111  0.3974  0.1278
 4761W        W24295   2.916  11.682   2.333  0.1362  0.1211 -0.1184
 4762W        W24296  13.678  11.823   2.245 -0.0944  0.3857  0.1444
 4763W        W24297  10.317  10.490   2.770  0.1787 -0.0357  0.0178
 4764W        W24298  14.122   9.070  13.617  0.2760  0.0003  0.0850
 4765W        W24299  10.055   6.127  11.878  0.0326 -0.0702 -0.2320
 4766W        W24300   9.695   3.254   2.257 -0.3162  0.1026  0.0675
 4767W        W24301  17.261   3.550   4.335 -0.0605 -0.2621  0.0085
 4768W        W24302  15.643  18.947  10.759  0.1973  0.1395  0.0630
 4769W        W24303  12.038   8.997   3.645 -0.0865 -0.1320 -0.1059
 4770W        W24304   6.391  14.048  10.442  0.0089 -0.0701 -0.1977
 4771W        W24305   7.138   0.949  14.163  0.1231  0.3828 -0.0606
 4772W        W24306  14.784  12.429  13.581 -0.5148  0.2519 -0.0659
 4773W        W24307   4.545  19.398   3.000 -0.2458 -0.1776  0.2191
 4774W        W24308   6.511  10.075  12.872  0.2264  0.4345  0.0558
 4775W        W24309  11.817  14.718   9.362 -0.0067  0.0122  0.2228
 4776W        W24310  17.252   1.970  12.474 -0.3600 -0.0027 -0.1172
 4777W        W24311   2.324  12.822  14.036  0.2909 -0.1330  0.1611
 4778W        W24312   8.847  15.488  12.825  0.3475 -0.2933 -0.1637
 4779W        W24313   9.256   5.008  10.729 -0.0263 -0.1575  0.1797
 4780W        W24314   6.210  13.411  12.705 -0.1309  0.0999  0.4204
 4781W        W24315   8.551   6.714   0.287  0.2892 -0.0263 -0.0784
 4782W        W24316   5.495   2.754   3.722  0.0928  0.2425  0.1167
 4783W        W24317   6.275  11.957  12.658 -0.1167  0.2310  0.0541
 4784W        W24318   4.699  17.895  13.741 -0.2308  0.1213 -0.0928
 4785W        W24319   3.734   6.447   2.225 -0.1149 -0.3934 -0.1557
 4786W        W24320   6.279   6.067   2.380  0.0043  0.2152 -0.0536
 4787W        W24321   0.242  18.528   1.967 -0.2537  0.1727 -0.2697
 4788W        W24322  10.168   9.333   3.489 -0.0558 -0.0591  0.1487
 4789W        W24323  17.022  16.103  11.028 -0.1303 -0.2101 -0.1606
 4790W        W24324  15.969   8.288   3.783 -0.0421 -0.3129 -0.0349
 4791W        W24325   9.792  15.727   1.889 -0.0806  0.1690 -0.1559
 4792W        W24326   3.242  16.863   1.571 -0.3436 -0.0412  0.0320
 4793W        W24327   7.839   6.754  14.107 -0.2438  0.0596 -0.4376
 4794W        W24328  19.517  12.761  12.711 -0.0565  0.2760  0.0926
 4795W        W24329  11.690   4.354  11.103 -0.2526 -0.1552  0.0842
 4796W        W24330  19.378   1.790   1.909 -0.0906 -0.3807  0.0313
 4797W        W24331   8.561   2.002  13.988  0.0003  0.3100  0.1324
 4798W        W24332   6.097  17.078   1.243  0.0687 -0.2832 -0.1595
 4799W        W24333   3.120  11.423  12.182 -0.3630  0.2278  0.2812
 4800W        W24334  18.066  16.981   2.308 -0.1515 -0.0640 -0.1841
 4801W        W24335  11.784   7.597   3.876  0.1567  0.2185  0.1636
 4802W        W24336  15.038   5.153  12.454 -0.2151 -0.0527 -0.1754
 4803W        W24337   5.135  16.048  14.190  0.1025  0.1323  0.1068
 4804W        W24338   7.850   7.509   2.410  0.2730 -0.3212  0.0200
 4805W        W24339  15.808   1.716  13.415  0.0649  0.0287  0.0791
 4806W        W24340   7.836  17.773  14.202 -0.0982 -0.3617  0.0956
 4807W        W24341  14.263   8.402   2.452  0.1366 -0.2219  0.0648
 4808W        W24342  19.487  18.820   3.372 -0.1515 -0.0085 -0.1577
 4809W        W24343  13.195   4.007   3.158 -0.1793  0.1181 -0.0932
 4810W        W24344   0.606   7.302  11.200  0.0758  0.0804  0.2873
 4811W        W24345   7.476   4.512   3.178  0.2655  0.2704  0.0949
 4812W        W24346   5.354   9.337  11.825  0.2521  0.0378 -0.1847
 4813W        W24347  14.371   5.239   2.144 -0.0825 -0.1518  0.0296
 4814W        W24348  11.712   7.267  13.567 -0.4546  0.1129  0.2586
 4815W        W24349  15.677  17.268   2.653  0.0376  0.0259  0.0536
 4816W        W24350  13.866   4.714   2.668 -0.1773 -0.0327  0.0797
 4817W        W24351  17.353  14.431  13.384  0.0561  0.2114  0.1888
 4818W        W24352  12.124   5.352  13.077  0.0339 -0.1290  0.2252
 4819W        W24353   4.148  19.400   1.943 -0.2905  0.1508 -0.2151
 4820W        W24354  16.520   8.195  12.822 -0.1743  0.2443  0.0051
 4821W        W24355  15.466  12.369   3.669 -0.1089  0.2952  0.0554
 4822W        W24356  15.946  19.492   9.836 -0.7163  0.0917  0.1120
 4823W        W24357   1.027   6.068  13.165  0.1891 -0.2792 -0.0973
 4824W        W24358   4.678  10.948   0.315 -0.2531  0.2008 -0.0723
 4825W        W24359  18.842  18.367  13.421 -0.0103 -0.1839 -0.0666
 4826W        W24360   5.931   4.040   0.729 -0.1658 -0.0558 -0.4186
 4827W        W24361   9.594  13.549   3.504 -0.1569 -0.4500 -0.0922
 4828W        W24362   0.406  16.760  13.142  0.1918 -0.0020  0.0529
 4829W        W24363   0.618   0.957  12.837  0.3163  0.0109 -0.2081
 4830W        W24364  10.880   3.137  13.666  0.0100  0.0511  0.1733
 4831W        W24365   7.378   3.332   3.597  0.0768  0.2208 -0.3190
 4832W        W24366   3.696  14.321  12.481 -0.1063 -0.0953 -0.0303
 4833W        W24367   9.398   2.554   3.650 -0.0527  0.1035  0.0460
 4834W        W24368  10.729  10.378  12.018  0.1531  0.1167 -0.0405
 4835W        W24369   4.719  14.937   1.741 -0.3224  0.0221  0.0823
 4836W        W24370   2.202  11.045  13.925  0.0447 -0.2192  0.3648
 4837W        W24371  14.374  18.971  10.488 -0.2220 -0.3157 -0.0274
 4838W        W24372   3.667   7.298  13.430  0.1577 -0.1451 -0.0785
 4839W        W24373  10.034   2.107  11.554  0.0276 -0.2902  0.1507
 4840W        W24374   3.360   1.785   2.453  0.1242 -0.0743  0.1705
 4841W        W24375   5.011  10.890   1.860  0.2102  0.2111  0.0848
 4842W        W24376   1.007   9.090  13.214  0.0796  0.0530 -0.1101
 4843W        W24377   6.552   9.635  12.513 -0.0653  0.0224  0.1321
 4844W        W24378   1.208  18.900   1.292  0.0598 -0.1309 -0.3377
 4845W        W24379   5.346  16.642  13.422 -0.2883  0.0324  0.0541
 4846W        W24380   3.964  13.608  11.942 -0.1706  0.3555  0.1648
 4847W        W24381   5.858  17.860  12.591 -0.1110  0.0443 -0.1807
 4848W        W24382   4.882   2.562  12.926 -0.0501 -0.0948  0.1737
 4849W        W24383  17.464  13.477  11.241 -0.3182 -0.0026  0.0594
 4850W        W24384  10.537  13.471  11.982  0.1588 -0.1154  0.0611
 4851W        W24385  12.206   1.692   2.430  0.0510 -0.1050  0.4269
 4852W        W24386   4.029  17.538   1.783 -0.1499  0.0760 -0.0041
 4853W        W24387  15.681   5.741   2.206  0.2448  0.0622  0.0081
 4854W        W24388  10.027  13.917  11.927 -0.2449  0.0475 -0.0536
 4855W        W24389   6.394   5.814   0.397  0.1769 -0.1724 -0.2211
 4856W        W24390   5.141  17.325  12.754 -0.3236 -0.1075 -0.1019
 4857W        W24391   6.251  16.193  12.680 -0.2172 -0.0993  0.0753
 4858W        W24392   5.540   7.546  13.335  0.0096  0.1455  0.0422
 4859W        W24393  17.281  11.520   2.452  0.0133 -0.0121 -0.0292
 4860W        W24394  15.827   2.318   1.398  0.0639 -0.0551  0.2166
 4861W        W24395  19.040  10.907   2.708 -0.1604  0.2507 -0.1052
 4862W        W24396   2.230   2.701   1.589  0.0397 -0.2319  0.0348
 4863W        W24397   4.914   0.413   1.978  0.1616 -0.2166 -0.0709
 4864W        W24398  17.884  11.187  13.059  0.0754  0.3647 -0.2058
 4865W        W24399   7.387   1.560  13.145  0.0709 -0.4026 -0.2485
 4866W        W24400  17.666  10.613   4.272  0.0139  0.1398 -0.3113
 4867W        W24401   3.736   9.901   4.022  0.0976 -0.0489  0.0951
 4868W        W24402  18.067   0.351  11.111  0.3674 -0.3207 -0.0645
 4869W        W24403  12.212   1.773  14.191  0.0735 -0.0027  0.1623
 4870W        W24404   8.722   8.836  13.615 -0.3567 -0.0981 -0.0951
 4871W        W24405   0.646   2.127   1.880  0.2475  0.3011  0.1408
 4872W        W24406   9.417   0.644  11.290  0.2721 -0.1254  0.0938
 4873W        W24407  18.642  13.959  12.688 -0.2408 -0.2188 -0.0550
 4874W        W24408   0.019  15.282   1.836  0.2210 -0.1089 -0.0480
 4875W        W24409  10.354   1.909  11.869  0.1866 -0.0083 -0.2901
 4876W        W24410   6.628   1.155  11.476  0.3572  0.0242 -0.1720
 4877W        W24411   9.141  15.930   3.282  0.0284 -0.0926 -0.0699
 4878W        W24412  19.110   1.851  11.182 -0.0102 -0.2350 -0.0906
 4879W        W24413  11.491  17.890   3.692 -0.0818 -0.2116  0.0771
 4880W        W24414  19.063  14.510  11.258  0.2125  0.0269 -0.0997
 4881W        W24415   4.330   0.324   3.075  0.2336 -0.0192  0.2155
 4882W        W24416  19.264   6.683  12.744  0.2144 -0.0539  0.1987
 4883W        W24417   8.855  17.819  10.922  0.0615  0.2023 -0.2458
 4884W        W24418   3.277  13.212   2.034 -0.1192  0.2661 -0.2130
 4885W        W24419   2.159   9.074   0.364 -0.0712  0.5311  0.0119
 4886W        W24420  11.631   8.804  13.663 -0.0668 -0.0388 -0.0405
 4887W        W24421  17.942   6.582  13.852 -0.1517 -0.0028 -0.1039
 4888W        W24422   9.096   6.998   2.039 -0.0161  0.4743 -0.1621
 4889W        W24423   2.313  11.648   2.381 -0.1881  0.0966 -0.2569
 4890W        W24424   2.084   1.341  11.841  0.0941 -0.0287 -0.2278
 4891W        W24425   8.821   0.395  10.448 -0.1993  0.1634  0.0543
 4892W        W24426  14.837   2.991  10.767 -0.0580 -0.3898  0.2437
 4893W        W24427  16.351   5.487   3.336 -0.0881 -0.1538  0.1489
 4894W        W24428  13.139   8.439   1.280 -0.0481  0.4504  0.1078
 4895W        W24429   4.277   5.276   0.058  0.0437 -0.2411  0.1299
 4896W        W24430  18.610   7.341  13.250 -0.1980  0.0328 -0.1719
 4897W        W24431  18.670   7.414  12.737 -0.2594  0.4500  0.1079
 4898W        W24432  15.319  11.081   2.738 -0.0432 -0.1676  0.0506
 4899W        W24433  16.299   4.578   3.880 -0.0758  0.1580 -0.1764
 4900W        W24434   4.856  16.421   1.337  0.2227 -0.0945  0.1858
 4901W        W24435  18.897  16.081   9.361 -0.0958  0.0277 -0.0271
 4902W        W24436   4.793   5.736  10.491 -0.2789 -0.0745 -0.0882
 4903W        W24437   1.936   6.831   2.249 -0.1473  0.0612 -0.1223
 4904W        W24438   8.716  16.617  10.296  0.0171  0.2326 -0.3437
 4905W        W24439   7.777   7.361   0.046 -0.0011 -0.0714  0.1917
 4906W        W24440  17.818   0.362  13.974 -0.0001 -0.2570  0.0072
 4907W        W24441  11.945  15.120   2.062  0.1846  0.0177  0.2370
 4908W        W24442  12.995  13.535   3.489  0.1985  0.2189  0.1255
 4909W        W24443   3.869   2.065  12.376  0.1107  0.0967 -0.1803
 4910W        W24444   3.715   7.424  12.975 -0.0383 -0.2293 -0.0779
 4911W        W24445   2.991  19.367   2.823 -0.0005 -0.5032  0.2277
 4912W        W24446   1.235   8.701  12.900 -0.1426  0.1382 -0.0145
 4913W        W24447   0.229  13.881   3.626  0.2066 -0.3384 -0.2057
 4914W        W24448  13.640   9.547  13.480 -0.0378  0.2910 -0.0536
 4915W        W24449  12.912   8.626   2.671  0.2991 -0.1322  0.1225
 4916W        W24450   2.088   0.797   3.630  0.2809 -0.0167 -0.0298
 4917W        W24451  17.692  13.975  11.507  0.0797  0.1326 -0.0418
 4918W        W24452   2.722   6.753  10.930  0.1017  0.0077  0.2028
 4919W        W24453  15.299  18.972   3.647 -0.2271 -0.0013  0.1719
 4920W        W24454   8.990   6.591  11.613  0.1776  0.1863  0.1806
 4921W        W24455  17.836   6.339  13.168 -0.2888  0.0126  0.0175
 4922W        W24456  11.026   8.744  11.182 -0.0144  0.1043 -0.0036
 4923W        W24457  10.898   1.688   2.930  0.2164 -0.0165 -0.3441
 4924W        W24458  16.717  18.865  10.751  0.4059  0.3017 -0.3519
 4925W        W24459   7.229   8.948   2.333  0.2125  0.0346  0.1864
 4926W        W24460  17.136   8.787   2.941 -0.1445  0.1164  0.0740
 4927W        W24461   0.890   2.377   2.244 -0.0565  0.0766  0.0889
 4928W        W24462  13.851   4.210  11.400 -0.1893 -0.0031  0.1117
 4929W        W24463  12.932   2.679   0.094  0.0082  0.0064  0.2016
 4930W        W24464   7.164   9.234   4.537 -0.2489 -0.0979  0.0318
 4931W        W24465   1.219   8.379   4.068  0.0750 -0.0439 -0.1518
 4932W        W24466  16.382  16.597  10.699 -0.1019 -0.3297  0.2518
 4933W        W24467  14.112   5.952   3.872  0.3470 -0.1048 -0.0991
 4934W        W24468   2.794   5.374  14.001  0.0308 -0.3551 -0.2559
 4935W        W24469   0.064   1.112   1.173  0.0647 -0.0101  0.3410
 4936W        W24470   2.320   5.993   1.609 -0.2405  0.0563  0.2411
 4937W        W24471   0.422   9.003  10.562  0.2255  0.0684 -0.1356
 4938W        W24472  11.587  14.147   0.766 -0.1440  0.5112  0.2231
 4939W        W24473   8.719   7.447  12.216  0.0656 -0.3474 -0.0474
 4940W        W24474  14.758  13.209  11.324 -0.1294  0.0620  0.0915
 4941W        W24475   8.566  12.044   0.795  0.1799  0.0126 -0.2018
 4942W        W24476   3.768  11.909   4.477 -0.0171 -0.4921 -0.1858
 4943W        W24477  15.610  15.596   1.587 -0.3604  0.0834  0.3503
 4944W        W24478   3.750   5.051   0.871 -0.1310  0.1484  0.1245
 4945W        W24479   0.538  13.110  10.754  0.0523 -0.1772  0.1800
 4946W        W24480   5.515  13.990  13.541  0.0790  0.2020  0.0727
 4947W        W24481  17.693  19.165  13.124  0.1044 -0.1694  0.1271
 4948W        W24482   1.055   5.118  10.734  0.0344  0.2485 -0.0868
 4949W        W24483   4.179   5.878  12.089  0.3044  0.0896  0.0883
 4950W        W24484  13.491   6.419  13.118 -0.1797 -0.0792 -0.0562
 4951W        W24485   2.189  14.421  10.309 -0.2240 -0.1799  0.0214
 4952W        W24486   0.588   2.567  13.364 -0.2245 -0.3228  0.1152
 4953W        W24487   2.718   2.476   3.954  0.2062 -0.2175  0.0976
 4954W        W24488  15.448  16.042   3.696 -0.0828  0.1129 -0.0176
 4955W        W24489  14.714   3.474   4.689  0.2228 -0.1264 -0.1077
 4956W        W24490  16.023   3.699  12.063  0.0177  0.2711 -0.1029
 4957W        W24491  11.003  17.784   0.991  0.0811  0.1840 -0.0294
 4958W        W24492  14.429  12.805   1.369  0.0174 -0.0784 -0.2072
 4959W        W24493  18.845   8.145  11.170  0.1820 -0.1442  0.3728
 4960W        W24494  16.092   3.941   1.195  0.2725  0.0244 -0.0049
 4961W        W24495   9.526  14.963  12.240  0.3793  0.0205 -0.0509
 4962W        W24496  17.628   9.592  11.219 -0.0568  0.2042 -0.1303
 4963W        W24497  11.106  11.707  13.926  0.1835  0.2220  0.1267
 4964W        W24498   4.530   4.019  10.732  0.2573 -0.0175 -0.0250
 4965W        W24499   0.265  14.488   2.591  0.0825  0.1633 -0.1172
 4966W        W24500  11.131  14.061   0.460 -0.1165 -0.0270  0.3884
 4967W        W24501   4.997   4.211  11.586  0.3456 -0.3578 -0.0815
 4968W        W24502  19.389   1.963   1.408  0.2306  0.3625 -0.1059
 4969W        W24503   1.297  16.409   1.722 -0.0327 -0.2252 -0.1456
 4970W        W24504  12.778  16.710  10.034  0.2703  0.0800  0.0677
 4971W        W24505  13.005  16.987  13.057  0.1408  0.3093  0.0440
 4972W        W24506  10.476   6.402   2.199  0.2247  0.2775  0.1864
 4973W        W24507  13.704   4.674   2.080  0.1588 -0.1991 -0.2211
 4974W        W24508  11.640   6.224  11.859 -0.3200  0.0991  0.1382
 4975W        W24509   8.188   9.560   3.635 -0.3819 -0.2993  0.1742
 4976W        W24510   7.237   1.937  10.217 -0.2332  0.3081 -0.0719
 4977W        W24511   1.037   1.610   3.682 -0.1708  0.0489  0.1494
 4978W        W24512  15.093  17.000  13.051 -0.0036  0.0984 -0.0984
 4979W        W24513   8.846  11.325   1.859 -0.0396 -0.3249  0.0087
 4980W        W24514   9.356  11.716  12.638  0.0055 -0.1957 -0.2815
 4981W        W24515   1.950  18.341  10.842 -0.1367  0.2922 -0.1431
 4982W        W24516   9.805   2.992  11.262  0.1856 -0.0477 -0.0679
 4983W        W24517   4.187   9.931   4.453 -0.2103 -0.1478 -0.1081
 4984W        W24518  14.140  15.873   1.229  0.0019 -0.0418 -0.2605
 4985W        W24519   3.017   1.524   4.069 -0.2127 -0.0396 -0.1845
 4986W        W24520  10.010  11.301  11.644 -0.1649  0.0519  0.0440
 4987W        W24521   6.170  13.795   0.871 -0.1001  0.2395 -0.1113
 4988W        W24522  17.987  12.747   3.609  0.0304 -0.1186  0.0751
 4989W        W24523   3.687   7.881   1.509 -0.2650  0.4452 -0.0979
 4990W        W24524   0.982  11.881  14.113 -0.0466 -0.0194  0.1293
 4991W        W24525  14.540  11.515   0.710  0.0173 -0.1202 -0.1525
 4992W        W24526   0.576   6.933   1.076 -0.3239  0.2588 -0.2540
 4993W        W24527  10.009   4.875   0.355  0.1069  0.2263 -0.1944
 4994W        W24528   3.455  13.655  14.130 -0.3780 -0.3544 -0.0068
 4995W        W24529   9.948  13.735  10.965  0.0447 -0.0666 -0.3573
 4996W        W24530  18.831   1.682  11.645 -0.0450 -0.0091  0.2113
 4997W        W24531  15.721  13.436  11.605 -0.2054 -0.1135  0.0456
 4998W        W24532   7.524   5.385   2.849 -0.0668  0.0414  0.0193
 4999W        W24533   4.699  16.181   2.048 -0.0303 -0.0619 -0.3045
 5000W        W24534  15.078   7.569  11.138 -0.0305 -0.0371  0.0322
 5001W        W24535  15.709   7.167   2.966 -0.1653  0.1021 -0.2770
 5002W        W24536  10.882   2.404  11.696  0.0429  0.1262 -0.3357
 5003W        W24537  16.426   7.006  13.588  0.0655  0.1366 -0.2826
 5004W        W24538  19.505  19.171  11.955 -0.2393 -0.0069 -0.1794
 5005W        W24539  11.443   1.716  11.135 -0.1596  0.0082  0.1080
 5006W        W24540   5.899   6.147   3.992 -0.2953  0.1823 -0.3963
 5007W        W24541   2.719   2.210   0.046  0.1267  0.0426 -0.1505
 5008W        W24542  10.643   3.330   3.685 -0.0468 -0.1315  0.3710
 5009W        W24543  17.731   7.113  14.031 -0.1475  0.1413  0.0337
 5010W        W24544   0.688   7.081   0.549  0.3607 -0.1251 -0.2932
 5011W        W24545  12.671  17.440  11.651  0.1956 -0.5073 -0.0691
 5012W        W24546   4.145   1.158   4.925 -0.0622 -0.0925 -0.0365
 5013W        W24547   2.480  13.346  13.711  0.2567  0.1022 -0.2652
 5014W        W24548  12.336   7.525  11.940  0.1003  0.1785 -0.1365
 5015W        W24549  19.463   8.603  13.985  0.0545  0.1109 -0.4701
 5016W        W24550  12.124  10.293   3.096  0.1135 -0.2439 -0.0032
 5017W        W24551   5.028  15.240   0.581  0.0964 -0.0679  0.1684
 5018W        W24552  15.482   1.374  13.289  0.0690  0.0533 -0.3429
 5019W        W24553   3.203  14.513  10.094 -0.0446  0.0052  0.1650
 5020W        W24554   3.738   3.624   3.331 -0.0649 -0.0856  0.0250
 5021W        W24555  13.426  19.142  11.955  0.3097 -0.0960 -0.1649
 5022W        W24556  17.107   2.311   4.266 -0.3046 -0.0999 -0.1731
 5023W        W24557  12.800   2.708  12.994 -0.1534  0.0623 -0.0610
 5024W        W24558  14.879   2.282   0.381  0.1030 -0.4823 -0.1745
 5025W        W24559  10.802  13.308   1.993  0.0780  0.2276  0.0494
 5026W        W24560  12.236   7.814   2.242 -0.1739 -0.0268  0.4292
 5027W        W24561   2.599  15.745  10.060  0.1631  0.1515  0.0661
 5028W        W24562  17.409  18.659  14.371  0.0944  0.1431 -0.0237
 5029W        W24563   3.035  14.679   0.658 -0.0215  0.2340 -0.1336
 5030W        W24564   8.105   5.213   1.282 -0.1354 -0.0742  0.1580
 5031W        W24565   0.791  13.989   0.360  0.2152  0.3371 -0.1276
 5032W        W24566   3.058  19.305  12.485 -0.0088 -0.3190  0.1091
 5033W        W24567  14.388   0.668  10.069 -0.4164 -0.3547 -0.0430
 5034W        W24568   0.773  11.438   4.064  0.1430  0.0683  0.4497
 5035W        W24569   8.352  15.681  10.618 -0.1504  0.0930  0.1364
 5036W        W24570  15.786  12.769  12.239  0.1909  0.1008 -0.1641
 5037W        W24571   7.388  11.538   2.944 -0.1358  0.1699  0.1593
 5038W        W24572  15.543  14.101  12.728 -0.1837  0.1977  0.1166
 5039W        W24573  19.371  14.544   0.054 -0.1196  0.1581 -0.2659
 5040W        W24574  17.665  18.229   2.263  0.1646 -0.1141 -0.1240
 5041W        W24575   2.155  11.722  10.791 -0.0671  0.2660 -0.0579
 5042W        W24576  17.703   6.596   4.436  0.0575  0.0008 -0.2278
 5043W        W24577   4.072   0.815  12.568 -0.0784  0.2584  0.1854
 5044W        W24578  11.375  13.910   3.174  0.0961 -0.0413  0.2491
 5045W        W24579  11.296  17.938   9.946  0.0016  0.0382  0.0352
 5046W        W24580   8.955  12.137  12.717  0.1287  0.2144 -0.3471
 5047W        W24581   5.589   0.045   0.211  0.0875 -0.4531  0.3010
 5048W        W24582  17.404   7.279   1.867  0.2289 -0.2975  0.0590
 5049W        W24583   8.933  18.269  13.540 -0.1574 -0.0160  0.1073
 5050W        W24584   6.508   0.019  14.351  0.1296  0.1157  0.1824
 5051W        W24585   7.500  16.907   1.067 -0.1986  0.0534  0.4614
 5052W        W24586  15.076  15.536   4.347  0.0472  0.1381  0.0677
 5053W        W24587  11.951  17.971  12.869 -0.2010 -0.1399 -0.0888
 5054W        W24588   0.779  17.271   0.699 -0.2652  0.3119  0.2530
 5055W        W24589   3.580  11.622  12.242  0.0213  0.2585  0.0367
 5056W        W24590   1.952   8.223  11.276 -0.3042  0.4044 -0.0609
 5057W        W24591   8.230   1.454  12.921  0.0259 -0.2501  0.0138
 5058W        W24592   5.243   1.186  11.325  0.0582 -0.3679  0.3637
 5059W        W24593   0.784  10.623   0.441  0.0775 -0.0237  0.1762
 5060W        W24594   9.978  17.175   1.637 -0.0909 -0.0335 -0.2743
 5061W        W24595   8.614   2.492  13.260  0.0946 -0.4412  0.2722
 5062W        W24596   0.034   6.992  10.632 -0.3058 -0.2231 -0.5515
 5063W        W24597  16.257   9.153  11.390 -0.1332  0.2917 -0.0407
 5064W        W24598  12.139  19.467   1.420 -0.0109  0.2093 -0.1366
 5065W        W24599   1.925  15.422   2.939 -0.2302  0.1355  0.1345
 5066W        W24600  12.164  17.261  13.306 -0.0890  0.1175 -0.0998
 5067W        W24601   3.337   9.394  12.374  0.1302  0.1571  0.3024
 5068W        W24602   1.340   0.983   4.347  0.1035 -0.1822  0.1274
 5069W        W24603  19.337  12.299  12.467  0.0151 -0.1287  0.0803
 5070W        W24604  17.776  13.916   4.935  0.0383  0.3195  0.3943
 5071W        W24605   9.412   7.525  10.669  0.2110  0.1406  0.1391
 5072W        W24606  14.344   3.950  13.978  0.1734  0.0555 -0.0762
 5073W        W24607   3.548   4.044  11.230  0.1852  0.3421  0.1363
 5074W        W24608   9.120  19.323   4.231 -0.2487 -0.1925  0.3818
 5075W        W24609   7.956  13.425  12.360  0.0571  0.1999  0.2173
 5076W        W24610   0.816  13.384  12.073  0.0321 -0.1681 -0.3140
 5077W        W24611  19.511   6.526  11.556 -0.2513  0.3940  0.0800
 5078W        W24612  11.669  16.561  10.292 -0.1622 -0.1281 -0.0655
 5079W        W24613  13.330   3.927  10.626 -0.0187 -0.0194 -0.2125
 5080W        W24614   2.427   8.052   1.791 -0.0501  0.3143 -0.0870
 5081W        W24615   0.508  15.344  10.077  0.0336  0.0584  0.0692
 5082W        W24616  17.772  10.834   0.477 -0.0175  0.0761  0.1828
 5083W        W24617  10.988  19.141  10.442 -0.1312  0.1331 -0.1557
 5084W        W24618  13.084   3.089   2.415  0.3266 -0.0263 -0.0114
 5085W        W24619   2.315   0.730   0.637  0.1479 -0.1847  0.0042
 5086W        W24620  18.769   7.446   2.765  0.0577 -0.1683 -0.0141
 5087W        W24621  17.294  16.900  12.576 -0.1298 -0.2097  0.1322
 5088W        W24622   0.828   7.974   3.364 -0.2778  0.1170  0.2661
 5089W        W24623   5.905   6.949   0.245 -0.0017  0.0831 -0.0674
 5090W        W24624  17.599   0.404  11.449 -0.0075 -0.1093 -0.0388
 5091W        W24625   9.655   9.974   4.487  0.0065  0.4159 -0.1691
 5092W        W24626  12.170   7.423  13.896 -0.1237  0.0443  0.1877
 5093W        W24627  17.152   4.606   0.836  0.0692  0.1451  0.1200
 5094W        W24628   0.980   5.084   1.146  0.2940  0.0197 -0.0423
 5095W        W24629  16.544  19.026  11.169  0.4226  0.2455 -0.0125
 5096W        W24630   6.428  12.905   0.179 -0.0388 -0.0810  0.0835
 5097W        W24631  19.126   8.796   3.777  0.0078 -0.0082  0.0155
 5098W        W24632   2.829   7.118   2.169 -0.3859  0.0395  0.1119
 5099W        W24633  11.055  14.130  11.624  0.0018  0.1658  0.4458
 5100W        W24634  15.234  19.246  10.705  0.0716 -0.0570 -0.2850
 5101W        W24635  18.498   3.410  10.314 -0.0418  0.1098 -0.0960
 5102W        W24636  10.557   7.827  10.391  0.0970  0.0352 -0.1116
 5103W        W24637   4.008  18.742  13.819  0.1505 -0.0236  0.0402
 5104W        W24638   0.743   1.093   1.744  0.0847 -0.1352 -0.0473
 5105W        W24639   1.638  12.004   1.011  0.2114 -0.1951 -0.1224
 5106W        W24640   5.506  18.460   4.022  0.1139 -0.1309 -0.0273
 5107W        W24641  11.913  11.628   4.770  0.2569 -0.1725  0.0418
 5108W        W24642   2.958   9.966   3.913 -0.0860 -0.1280 -0.0254
 5109W        W24643   1.510  11.363   9.609 -0.0221 -0.1405  0.2358
 5110W        W24644  15.083  10.541  12.194 -0.1394  0.1468 -0.0568
 5111W        W24645   3.565   5.637  12.325  0.0732  0.3254 -0.2181
 5112W        W24646  18.215   4.437   0.612  0.0255 -0.2792  0.0809
 5113W        W24647   5.961   3.161  13.136  0.1614 -0.1638 -0.2636
 5114W        W24648   4.871   9.488   3.993 -0.2968  0.3497  0.1227
 5115W        W24649  16.639   1.346  13.211 -0.0007  0.0153 -0.0079
 5116W        W24650   4.826  17.777   1.040 -0.1975  0.2735  0.2340
 5117W        W24651  17.196  16.552   9.699 -0.1287 -0.3334 -0.0044
 5118W        W24652  17.807  13.106   3.950 -0.2296  0.0743  0.1633
 5119W        W24653  10.962   8.448  13.068  0.2811 -0.0952  0.0146
 5120W        W24654   6.386  16.360   3.328  0.2511  0.1655  0.1713
 5121W        W24655  10.669   3.013   3.101 -0.0967  0.0486  0.1936
 5122W        W24656   3.298  15.992  11.598  0.2537  0.1464  0.0124
 5123W        W24657  15.452  14.651  11.644  0.0328 -0.0160  0.2995
 5124W        W24658   5.829   8.226   2.299  0.1625 -0.1609 -0.1713
 5125W        W24659   9.649  18.791   2.884  0.0001 -0.0736  0.1101
 5126W        W24660  12.805   5.819   0.169 -0.0203 -0.0966 -0.0044
 5127W        W24661  16.408  14.138   3.357 -0.0206 -0.0850 -0.0236
 5128W        W24662  16.713   5.027  10.021  0.0759 -0.0620 -0.1347
 5129W        W24663  18.413   9.706  10.910  0.0113  0.2726 -0.0689
 5130W        W24664  16.794  11.078  11.928  0.2328  0.1244  0.5167
 5131W        W24665   0.731   0.623   1.809  0.4366 -0.0393  0.1314
 5132W        W24666  10.193   0.081   1.607 -0.1859  0.2013  0.0165
 5133W        W24667  10.010  12.685  11.863  0.0524 -0.0409 -0.1505
 5134W        W24668   7.080   0.395   0.943 -0.2946 -0.5039  0.0463
 5135W        W24669  10.331   5.246   3.133 -0.2258 -0.0934 -0.0429
 5136W        W24670  13.510   0.223   2.393 -0.1630  0.1438 -0.2074
 5137W        W24671   4.170   2.671   1.303  0.0407  0.2001 -0.2180
 5138W        W24672   9.692   6.406   1.991  0.1114 -0.0624  0.1420
 5139W        W24673   9.523  10.919  12.941 -0.1201  0.1793  0.1527
 5140W        W24674   4.016  13.085  14.190 -0.2688 -0.1609  0.0674
 5141W        W24675  12.246  18.926  11.032 -0.1816 -0.0562  0.2108
 5142W        W24676  11.528   3.842  11.421 -0.0431  0.3146  0.1462
 5143W        W24677   7.494  10.758  10.838 -0.1354 -0.1447 -0.0050
 5144W        W24678  13.778  11.306  12.880 -0.0771  0.1599  0.3120
 5145W        W24679   1.688   0.455  11.699 -0.0337 -0.1883 -0.1765
 5146W        W24680   2.106  15.603   4.167  0.1708 -0.0338 -0.1755
 5147W        W24681   7.775  13.498  10.999  0.0582  0.1169  0.3036
 5148W        W24682   1.200   6.851   1.246  0.0002 -0.0258 -0.0338
 5149W        W24683  16.619  10.351  10.715 -0.1280  0.0106  0.2483
 5150W        W24684   0.955   3.097   0.900 -0.0359 -0.3429  0.0803
 5151W        W24685  15.097  13.843   3.176  0.1643  0.5409  0.0773
 5152W        W24686  11.707  16.064   1.529  0.0327 -0.0599  0.3754
 5153W        W24687  16.177   6.556   2.490 -0.0640 -0.0511  0.1111
 5154W        W24688   4.361  15.099   3.727  0.0897 -0.1829 -0.0248
 5155W        W24689  17.769   9.620   2.560 -0.3242 -0.1998  0.3010
 5156W        W24690  11.258   7.588   3.163 -0.0463 -0.1555 -0.0610
 5157W        W24691   9.537  17.134   0.806 -0.0935  0.0442  0.0701
 5158W        W24692  15.205  13.497   2.130 -0.1002  0.2584  0.2024
 5159W        W24693   4.501   2.871   1.000  0.0459  0.2964 -0.1083
 5160W        W24694  16.892  13.753   3.255  0.2859 -0.1153 -0.1825
 5161W        W24695   2.516  11.158  14.287  0.2893  0.1367 -0.1715
 5162W        W24696   5.193  12.604   1.544 -0.2917  0.0950 -0.2358
 5163W        W24697   7.363  17.632   0.087 -0.0113 -0.1965  0.1236
 5164W        W24698   2.823  15.581   2.649  0.2478  0.4805 -0.0980
 5165W        W24699   5.314  19.069  11.664  0.0531  0.0923 -0.3235
 5166W        W24700  18.241  14.209   1.395 -0.1744  0.0316 -0.0452
 5167W        W24701   2.761   0.538   0.933  0.2299 -0.1806  0.2889
 5168W        W24702  12.660   9.158  13.118  0.4644 -0.2653 -0.1829
 5169W        W24703  14.919  18.290   2.974 -0.0272  0.1946 -0.1676
 5170W        W24704  15.363   9.999   0.548  0.1769 -0.0518 -0.1116
 5171W        W24705   9.181   9.860   0.751 -0.1234 -0.2189  0.1112
 5172W        W24706  16.899   6.831   0.949 -0.0927  0.0062 -0.0403
 5173W        W24707   0.835  16.085   2.778 -0.1175  0.0839  0.0094
 5174W        W24708   5.907  13.182   2.057  0.0382 -0.2719 -0.0861
 5175W        W24709  17.431  17.106   3.220  0.0411 -0.0152 -0.0859
 5176W        W24710   3.778  10.263  14.214  0.0526  0.1215  0.0636
 5177W        W24711   2.390   3.554  13.734  0.2365  0.1060 -0.2223
 5178W        W24712   5.054  16.583  13.923  0.0548  0.1216 -0.0445
 5179W        W24713  14.733   7.699   2.022  0.2955 -0.0939 -0.2571
 5180W        W24714   0.893  18.160   3.777 -0.0054  0.0149 -0.2065
 5181W        W24715   4.736   5.955   1.360  0.2323  0.1941  0.2265
 5182W        W24716  14.924  14.294   3.098  0.3091 -0.2077 -0.1207
 5183W        W24717  15.135   9.817   1.788  0.0788  0.0816 -0.1508
 5184W        W24718   7.291  10.182   3.017  0.1355 -0.1642 -0.1147
 5185W        W24719   2.837  12.246   1.779  0.0730 -0.1487 -0.0793
 5186W        W24720   8.177  19.028   2.465 -0.0483  0.0360  0.0946
 5187W        W24721  19.339   7.181  12.887  0.4038  0.2586  0.0309
 5188W        W24722   4.579   7.197  14.368  0.0074  0.0718  0.1016
 5189W        W24723   5.966  17.908  13.211 -0.0129  0.1027 -0.1377
 5190W        W24724  11.256  14.901  13.833 -0.3272 -0.0226  0.0210
 5191W        W24725   0.711   8.325   1.089 -0.1984 -0.1257  0.0133
 5192W        W24726   0.547   3.642   1.442  0.0141 -0.0214  0.1171
 5193W        W24727   9.505  13.250  12.829 -0.0330  0.0891  0.1424
 5194W        W24728   3.570   2.729   4.295 -0.2042 -0.3767 -0.0449
 5195W        W24729  18.845   0.989   5.036  0.1310 -0.1269  0.1859
 5196W        W24730  15.168  18.809  13.176  0.0599  0.4617  0.0911
 5197W        W24731  10.495  11.906  13.419 -0.0518  0.4682  0.2781
 5198W        W24732   3.407   4.167  10.743  0.2182 -0.2036 -0.2736
 5199W        W24733  11.562   8.022  14.245 -0.2213  0.0699 -0.1088
 5200W        W24734   9.155   8.083  10.150  0.1657 -0.4909  0.2227
 5201W        W24735   2.019   4.564   3.599  0.0331 -0.1643  0.0796
 5202W        W24736  16.759   0.420   3.857 -0.3033  0.1456 -0.3172
 5203W        W24737   7.520   1.787   9.278  0.0854 -0.1271  0.0882
 5204W        W24738  15.710   8.526  10.952 -0.0074  0.0008 -0.1281
 5205W        W24739   8.737   2.972   0.365  0.3200  0.0313 -0.1422
 5206W        W24740  15.776   7.620   3.781  0.1839  0.6239 -0.1733
 5207W        W24741   0.413   0.707   9.623  0.1798  0.1467  0.4675
 5208W        W24742  14.589  16.905  11.391 -0.0914 -0.1196 -0.1709
 5209W        W24743   6.312  18.616  10.189  0.0825  0.1518 -0.3556
 5210W        W24744  13.164   0.750   0.421 -0.0450 -0.0885  0.1292
 5211W        W24745   0.776  18.969  13.920  0.1007  0.0404 -0.2782
 5212W        W24746   3.646  19.423  10.566  0.0468 -0.1072  0.4684
 5213W        W24747   2.510   5.746   2.474  0.0588  0.0361 -0.3010
 5214W        W24748  19.482  12.029   1.391  0.1551  0.1684  0.0796
 5215W        W24749  14.992  15.820   3.944 -0.2653 -0.1195  0.4356
 5216W        W24750  10.861  16.203  13.363 -0.1343 -0.0184  0.1184
 5217W        W24751   8.574  17.586   2.480 -0.0230 -0.0005 -0.0303
 5218W        W24752  17.851   6.545  12.700 -0.0810  0.2774  0.2078
 5219W        W24753   4.181  17.507  11.716  0.2450  0.0895 -0.1134
 5220W        W24754  18.911   6.127   0.311 -0.0549 -0.0836 -0.3433
 5221W        W24755  14.907   7.000  10.581 -0.2875 -0.4437  0.1194
 5222W        W24756  11.645   3.184   3.591 -0.0840  0.1309  0.0294
 5223W        W24757   0.969   6.429   1.306  0.1040 -0.1767 -0.2571
 5224W        W24758  14.044  14.421  11.571 -0.0219  0.2512 -0.4520
 5225W        W24759   3.916  18.577  11.402  0.1118 -0.2195 -0.1688
 5226W        W24760  17.118  18.148  13.370  0.0137 -0.0191 -0.0910
 5227W        W24761  13.864   6.458  11.040 -0.1813  0.1148 -0.0155
 5228W        W24762   2.455  13.415  10.022  0.2541  0.1888  0.0906
 5229W        W24763  17.570  19.432   9.602 -0.0001  0.1405  0.1190
 5230W        W24764   3.050  14.094   3.363 -0.0856 -0.1350  0.0923
 5231W        W24765  10.833   7.933  12.861  0.0146  0.2098  0.0952
 5232W        W24766   6.395   7.903   3.823  0.3297  0.3132  0.0664
 5233W        W24767  12.487   4.031   3.825 -0.0965 -0.3592 -0.0954
 5234W        W24768   0.373  16.832  11.129 -0.2393  0.0860 -0.0625
 5235W        W24769  17.014  14.696  11.612  0.2572  0.1313 -0.1678
 5236W        W24770  11.234  17.766   1.626 -0.0733  0.0433 -0.0038
 5237W        W24771  18.984  19.427   2.628 -0.0198 -0.4630  0.0391
 5238W        W24772   0.551   3.085   3.115  0.1221 -0.2883 -0.1663
 5239W        W24773   3.795   5.142  12.797  0.0262 -0.2185  0.1592
 5240W        W24774  13.643   5.438   0.043  0.1130 -0.3376  0.1231
 5241W        W24775   5.627  15.219   1.302  0.0025 -0.0824 -0.1075
 5242W        W24776  14.438  17.481  12.889  0.0249  0.0420  0.0093
 5243W        W24777   1.708  14.376   3.119  0.1177 -0.0742 -0.4253
 5244W        W24778   0.597   2.399   0.053 -0.1785 -0.1308 -0.0028
 5245W        W24779   1.356   4.714   1.277 -0.0565  0.0249 -0.0320
 5246W        W24780  13.368   0.521  14.019  0.1974 -0.3217 -0.1300
 5247W        W24781   8.645  10.573  11.980  0.1437 -0.1131 -0.2041
 5248W        W24782  14.880  10.197   0.519 -0.2554 -0.1058  0.2666
 5249W        W24783  13.899   1.538   0.130 -0.0172 -0.0720  0.0912
 5250W        W24784   0.200  11.597  11.743  0.2046 -0.1402  0.3801
 5251W        W24785   8.390   4.730   1.892  0.0820 -0.1005 -0.0799
 5252W        W24786   3.618   2.962  12.399  0.0844 -0.0966 -0.1563
 5253W        W24787  17.302   5.253   2.927 -0.2530 -0.0142 -0.2784
 5254W        W24788   8.785   4.632   3.106 -0.1366 -0.2246  0.1230
 5255W        W24789  13.174   9.636   0.282  0.2875  0.2180 -0.1071
 5256W        W24790  15.441   5.408  13.362  0.2852 -0.2974 -0.5260
 5257W        W24791  13.078   2.891   2.954 -0.0629  0.1682  0.0427
 5258W        W24792  17.282  17.030  10.002 -0.2435  0.1389 -0.0367
 5259W        W24793   7.269   8.567  11.457  0.1934 -0.1094  0.0329
 5260W        W24794   0.453   2.791  11.692  0.2594  0.1853 -0.0222
 5261W        W24795   0.468   5.226   3.099  0.1461  0.0296 -0.0410
 5262W        W24796  17.864  17.340  14.333  0.3181 -0.0473  0.0373
 5263W        W24797  11.446  14.359  13.673  0.0042 -0.2145  0.4851
 5264W        W24798   7.425   4.469  14.331  0.1413 -0.2763 -0.2545
 5265W        W24799   9.927   4.411  11.177 -0.0907  0.0840 -0.1500
 5266W        W24800   6.110   6.805  13.747  0.0349 -0.0198  0.1082
 5267W        W24801   8.969   9.139   1.033  0.1084 -0.2867 -0.2164
 5268W        W24802  16.038   7.316  12.970 -0.3469  0.0727  0.2000
 5269W        W24803   2.128   3.720   4.084  0.0201 -0.1673 -0.2335
 5270W        W24804  17.965  16.621  11.941 -0.1356 -0.1658 -0.0660
 5271W        W24805   9.285   9.999  10.602  0.0048 -0.3371 -0.0340
 5272W        W24806  15.296   6.955   0.070 -0.2279 -0.0781 -0.0340
 5273W        W24807   2.842   8.399  12.350 -0.0165 -0.0440  0.0857
 5274W        W24808   7.400  11.752   2.093 -0.2498 -0.1551 -0.3783
 5275W        W24809  12.153  15.564   2.241  0.2146  0.2396 -0.0635
 5276W        W24810  14.722   6.641   3.699  0.0984 -0.2062 -0.0267
 5277W        W24811   0.094  11.650   0.555 -0.0621  0.0491  0.4423
 5278W        W24812   0.970   9.038  12.659  0.2066  0.0467  0.1491
 5279W        W24813   7.254   1.642   1.832 -0.2153 -0.1589  0.4100
 5280W        W24814   7.239   8.387  13.561  0.1097 -0.2036 -0.1400
 5281W        W24815  16.019   5.511  14.254 -0.0002  0.3394 -0.2444
 5282W        W24816  14.924  10.638  11.622  0.1693 -0.2454 -0.0551
 5283W        W24817  11.907   4.941   1.481  0.1558  0.0130 -0.3630
 5284W        W24818  16.570  16.764   1.263 -0.1790  0.0721  0.0049
 5285W        W24819   3.044  15.129  11.570 -0.0464 -0.0550 -0.0096
 5286W        W24820  11.876  14.217  12.724 -0.3266 -0.0896  0.0444
 5287W        W24821   6.886   0.729   1.826 -0.0812  0.0771  0.0077
 5288W        W24822   7.758   5.592   4.245  0.3466  0.0972  0.0210
 5289W        W24823   8.130  13.314  10.577  0.1119  0.0225 -0.0006
 5290W        W24824   9.620   5.416   0.422 -0.0010 -0.2348 -0.1568
 5291W        W24825   8.994   5.781  12.830  0.0642  0.1155  0.0052
 5292W        W24826   3.443   7.532  11.765  0.0275 -0.0916  0.0462
 5293W        W24827  12.124  10.716  13.825  0.3511 -0.0242  0.1169
 5294W        W24828  11.299  12.357   1.397  0.3631  0.0540  0.0449
 5295W        W24829   5.223  18.607  10.859  0.2501 -0.0289 -0.1829
 5296W        W24830  18.778   2.601  13.993 -0.2393  0.0410 -0.3685
 5297W        W24831   3.185   1.230  12.890 -0.2848  0.0150  0.0777
 5298W        W24832  13.786   9.766   0.744  0.1851 -0.0342  0.2797
 5299W        W24833  13.354  13.000   0.724 -0.1380  0.4071  0.1174
 5300W        W24834   8.405  17.491   0.350 -0.1818 -0.0987  0.0078
 5301W        W24835  10.603  15.244   0.594  0.1995  0.0210  0.1625
 5302W        W24836   7.725   5.121  13.781  0.0828 -0.0811  0.2241
 5303W        W24837   2.781   6.018  12.164  0.0648  0.0347 -0.2676
 5304W        W24838  11.347   1.853   1.012  0.1536  0.1355  0.5070
 5305W        W24839   0.784  13.382   2.501 -0.1107 -0.1398  0.2424
 5306W        W24840  11.388  16.001   9.895  0.0018  0.3831  0.0745
 5307W        W24841  10.947   2.585   3.228 -0.1677 -0.1338  0.0177
 5308W        W24842   9.874  10.928   4.125  0.0299  0.1303  0.3522
 5309W        W24843   0.482   3.340  12.786 -0.2303  0.2252 -0.1738
 5310W        W24844   7.290  17.286   3.643  0.1351  0.2487  0.1142
 5311W        W24845   5.079  14.570   0.559 -0.0302  0.1359  0.2201
 5312W        W24846   1.104  19.421   1.112  0.4031 -0.1159  0.0301
 5313W        W24847  19.461   3.533  11.236  0.0785 -0.0685 -0.1498
 5314W        W24848   1.243   2.683  12.790 -0.4229 -0.0311 -0.2638
 5315W        W24849  11.793  10.805   3.085  0.2010 -0.0415 -0.1340
 5316W        W24850   8.630   6.760   2.885 -0.0386 -0.0253  0.4659
 5317W        W24851   7.082   9.583  13.380 -0.1178 -0.0321 -0.1723
 5318W        W24852   1.196   1.777   3.132 -0.1856 -0.2420 -0.2141
 5319W        W24853  11.408  17.931  13.592  0.2748  0.1069  0.1013
 5320W        W24854   3.770  14.841   1.525  0.0093  0.0545  0.0978
 5321W        W24855   8.603  10.172  14.329  0.0405  0.0697  0.1124
 5322W        W24856   0.350  17.584  11.881 -0.1462 -0.0501 -0.0520
 5323W        W24857  12.236  16.520   2.627 -0.0157  0.1553  0.2036
 5324W        W24858  14.333   6.895  13.014  0.0558 -0.0532 -0.2226
 5325W        W24859  12.905  14.466   2.499 -0.0520 -0.1417 -0.1038
 5326W        W24860  19.402   6.172  13.942  0.0063 -0.0119  0.1010
 5327W        W24861  10.115   9.639   2.692  0.2075 -0.0291  0.0569
 5328W        W24862   0.492  11.966   1.589 -0.1728 -0.4284  0.1573
 5329W        W24863   5.437  15.952   3.628  0.3101  0.0912 -0.0409
 5330W        W24864  16.080   5.568   2.442 -0.0070  0.3390 -0.0594
 5331W        W24865   5.097  17.195   2.325  0.1253  0.0246 -0.1518
 5332W        W24866   2.705   6.195   2.073 -0.1461 -0.0979  0.0441
 5333W        W24867  14.601  13.243  13.345  0.1503 -0.3372 -0.0755
 5334W        W24868  18.338   0.473   3.334  0.0862  0.2818 -0.0410
 5335W        W24869  11.920  14.926   0.192  0.0536  0.1646 -0.1044
 5336W        W24870  14.007  13.281  12.162  0.1030  0.2045 -0.3246
 5337W        W24871   7.099   7.516   3.141  0.0164 -0.0505 -0.3597
 5338W        W24872  16.319   7.092  11.381  0.0439  0.1538  0.0211
 5339W        W24873   6.141  10.692   3.750 -0.4189 -0.1897  0.0157
 5340W        W24874  10.088  16.390  11.504  0.1795  0.1937  0.1514
 5341W        W24875  13.438   4.798  13.020 -0.0132 -0.1404  0.1617
 5342W        W24876  16.222  10.840   1.126  0.1091 -0.0321 -0.0384
 5343W        W24877  10.598   9.084  11.230 -0.0903  0.1336 -0.0749
 5344W        W24878  15.311  13.991   3.742 -0.2689  0.1538  0.0845
 5345W        W24879  10.209  12.243  11.508  0.1901  0.1772 -0.0487
 5346W        W24880   1.290  15.440  12.551 -0.0295 -0.0132  0.2164
 5347W        W24881  15.546   9.008   4.012  0.0820 -0.1005 -0.1441
 5348W        W24882   7.653  10.955  13.281  0.1725 -0.1555 -0.1724
 5349W        W24883  10.652  17.572   1.289 -0.2206  0.0214 -0.0017
 5350W        W24884  15.049  14.405   0.815 -0.0557  0.0045  0.0007
 5351W        W24885   6.277   2.237   3.518  0.2841 -0.1091  0.0864
 5352W        W24886   2.138   7.188   2.982 -0.0360  0.0152  0.3154
 5353W        W24887  15.039  19.315   1.372  0.0925  0.1070 -0.1550
 5354W        W24888  13.420  15.621  13.128  0.2914  0.0130 -0.0311
 5355W        W24889   4.881  12.339  11.396  0.2068  0.2568 -0.2172
 5356W        W24890  15.619   7.965   2.593  0.1870  0.0397  0.0488
 5357W        W24891  10.001  14.124   3.017  0.1229  0.2165 -0.1161
 5358W        W24892   9.781   4.720  11.996  0.3152  0.0376 -0.2921
 5359W        W24893   0.853   2.156  13.573 -0.1592  0.0312  0.2018
 5360W        W24894  19.101   9.566  13.887 -0.1053 -0.1496  0.3263
 5361W        W24895  17.615  18.941  10.293 -0.2516  0.2448  0.1339
 5362W        W24896  12.633   4.390  12.990 -0.2033  0.0139  0.0650
 5363W        W24897  15.412   2.957  13.337 -0.2578  0.1405  0.4604
 5364W        W24898   8.060   2.658  10.844  0.1995  0.2672  0.4126
 5365W        W24899   5.147   3.636  10.116  0.1869  0.0239 -0.0813
 5366W        W24900   7.203   4.036  14.203  0.1104 -0.1332  0.2715
 5367W        W24901   0.922   5.245   0.600  0.4138  0.0629 -0.1405
 5368W        W24902   7.029  13.688  14.062 -0.1925  0.3821  0.2771
 5369W        W24903   6.220   8.993   4.284  0.0178 -0.1524  0.0901
 5370W        W24904   3.304  14.794  10.934 -0.4714  0.0310  0.0121
 5371W        W24905   5.104   0.118   1.214 -0.5098 -0.0321 -0.1683
 5372W        W24906   7.020  11.423   2.267 -0.0874 -0.2477  0.2484
 5373W        W24907   8.609  14.360   0.148 -0.1543 -0.0309  0.0047
 5374W        W24908   8.040  16.333  11.852  0.0285  0.1014  0.1968
 5375W        W24909   4.652  18.654   0.800 -0.0737  0.0004  0.1473
 5376W        W24910   7.224   7.240   2.733 -0.1244  0.2038 -0.0094
 5377W        W24911  13.031  14.461  11.675  0.1597 -0.1026 -0.0817
 5378W        W24912  12.831  16.154   2.066 -0.4092  0.2072  0.0540
 5379W        W24913  13.315   5.871   0.140 -0.1485 -0.0574 -0.0432
 5380W        W24914  18.768   5.144   1.046 -0.1081  0.0437 -0.0801
 5381W        W24915   1.407  15.636  10.164 -0.0077  0.1397 -0.2036
 5382W        W24916  14.003   8.066  13.965  0.0298 -0.2803  0.1113
 5383W        W24917  14.667   4.790   3.682 -0.1088  0.2634 -0.0275
 5384W        W24918  17.184   9.904  12.968  0.0726  0.1937  0.0321
 5385W        W24919   4.487   3.949   4.030  0.1597 -0.0488 -0.0046
 5386W        W24920  14.484  12.733  13.044  0.2209 -0.0621 -0.2845
 5387W        W24921   5.889   5.940  14.071  0.1126  0.2308  0.0085
 5388W        W24922   5.388  12.444  11.411 -0.1714 -0.2006  0.4770
 5389W        W24923   4.255   1.250   0.085 -0.1180 -0.4122  0.0101
 5390W        W24924  13.343  18.282  11.274  0.0755  0.3429  0.0572
 5391W        W24925   4.698   8.522   3.029 -0.0232 -0.2696 -0.0277
 5392W        W24926  19.203  15.067  11.944  0.1534  0.0164 -0.1274
 5393W        W24927  17.669   1.867   1.387  0.0602 -0.2971  0.1711
 5394W        W24928   2.210  11.919   1.862 -0.1615  0.2082 -0.3449
 5395W        W24929   9.317   6.706   1.725  0.1330  0.3219  0.0947
 5396W        W24930  16.031  16.840   1.322 -0.0601  0.0898 -0.2824
 5397W        W24931  17.011   1.730  11.273 -0.0492  0.1341 -0.0888
 5398W        W24932   8.354   1.356   1.345 -0.1581 -0.2820 -0.1950
 5399W        W24933   8.885   4.023   2.508 -0.1772  0.1602 -0.1816
 5400W        W24934   0.309  13.505  12.172  0.1345 -0.0940  0.3270
 5401W        W24935  11.105   0.798   4.298  0.2238  0.1828  0.0551
 5402W        W24936  12.673  18.415  13.958  0.0925 -0.2723  0.3008
 5403W        W24937   4.825   1.506   2.620  0.0830 -0.0373  0.0120
 5404W        W24938  12.368   0.995  13.630 -0.2406 -0.0755  0.2471
 5405W        W24939   6.080   4.484   0.898 -0.0229 -0.4694 -0.2473
 5406W        W24940   4.965   7.149   2.728 -0.0026  0.0351  0.0786
 5407W        W24941  18.885   2.556  12.887  0.0861  0.1373 -0.0284
 5408W        W24942  16.075  14.549   9.363  0.0016  0.2620 -0.0820
 5409W        W24943  13.846   7.496   3.799 -0.1025 -0.2954  0.1505
 5410W        W24944   6.379   1.975  13.337 -0.0432 -0.2931  0.1273
 5411W        W24945   9.531  18.915   0.046  0.1102 -0.1884  0.0456
 5412W        W24946  15.791   0.278  11.189 -0.3456  0.1975 -0.2082
 5413W        W24947  15.939  17.183   2.150 -0.1964  0.6558 -0.1713
 5414W        W24948  12.901   5.706   3.440 -0.3050 -0.0575 -0.2060
 5415W        W24949  17.970   8.844   9.598  0.0579  0.4532  0.1791
 5416W        W24950   2.986  16.228  14.114 -0.1962 -0.0740  0.3932
 5417W        W24951   6.390   9.403   4.020  0.0838  0.2646 -0.2361
 5418W        W24952   4.533   0.963  12.083 -0.1971 -0.2576 -0.0279
 5419W        W24953   6.242   1.537   0.903 -0.5345  0.0429  0.0687
 5420W        W24954   7.008   1.571   4.169 -0.0466  0.3270  0.4747
 5421W        W24955   7.014   7.269  13.695 -0.0180 -0.0235  0.0165
 5422W        W24956  16.004   8.144   9.819 -0.3148  0.3550 -0.0628
 5423W        W24957  12.683  16.539   2.354 -0.1571 -0.1435 -0.0671
 5424W        W24958   0.866   5.712  11.821  0.2233 -0.0963  0.1117
 5425W        W24959   3.937  12.144   0.406 -0.1329 -0.2025  0.1820
 5426W        W24960   1.218   4.476  13.776 -0.2716 -0.3042 -0.2075
 5427W        W24961   0.716  15.136  11.754 -0.1431  0.0869  0.1405
 5428W        W24962   1.290  10.070  10.560  0.1266 -0.0034  0.0745
 5429W        W24963  13.977   1.486   2.945  0.1005 -0.1837  0.2155
 5430W        W24964  12.400   3.811  13.975 -0.2685 -0.0605  0.3867
 5431W        W24965   4.232  17.442  10.674 -0.1958  0.0316 -0.1495
 5432W        W24966  19.157   7.379  10.680  0.0235  0.2640 -0.0603
 5433W        W24967  16.994   2.429  13.767 -0.0289 -0.0710  0.0692
 5434W        W24968   7.025  18.868  14.159 -0.0590 -0.1254  0.1753
 5435W        W24969  10.250  15.169   3.585 -0.0134  0.1893  0.3288
 5436W        W24970   1.388   6.652  11.975 -0.0865  0.0994 -0.0743
 5437W        W24971  18.267  17.907   3.308 -0.4522 -0.1472  0.0228
 5438W        W24972   4.341  18.964   1.755 -0.2349  0.0816  0.0635
 5439W        W24973   5.579   7.779   3.904 -0.0970 -0.2322 -0.1016
 5440W        W24974   5.956  11.184  12.358  0.0172  0.1079  0.1092
 5441W        W24975  17.163  18.923   8.855 -0.0226 -0.0225 -0.3488
 5442W        W24976   0.179  14.522  13.219 -0.0948 -0.4193 -0.3080
 5443W        W24977   9.862  14.071  11.379 -0.2374  0.1261 -0.1471
 5444W        W24978  10.025   6.705   3.025  0.0419  0.0745  0.1366
 5445W        W24979  12.958  19.309   2.327 -0.2983  0.0313  0.2651
 5446W        W24980   7.778  14.291  12.770 -0.2078  0.0731  0.1959
 5447W        W24981   3.331   2.133   4.761 -0.0262 -0.0497  0.0945
 5448W        W24982  12.277  13.323  11.278 -0.1305  0.1434  0.0828
 5449W        W24983   6.871   2.977  12.966 -0.3136  0.1467  0.3104
 5450W        W24984   7.048  15.563   2.224 -0.1198  0.0020 -0.0132
 5451W        W24985  14.114   4.549   3.143 -0.0430 -0.0692  0.2641
 5452W        W24986  10.090  14.518  11.276 -0.3025 -0.1661 -0.1268
 5453W        W24987  18.303   1.354   1.849 -0.1978  0.0328 -0.2892
 5454W        W24988  11.537  11.934   1.101 -0.1466 -0.0737 -0.0640
 5455W        W24989  16.153   1.698  10.292  0.1343 -0.1658  0.1145
 5456W        W24990  10.037   0.747  10.419 -0.4323 -0.3308  0.2809
 5457W        W24991  13.180   7.375   3.215  0.0079  0.1656 -0.1754
 5458W        W24992   5.925  14.071  11.239  0.0110 -0.2319  0.1258
 5459W        W24993   2.154   5.306   0.993  0.0726 -0.1506 -0.2309
 5460W        W24994  12.883  12.158  11.102  0.0600  0.0464  0.0146
 5461W        W24995   1.714   2.552   3.527  0.1126 -0.0973  0.3455
 5462W        W24996  18.941  12.664  13.635 -0.5196  0.1943  0.0575
 5463W        W24997   7.222   5.023  12.310 -0.0187 -0.1266  0.1342
 5464W        W24998  14.523   6.383  12.926  0.3402  0.0064 -0.1705
 5465W        W24999  17.944  15.136   3.215 -0.0635 -0.1754 -0.1063
 5466W        W25000   9.340  18.017   2.884  0.0662 -0.1732  0.0843
 5467W        W25001   4.549   4.788   4.147 -0.0004 -0.3008  0.1578
 5468W        W25002  16.551  15.784  12.951 -0.0053  0.1020  0.1175
 5469W        W25003  11.485  16.763  12.441  0.1480  0.0590  0.0700
 5470W        W25004  11.760   0.296  13.867 -0.0135 -0.2344  0.1320
 5471W        W25005  10.631  14.228   3.775  0.0264  0.2632  0.1716
 5472W        W25006  16.508   6.659   0.621  0.1545 -0.1146 -0.0032
 5473W        W25007  18.177   5.293   3.052  0.3546  0.1493  0.1337
 5474W        W25008   4.623  16.524   0.572 -0.0257  0.2155 -0.1649
 5475W        W25009   9.176   2.892   1.082  0.1731 -0.2276  0.2372
 5476W        W25010  17.493  12.581  14.029  0.1417  0.1496 -0.0314
 5477W        W25011   3.931  14.641  13.755  0.2460 -0.0577  0.3379
 5478W        W25012   9.650   1.877   5.335  0.3076 -0.0683  0.1325
 5479W        W25013  19.146   3.161   2.491 -0.1085  0.1073 -0.2743
 5480W        W25014  15.063   2.732   0.565 -0.2801 -0.0043 -0.0898
 5481W        W25015   7.541  16.648   2.743  0.1773 -0.0876 -0.0248
 5482W        W25016   3.257   3.687  11.342  0.1458  0.2450  0.1242
 5483W        W25017  18.942  10.166  13.076 -0.0229  0.1317  0.1623
 5484W        W25018  17.460  15.759   1.126 -0.0923  0.1844  0.3557
 5485W        W25019   7.852  13.859   5.686 -0.3263 -0.1828 -0.0091
 5486W        W25020   7.591   7.301   3.192  0.2227  0.0288  0.1454
 5487W        W25021   6.856   5.150  11.971  0.1740 -0.2744 -0.2990
 5488W        W25022  15.054   1.246  12.877  0.0577 -0.4339 -0.0534
 5489W        W25023  11.089  11.317  10.007  0.0108 -0.1348  0.3414
 5490W        W25024   6.085   9.774  12.742 -0.0580  0.1173 -0.3925
 5491W        W25025  10.158  10.095   2.001  0.0763  0.1600 -0.0129
 5492W        W25026   4.881   3.504  11.930 -0.1387  0.1211  0.3377
 5493W        W25027  12.974   5.256  10.231 -0.0349 -0.0648 -0.0632
 5494W        W25028   6.239   0.214  10.056  0.1562 -0.1998  0.3124
 5495W        W25029  13.813  11.436   4.762  0.2590 -0.3811  0.0498
 5496W        W25030  16.041  16.666   2.018 -0.0175  0.0957 -0.1820
 5497W        W25031   4.987   4.177   0.989  0.0051  0.0268  0.1052
 5498W        W25032  18.213   0.984  12.451  0.0494  0.0090 -0.2551
 5499W        W25033  12.673  16.220  13.156 -0.1747 -0.3358 -0.0769
 5500W        W25034   4.301  14.461   2.236  0.0650  0.3006 -0.1709
 5501W        W25035   7.726   6.020   2.197  0.0000  0.0470 -0.3842
 5502W        W25036  17.870  14.259  14.081  0.1295 -0.2213  0.0985
 5503W        W25037  14.513   8.093   1.685 -0.1167  0.0481 -0.0072
 5504W        W25038  16.301  11.076   2.363 -0.1413  0.0768 -0.0945
 5505W        W25039  18.243   9.368   1.450 -0.2428  0.2076 -0.0390
 5506W        W25040   9.541   6.104   1.141 -0.4182  0.1041 -0.2623
 5507W        W25041   9.128  13.874  12.073  0.0905  0.0819 -0.2440
 5508W        W25042  17.419   3.421  11.032 -0.2788  0.1880 -0.0699
 5509W        W25043  10.137  11.953   1.434 -0.0321  0.0619 -0.2249
 5510W        W25044   2.394  14.162  13.223 -0.0389  0.1538 -0.2279
 5511W        W25045   5.023  17.882   3.604 -0.2126 -0.1397 -0.0620
 5512W        W25046  14.766   8.268  14.330 -0.0389 -0.2098  0.0817
 5513W        W25047   2.277   7.540   0.947  0.0914  0.0752 -0.0880
 5514W        W25048   6.132   1.492  13.407  0.0060 -0.0848 -0.1117
 5515W        W25049  16.225  11.496  10.146  0.0206  0.1791  0.1430
 5516W        W25050  12.275  12.114  11.055  0.1385 -0.4125 -0.1982
 5517W        W25051   7.728   8.619  14.008 -0.1313 -0.0470  0.2057
 5518W        W25052  10.525   0.493  10.006 -0.0404  0.3901 -0.1366
 5519W        W25053   4.697   8.060  12.393 -0.0624  0.3103  0.0608
 5520W        W25054   8.315  13.890   0.279  0.1208 -0.0716 -0.0535
 5521W        W25055  13.134  16.414  12.738 -0.1227  0.1404 -0.0526
 5522W        W25056   5.443  10.257   3.440 -0.1195  0.5559  0.2813
 5523W        W25057   9.202  18.378  14.340  0.1818  0.0391 -0.1493
 5524W        W25058   4.490   8.723   2.172  0.0724  0.1470 -0.1604
 5525W        W25059  12.683   2.732  13.496 -0.1298 -0.0381  0.1108
 5526W        W25060  15.179  10.741  12.630 -0.1976 -0.1669 -0.2052
 5527W        W25061   1.438  15.947   1.919  0.3177  0.2506  0.3152
 5528W        W25062  10.884  14.071  14.376  0.2075  0.0702  0.1530
 5529W        W25063   9.081  18.715  13.739  0.0430 -0.0056  0.0289
 5530W        W25064   0.521  15.342  12.136 -0.1554  0.2073  0.0368
 5531W        W25065  14.444   0.430  13.208  0.1687 -0.3708 -0.1017
 5532W        W25066   1.305   7.227   1.521 -0.1072 -0.4257  0.1110
 5533W        W25067   7.885  11.622   5.314 -0.0215  0.0020 -0.3207
 5534W        W25068  10.545  11.101  13.002 -0.0937  0.1894 -0.1325
 5535W        W25069  12.286  18.494   3.057  0.0408 -0.0033  0.0214
 5536W        W25070  11.956  17.040  12.771  0.1167 -0.2925 -0.0772
 5537W        W25071   2.669  18.454   3.575  0.0535 -0.1542 -0.0201
 5538W        W25072   1.150  18.791  11.797 -0.0387 -0.1619 -0.2563
 5539W        W25073  16.399   7.383   2.846  0.0136 -0.1919 -0.0015
 5540W        W25074  19.053  19.402  14.212  0.1008  0.0145 -0.2407
 5541W        W25075  17.263  18.749   4.356 -0.3513 -0.0973 -0.1264
 5542W        W25076   7.527   0.510   0.615 -0.0635 -0.1357  0.4121
 5543W        W25077  17.846   9.671  10.755 -0.2334 -0.0451 -0.0023
 5544W        W25078   9.714  17.406  14.373 -0.0030 -0.0647  0.0560
 5545W        W25079  16.875   0.657  12.603  0.0006  0.0238  0.0312
 5546W        W25080  19.260   3.614   0.988  0.0182  0.1598  0.0238
 5547W        W25081  18.162  10.935  11.035  0.1748  0.1782  0.0327
 5548W        W25082   0.027   0.629  14.278 -0.2163  0.2910  0.3667
 5549W        W25083   2.293  13.574   3.469  0.2811 -0.2441  0.0377
 5550W        W25084  12.205  17.819   0.324 -0.1307  0.1636  0.1043
 5551W        W25085   3.466  15.221   5.331 -0.0624  0.1846 -0.2640
 5552W        W25086   8.281  11.633   0.891 -0.1371 -0.0914  0.0139
 5553W        W25087   7.012   9.881  11.655  0.0518  0.0235 -0.2575
 5554W        W25088  15.414   4.985   4.123 -0.2049 -0.3555 -0.1409
 5555W        W25089   3.167   9.130   0.360 -0.0066 -0.3543 -0.2624
 5556W        W25090   0.659   2.046   5.291 -0.2200 -0.1766  0.1559
 5557W        W25091  15.869   0.181  13.466 -0.1607 -0.0702 -0.0783
 5558W        W25092   9.607   4.930   0.632  0.0408  0.1625  0.2525
 5559W        W25093   7.597  12.101  12.740 -0.3834 -0.0765 -0.0497
 5560W        W25094   5.339   4.165  14.171 -0.2488  0.0924  0.2339
 5561W        W25095   2.083  12.136   2.288 -0.1139 -0.3426 -0.0695
 5562W        W25096  16.854   8.990   0.215 -0.2052 -0.1879 -0.2365
 5563W        W25097   2.609  11.502  11.283  0.0201  0.0521 -0.2452
 5564W        W25098   0.717   6.532   2.370 -0.0948 -0.0173  0.0043
 5565W        W25099  15.649   9.826   3.226  0.0027 -0.2074 -0.0499
 5566W        W25100  15.126  15.109  10.767  0.1053 -0.1477 -0.0830
 5567W        W25101  10.620   0.381  10.615 -0.3877 -0.1984  0.0755
 5568W        W25102  13.098  19.518   0.875  0.0149 -0.3156  0.0376
 5569W        W25103  18.995  11.786   0.673 -0.0260  0.0303 -0.0625
 5570W        W25104  11.191   3.720  13.742 -0.0509  0.3466  0.1281
 5571W        W25105  18.414   4.745  11.316 -0.0866  0.2032 -0.0722
 5572W        W25106   3.227   9.811  11.200  0.0483  0.3631  0.0082
 5573W        W25107  15.991  18.159  11.023 -0.1719 -0.1636  0.2504
 5574W        W25108   3.411   3.358  10.150 -0.0124 -0.0154 -0.0689
 5575W        W25109  16.126   7.777  10.876 -0.0849  0.0521  0.2048
 5576W        W25110  10.206   8.984  13.274 -0.0002 -0.1684  0.0929
 5577W        W25111   8.378  15.367  13.894 -0.1893  0.0084  0.3469
 5578W        W25112  14.814   3.948  10.455  0.1601  0.0301 -0.2099
 5579W        W25113   8.635   4.119  11.571  0.3649  0.0399  0.1504
 5580W        W25114   4.735  11.649   1.382  0.0463 -0.0117 -0.1560
 5581W        W25115  18.430   0.519   3.832  0.2746 -0.2698  0.3075
 5582W        W25116   5.510  17.515   2.248 -0.3699  0.0792  0.0425
 5583W        W25117  10.522   9.619   0.613  0.0404  0.0839  0.2134
 5584W        W25118  17.292   9.589   0.580 -0.6248  0.4307  0.0952
 5585W        W25119   2.298  17.315  13.122  0.0677  0.3023 -0.2828
 5586W        W25120   4.514   6.125  11.405  0.1352 -0.2853 -0.0091
 5587W        W25121  11.809   9.471   2.364  0.1986  0.0524  0.0105
 5588W        W25122  13.391   2.350  10.399 -0.0627 -0.3704 -0.1124
 5589W        W25123  11.454  13.645  10.977  0.2240 -0.3103  0.1379
 5590W        W25124  18.994   2.707  11.534  0.3713 -0.1302 -0.0394
 5591W        W25125   2.361  14.642  12.459 -0.1693 -0.1135 -0.1856
 5592W        W25126  12.820  15.242  12.688  0.0920  0.2087  0.0079
 5593W        W25127  15.096   3.212   3.872 -0.0088  0.1244  0.3524
 5594W        W25128   4.523   6.677   0.715 -0.3123  0.0684 -0.2519
 5595W        W25129   4.645  13.377   9.599  0.2385 -0.0603 -0.0422
 5596W        W25130  19.143  13.165  14.329 -0.0038 -0.2647  0.2561
 5597W        W25131   5.625   1.205  13.809  0.3953 -0.2443 -0.1188
 5598W        W25132  11.643  10.442   3.383  0.3286  0.3778  0.1318
 5599W        W25133  16.086   6.013   3.566 -0.1970 -0.2980 -0.2390
 5600W        W25134   8.803  16.788  13.121 -0.2235 -0.0190 -0.1501
 5601W        W25135   1.551  12.036  14.100  0.4657 -0.2853  0.1289
 5602W        W25136   4.949  15.708   0.621 -0.2811  0.0918 -0.2507
 5603W        W25137   2.767   1.074   2.512 -0.0564 -0.3728 -0.0160
 5604W        W25138   7.712  10.343   2.547  0.0662  0.0699  0.0610
 5605W        W25139   7.818  11.723  13.386  0.0382 -0.0711 -0.0350
 5606W        W25140  13.832   3.087   1.559  0.3459 -0.2301 -0.0486
 5607W        W25141   6.736   5.921   2.283 -0.2891  0.1606 -0.0020
 5608W        W25142   1.280  10.546  13.812  0.2316 -0.1681 -0.0268
 5609W        W25143  12.982  13.624   2.168  0.0566  0.2046 -0.1755
 5610W        W25144  16.270  12.331   4.771  0.2312 -0.2534 -0.0099
 5611W        W25145  10.958  16.951   2.986 -0.0021 -0.1040  0.3210
 5612W        W25146   9.408   3.093   3.563  0.0544  0.0052  0.2186
 5613W        W25147  16.132  16.715  13.971  0.1769  0.1591  0.1084
 5614W        W25148  14.944  17.359   2.884 -0.1083  0.0240  0.0622
 5615W        W25149   2.339  14.857   1.754  0.0546 -0.1988 -0.5502
 5616W        W25150   9.515   9.154  12.711  0.1026 -0.0047  0.1127
 5617W        W25151   6.959  16.664   1.475 -0.2228  0.1787  0.2561
 5618W        W25152  13.857  18.292  11.560 -0.2277 -0.0348 -0.0429
 5619W        W25153  15.617   1.393   1.562 -0.1266 -0.0781  0.1942
 5620W        W25154   6.337  13.133   1.703 -0.1228 -0.0900  0.0224
 5621W        W25155   0.953  12.082   2.461  0.3002  0.0827  0.0499
 5622W        W25156   2.795  10.529   3.249  0.1512  0.2942  0.2195
 5623W        W25157  12.189   6.584  13.052 -0.2584  0.0323  0.1333
 5624W        W25158   8.165   9.037   2.715  0.0497 -0.1760 -0.2385
 5625W        W25159  18.696  14.770   0.914  0.0482 -0.0119 -0.0036
 5626W        W25160   6.288   7.712  12.728 -0.4331 -0.3058 -0.1945
 5627W        W25161   3.974  12.550  11.990  0.3273 -0.0242 -0.2554
 5628W        W25162   7.819  13.978  12.009 -0.0220  0.0523 -0.1486
 5629W        W25163   6.763   2.948   2.339  0.1863 -0.2143  0.2330
 5630W        W25164  14.831   0.207   3.727 -0.2129 -0.3718  0.2431
 5631W        W25165  13.973   9.031  10.689  0.3444 -0.0942 -0.4359
 5632W        W25166  15.731  14.651   1.854 -0.0293  0.0887 -0.1613
 5633W        W25167  13.706  10.830  10.237 -0.2946 -0.4076 -0.2341
 5634W        W25168  19.484  18.708  12.522  0.0961  0.0362 -0.0011
 5635W        W25169  15.024   9.154   3.246  0.1428  0.0224  0.2552
 5636W        W25170  11.906  18.497   1.591  0.1997 -0.1563 -0.0877
 5637W        W25171  12.629  14.334  13.237 -0.1033 -0.3022 -0.2411
 5638W        W25172  15.879  17.769   1.714 -0.0474 -0.1819  0.1171
 5639W        W25173   6.033  14.481  13.674 -0.0563 -0.2713 -0.2848
 5640W        W25174   8.708   5.301  14.369 -0.1746 -0.2354  0.1656
 5641W        W25175  13.236  12.815  14.207  0.0920 -0.2222  0.1136
 5642W        W25176   1.295  16.888   1.942  0.0320  0.2299  0.1113
 5643W        W25177  16.840   7.725  11.024  0.1151 -0.1804 -0.1119
 5644W        W25178   9.566  11.235   0.565  0.0998  0.1513 -0.0622
 5645W        W25179  17.878  18.781   0.811  0.1839 -0.3858 -0.1143
 5646W        W25180   3.324  10.582  14.328  0.3114  0.0534 -0.0813
 5647W        W25181   0.201   4.913   3.359 -0.0118 -0.4823  0.1133
 5648W        W25182   6.000   8.874   0.893  0.0047  0.1775 -0.4215
 5649W        W25183  12.865   0.683   1.990 -0.0211  0.1343  0.1103
 5650W        W25184  12.103   4.667  11.842 -0.1179  0.0856 -0.1461
 5651W        W25185  15.945  19.241  13.247  0.2639  0.3700 -0.0814
 5652W        W25186   4.595   3.041   1.475  0.1269 -0.0912  0.2209
 5653W        W25187  16.070   5.934  11.052  0.1799  0.0951 -0.1541
 5654W        W25188   5.098  14.691  11.792 -0.3606  0.3051  0.0004
 5655W        W25189  12.013   5.363   3.323 -0.1200  0.0091 -0.0818
 5656W        W25190  11.441  13.261   1.582  0.1033  0.2071  0.2524
 5657W        W25191  14.147  17.628  12.079 -0.1161 -0.0820 -0.0077
 5658W        W25192   8.941  16.961  12.257  0.0122 -0.0925  0.2980
 5659W        W25193   9.512   0.248  12.515  0.0928 -0.1401  0.0643
 5660W        W25194  16.100  10.376  10.870 -0.1015 -0.3343  0.0474
 5661W        W25195   2.739  13.720   2.540 -0.2437 -0.0796  0.1610
 5662W        W25196  18.544  12.473   0.370  0.1212 -0.2773  0.2649
 5663W        W25197   5.553  15.163   0.125  0.2102 -0.3891 -0.1916
 5664W        W25198  13.681   5.131   2.853 -0.0589 -0.0841  0.0723
 5665W        W25199  15.367   1.894   2.058  0.2215 -0.1083 -0.1628
 5666W        W25200  15.923   9.871   0.565  0.0567  0.0548 -0.1163
 5667W        W25201   9.068  14.338   3.926  0.0082  0.1377  0.0063
 5668W        W25202   2.568  19.208  10.963  0.0053 -0.1364 -0.2019
 5669W        W25203   5.283   8.314  13.653  0.1314 -0.0533 -0.0543
 5670W        W25204   9.466   1.265   1.073  0.2317  0.1336  0.0080
 5671W        W25205  16.570  19.387  11.523 -0.0522  0.0669 -0.2859
 5672W        W25206   0.739  15.398   2.401 -0.0811  0.1983  0.2834
 5673W        W25207   1.107  11.943   1.034  0.1953  0.2079 -0.0255
 5674W        W25208  11.719   4.837   1.007  0.2267 -0.0371 -0.0159
 5675W        W25209  18.938  10.430  12.648 -0.3671 -0.3974 -0.1053
 5676W        W25210  19.299  12.443   1.235 -0.0403 -0.0116 -0.1372
 5677W        W25211  11.945  10.293  12.154  0.0200 -0.0410 -0.1756
 5678W        W25212   4.409   0.574  10.837 -0.1517  0.3227  0.0328
 5679W        W25213  12.862  15.634  13.810 -0.0232  0.2004  0.1635
 5680W        W25214   0.926  14.720   2.552 -0.1166 -0.0004  0.2851
 5681W        W25215   6.105  10.596  10.933 -0.0511 -0.3687  0.0480
 5682W        W25216  19.132  17.023  13.259 -0.3786  0.1194  0.2458
 5683W        W25217  13.620  17.332  12.464 -0.0627 -0.5206  0.2953
 5684W        W25218  16.199  13.750   2.149  0.0604 -0.0733 -0.1864
 5685W        W25219   1.297   1.405   2.635  0.0384 -0.1354 -0.0765
 5686W        W25220   3.982   9.268  12.201  0.1204  0.1585  0.1440
 5687W        W25221  16.975  19.335  11.862  0.0153 -0.2353  0.0172
 5688W        W25222   0.064   9.532   3.992 -0.3013 -0.2657 -0.2334
 5689W        W25223   3.904   0.475  13.383 -0.3321  0.0855  0.0207
 5690W        W25224  12.658  17.493   2.283  0.0120  0.0385  0.0262
 5691W        W25225  11.137   4.712   0.110 -0.0299  0.0413 -0.0379
 5692W        W25226  18.062   4.512  12.908  0.1097  0.1260  0.1221
 5693W        W25227   4.442  15.678   2.958  0.0613 -0.1789 -0.1407
 5694W        W25228   1.432  12.222  10.579  0.0451  0.1901 -0.4497
 5695W        W25229  11.710   5.313   0.931 -0.4742  0.1475  0.2075
 5696W        W25230  11.155   2.881  11.648  0.1746 -0.2899  0.2098
 5697W        W25231   2.473  11.248   3.814 -0.0623  0.1705 -0.0494
 5698W        W25232  12.635   9.866  11.558  0.0848  0.1231  0.2128
 5699W        W25233   7.296   1.967   3.163  0.2192 -0.0538 -0.0277
 5700W        W25234   7.998   6.358   0.149 -0.0917  0.2025  0.0828
 5701W        W25235   1.162  14.666  13.131  0.0611  0.1118  0.0794
 5702W        W25236   3.567  14.049   0.785  0.0681  0.1493  0.0959
 5703W        W25237   2.480   6.146   4.339 -0.0428  0.0644  0.1657
 5704W        W25238  12.754   9.384   1.523  0.2386  0.1902 -0.0268
 5705W        W25239   2.390   2.375   2.976  0.2922 -0.1755  0.0017
 5706W        W25240  13.684  13.910   2.679  0.2436  0.6004  0.1909
 5707W        W25241   4.740   5.346  14.143  0.1282  0.1641  0.1175
 5708W        W25242  16.305  16.973   9.822  0.0579  0.3106 -0.3437
 5709W        W25243  16.532  14.285  10.816  0.2850  0.0427  0.0412
 5710W        W25244   1.110  16.048  11.552  0.0363  0.1499  0.2944
 5711W        W25245   5.803   4.636  13.114 -0.1112  0.2724 -0.2049
 5712W        W25246  15.853   1.472   4.047  0.0548  0.1199  0.1696
 5713W        W25247   9.430   9.318   1.442 -0.1596 -0.0184 -0.1210
 5714W        W25248   5.428  12.359   2.412  0.2086  0.1184 -0.2421
 5715W        W25249  10.223   3.956   4.808  0.2317 -0.0453 -0.0336
 5716W        W25250   7.065   1.203   1.500 -0.2168 -0.0791 -0.0339
 5717W        W25251   6.594  15.725  12.812  0.1125 -0.1595  0.1570
 5718W        W25252  17.630   3.702  12.541  0.1280  0.2672  0.2004
 5719W        W25253  14.734  10.576   2.399 -0.0646  0.1286 -0.1193
 5720W        W25254   0.822   2.325   1.458  0.1684  0.0373 -0.2406
 5721W        W25255   3.339   5.242  12.629  0.1968  0.1416  0.1979
 5722W        W25256  11.485  11.749   2.988 -0.5607  0.0477 -0.1222
 5723W        W25257  10.334  16.633   3.691  0.1476 -0.1951 -0.2152
 5724W        W25258   8.091  17.421  10.990 -0.1169  0.1163 -0.0343
 5725W        W25259  11.677   7.987  13.199  0.0558  0.2272  0.1413
 5726W        W25260   8.864   5.316   3.575 -0.1872  0.1904 -0.0134
 5727W        W25261   7.177  18.424  10.628 -0.1056  0.0358 -0.4937
 5728W        W25262   0.936  11.267   1.882 -0.0063  0.2892 -0.1162
 5729W        W25263   3.075   0.597   3.446  0.0368 -0.2335  0.2782
 5730W        W25264  13.526   0.571   3.547  0.1179  0.1750 -0.0005
 5731W        W25265   4.870  12.656   4.258 -0.0725 -0.1365  0.0625
 5732W        W25266   6.914  12.823  10.284 -0.1183 -0.0182 -0.2598
 5733W        W25267  16.799  18.206   1.243 -0.1301  0.2319 -0.1786
 5734W        W25268   7.691  12.941  13.195  0.0480  0.0457 -0.1433
 5735W        W25269   4.560   8.795  13.442 -0.1330 -0.1307 -0.1240
 5736W        W25270  11.857  11.111  14.167  0.1256 -0.1090 -0.1124
 5737W        W25271  14.798  13.168  13.850  0.2040 -0.0661 -0.0144
 5738W        W25272   6.349   8.408  11.064 -0.2243  0.0097 -0.0067
 5739W        W25273   3.717   5.073  12.271 -0.1820  0.2360 -0.2031
 5740W        W25274   8.133  12.329   3.621 -0.2876 -0.0390  0.4073
 5741W        W25275   4.926   3.556   3.897 -0.3970  0.1537  0.0285
 5742W        W25276   8.303  14.823  14.166  0.0739  0.1666 -0.3123
 5743W        W25277   7.105   1.689   1.340  0.1530 -0.1592  0.0300
 5744W        W25278   0.159   3.625   0.624  0.0481 -0.0554 -0.2543
 5745W        W25279   1.782  16.833  13.814 -0.1757  0.4460  0.1874
 5746W        W25280   3.957   6.509  13.041 -0.0806  0.2360 -0.2621
 5747W        W25281  15.965   9.878  11.249  0.0180 -0.0993  0.3753
 5748W        W25282   3.048   1.581  12.002  0.0602 -0.2154  0.2667
 5749W        W25283  14.301   4.925   2.744  0.1556 -0.2000 -0.2633
 5750W        W25284  11.106   0.670   4.843 -0.0960  0.0437  0.1759
 5751W        W25285   7.287  13.960   1.846 -0.0171 -0.0395 -0.1396
 5752W        W25286   3.377  13.552   1.649 -0.1341  0.0260 -0.0091
 5753W        W25287   6.009   6.139   0.190  0.0269  0.2376 -0.0198
 5754W        W25288   6.700  18.942   9.999  0.1856 -0.1109 -0.0314
 5755W        W25289   0.924   1.482   0.422  0.0967 -0.0546 -0.1202
 5756W        W25290  12.919   6.296  10.837 -0.0639  0.0728 -0.2632
 5757W        W25291  13.126  10.223   3.183 -0.2838  0.0510  0.1366
 5758W        W25292   0.543   6.668  11.721 -0.0858 -0.1763  0.0370
 5759W        W25293   2.181   5.811   1.144 -0.0182  0.3832 -0.1744
 5760W        W25294  12.034  13.984   2.503  0.0838 -0.0642 -0.1315
 5761W        W25295  18.987  12.655   0.218  0.1684  0.1343  0.2539
 5762W        W25296  18.692   5.034  12.710  0.0147  0.0621  0.1581
 5763W        W25297   7.385   9.731   1.821 -0.0216 -0.3803  0.0099
 5764W        W25298   5.498  16.241  13.951  0.2861  0.0277  0.3528
 5765W        W25299   7.495  13.158   4.053 -0.0477  0.1874 -0.2452
 5766W        W25300  18.650   7.509   3.829  0.0912  0.2485  0.3573
 5767W        W25301  15.195  16.858   4.289  0.0519 -0.1300  0.2291
 5768W        W25302   8.593   4.068   1.121  0.3789 -0.3023 -0.1565
 5769W        W25303   7.084  14.899   9.811  0.2373  0.2106  0.1877
 5770W        W25304  11.534  17.373  10.733 -0.2140  0.2065  0.3597
 5771W        W25305  18.988   1.699   3.349  0.3222 -0.0387 -0.3216
 5772W        W25306  13.193  10.977   4.100 -0.3016 -0.3284  0.2045
 5773W        W25307   8.975   8.441  10.520  0.1121  0.1008  0.1190
 5774W        W25308  12.719   3.360   1.289  0.1900 -0.0474 -0.0443
 5775W        W25309   6.342  17.759   1.948  0.3417  0.2792  0.0600
 5776W        W25310  10.229   0.161  10.317  0.1162 -0.0470 -0.1119
 5777W        W25311   5.356  16.874  12.924 -0.1036 -0.1732 -0.1660
 5778W        W25312   3.499  19.433  11.134 -0.0213  0.0126  0.0922
 5779W        W25313   0.576   2.123  10.562 -0.0509 -0.0670 -0.0670
 5780W        W25314   7.618  14.934   0.625  0.1697 -0.0611 -0.1136
 5781W        W25315   5.572  16.189   2.684 -0.0827 -0.4683 -0.2226
 5782W        W25316   8.228   0.942   2.501 -0.3343 -0.1050 -0.1600
 5783W        W25317   1.835   6.459  10.821 -0.3122 -0.3877  0.2333
 5784W        W25318   6.216  12.777  13.442  0.1519 -0.3582 -0.2999
 5785W        W25319  11.747  13.681  10.553 -0.0145  0.0277 -0.2821
 5786W        W25320  18.976  13.492  13.613  0.3457 -0.1729 -0.1528
 5787W        W25321   6.496   9.248   3.031 -0.1157  0.0377  0.0294
 5788W        W25322   9.578  13.708  13.994 -0.0162  0.1862 -0.2773
 5789W        W25323   0.220  15.955   1.809  0.1381 -0.0549 -0.1400
 5790W        W25324  15.285   8.422  11.238  0.2954 -0.4189 -0.0774
 5791W        W25325  16.593   3.315   9.570  0.2691  0.1941 -0.0068
 5792W        W25326  14.664   2.267   3.390  0.4909  0.2644 -0.0034
 5793W        W25327   1.904  12.956  14.317 -0.0018 -0.1225 -0.4752
 5794W        W25328   2.766   3.513  10.919 -0.2962 -0.3453 -0.4044
 5795W        W25329   4.519  10.813   2.472  0.1403  0.2045 -0.0009
 5796W        W25330  19.332  17.473   1.299  0.1981  0.0876 -0.3200
 5797W        W25331  17.715  11.780  12.289 -0.1646 -0.3133  0.2047
 5798W        W25332  10.269  12.504   4.100  0.0299  0.0119  0.2457
 5799W        W25333  13.503   9.158  10.825 -0.1962 -0.0956  0.1947
 5800W        W25334   6.998   1.163  11.101 -0.3639 -0.0266  0.3400
 5801W        W25335   3.848  18.540  13.368  0.0472  0.5433 -0.2260
 5802W        W25336   1.134  18.686  13.336  0.1504  0.2338 -0.0940
 5803W        W25337  15.794   8.750  12.722  0.0009 -0.2231 -0.0656
 5804W        W25338   4.720  14.289  13.685  0.1365  0.0694  0.0904
 5805W        W25339   9.232   3.010  11.311  0.1120 -0.3613  0.0754
 5806W        W25340  17.293   7.856   3.083  0.1498 -0.1809 -0.1412
 5807W        W25341   0.751   3.831   2.580  0.1355 -0.0590  0.2077
 5808W        W25342  18.305   6.786  12.773  0.2009 -0.0782  0.0765
 5809W        W25343  19.418   1.881  10.288  0.0097 -0.1975 -0.0432
 5810W        W25344   7.715   6.604  10.481 -0.0590 -0.0321  0.1585
 5811W        W25345  18.382   8.007  12.521 -0.1813  0.2435 -0.0778
 5812W        W25346   1.986   3.322  12.485  0.0943 -0.0858  0.1844
 5813W        W25347  19.177  19.302   1.612  0.0850 -0.4432  0.2012
 5814W        W25348   8.748  16.867  10.882  0.0474 -0.0081  0.0342
 5815W        W25349   6.108   0.383   2.975  0.1679 -0.0798 -0.1826
 5816W        W25350  16.015   5.283   2.931  0.2111 -0.0591 -0.2709
 5817W        W25351  12.521   4.612  13.455  0.2891  0.1613 -0.1659
 5818W        W25352   9.138   3.160   0.094 -0.0740  0.1258  0.1886
 5819W        W25353   0.723   0.560   2.751 -0.3299  0.1774 -0.0998
 5820W        W25354   1.439  18.081   0.745 -0.2154  0.3025  0.3346
 5821W        W25355   6.100   2.909   2.239  0.0336 -0.3285 -0.0647
 5822W        W25356  18.352   2.164  11.259  0.0001 -0.1565 -0.0273
 5823W        W25357  18.626  11.719   1.014  0.2046 -0.0519  0.0244
 5824W        W25358  19.164   4.913  12.634 -0.2130  0.1122  0.0503
 5825W        W25359   1.316  13.688  14.202  0.0231  0.2506 -0.1805
 5826W        W25360  14.993  13.655   2.590  0.0851 -0.0998 -0.1033
 5827W        W25361   1.291   3.625  11.310  0.1248 -0.1060 -0.0615
 5828W        W25362   6.639   5.671  12.924  0.4486 -0.2653  0.1584
 5829W        W25363  10.721   4.890   3.204 -0.0608 -0.0300  0.1178
 5830W        W25364   7.329   1.154  12.907 -0.1062 -0.1893  0.1174
 5831W        W25365  11.840  18.209   9.809  0.0028  0.0655  0.1521
 5832W        W25366  15.010  15.800  11.463  0.0172 -0.0698  0.0021
 5833W        W25367   3.868   4.863  13.174  0.0692 -0.3002 -0.3016
 5834W        W25368  14.940  11.986  12.106  0.2288  0.1231  0.3025
 5835W        W25369  15.880   4.611  14.363 -0.2270 -0.1003 -0.4371
 5836W        W25370   0.909   8.201  12.704 -0.0628 -0.3308  0.1086
 5837W        W25371   1.332   1.939   3.970  0.3472  0.2026  0.0544
 5838W        W25372   9.358  12.671   1.711  0.1795 -0.0586  0.1093
 5839W        W25373  10.163   3.523   1.454 -0.2518 -0.0291 -0.0061
 5840W        W25374  14.651   6.371   2.829  0.2242 -0.0725  0.0303
 5841W        W25375   0.733   9.835  10.788 -0.1287 -0.1865 -0.0899
 5842W        W25376  16.872   1.136  11.265  0.1812  0.0567 -0.0953
 5843W        W25377  13.130  11.187  11.697  0.0418  0.2669 -0.4841
 5844W        W25378   2.892   7.385   3.611  0.0555  0.1682  0.0035
 5845W        W25379   6.320  11.868   0.482  0.1646 -0.1756  0.0860
 5846W        W25380   6.171   2.225  12.857 -0.0385  0.0834 -0.1307
 5847W        W25381  16.183  12.945   3.636  0.0568 -0.1455  0.1763
 5848W        W25382   6.827  17.925   1.732  0.1703  0.4970  0.3118
 5849W        W25383   7.343  16.376   0.067 -0.0054 -0.1856  0.0399
 5850W        W25384   8.737  11.467   2.837  0.0016  0.0984  0.0506
 5851W        W25385   0.372  16.791   0.508  0.1930  0.1125  0.1609
 5852W        W25386   3.248   3.628   1.101 -0.0497 -0.0162  0.1419
 5853W        W25387  15.310  10.366  14.376  0.2091 -0.0237  0.1242
 5854W        W25388  10.475  14.845   0.254  0.1083 -0.0954 -0.1536
 5855W        W25389   7.550   8.501   2.286  0.2585  0.2852  0.3113
 5856W        W25390   0.728   6.228  11.765 -0.5016 -0.0353  0.3264
 5857W        W25391   7.878   3.165   2.876  0.0515  0.0098  0.1690
 5858W        W25392   6.686  11.125   0.824 -0.4079  0.0041  0.2782
 5859W        W25393  15.384   6.428   3.466 -0.0140 -0.1026 -0.0930
 5860W        W25394   1.010  12.286   3.802 -0.0046 -0.2144 -0.0147
 5861W        W25395  14.925  18.229   1.484  0.3022 -0.0620 -0.2555
 5862W        W25396  16.163   9.155  12.813  0.2448  0.1369 -0.1488
 5863W        W25397   4.129  14.752  13.146 -0.1489 -0.0429 -0.2077
 5864W        W25398   2.207  13.632  10.930 -0.0000 -0.2786 -0.0628
 5865W        W25399   7.960  12.186   2.719 -0.3825 -0.1099  0.0638
 5866W        W25400   8.752  19.323   1.977  0.0696 -0.1242  0.0824
 5867W        W25401   2.045  15.920   2.640  0.3405  0.0195 -0.2783
 5868W        W25402   3.063  10.541   1.685 -0.7512  0.0166 -0.4469
 5869W        W25403   5.037  11.570   2.691  0.0748 -0.1014 -0.3240
 5870W        W25404   4.376   1.752   2.751 -0.0103 -0.0255  0.1926
 5871W        W25405  12.320   9.008  12.602 -0.3940 -0.1152 -0.1490
 5872W        W25406  15.698  15.702  10.873  0.1563 -0.0814  0.0181
 5873W        W25407   8.146  16.686  14.325 -0.0648 -0.0470 -0.0341
 5874W        W25408  15.260   2.031  11.195 -0.4133  0.0245  0.2898
 5875W        W25409   5.396   0.624  12.366 -0.1821  0.1569  0.2435
 5876W        W25410  18.834   2.492  10.279 -0.3317  0.0223  0.2756
 5877W        W25411   5.077   9.642   1.947  0.2290 -0.0936  0.1094
 5878W        W25412   9.610   0.761   1.064  0.0823  0.2354 -0.1936
 5879W        W25413   1.731   7.265   1.818  0.0681  0.2468  0.2509
 5880W        W25414   9.331   2.018   1.415  0.0342  0.1856 -0.0795
 5881W        W25415   2.404  11.224   0.936 -0.1511 -0.2365 -0.1750
 5882W        W25416  13.959  10.308   0.626  0.0067  0.0243  0.2653
 5883W        W25417  11.486  18.273   1.445  0.0180 -0.1336  0.1969
 5884W        W25418  17.783   8.333   2.620  0.0964 -0.0695 -0.0688
 5885W        W25419   9.157  10.410  12.102 -0.2228  0.0476 -0.0448
 5886W        W25420  11.392  18.468   9.867  0.2018  0.0085  0.2068
 5887W        W25421   3.393  10.015   3.706 -0.3352  0.0902  0.0181
 5888W        W25422   7.607   6.991  11.371 -0.0969 -0.1809 -0.0835
 5889W        W25423   6.225   5.836  11.934  0.0049  0.1154 -0.0241
 5890W        W25424   6.872  11.813  11.207  0.1557  0.4166 -0.1836
 5891W        W25425  18.468  11.725  10.566  0.0888  0.0107  0.1286
 5892W        W25426  10.735  11.103   1.010 -0.2950  0.3456  0.1640
 5893W        W25427  15.451  19.305  13.063 -0.0310 -0.2194 -0.0279
 5894W        W25428   1.028  18.484  10.324 -0.1202 -0.0266  0.3008
 5895W        W25429  12.744   2.066  12.182  0.0907 -0.0063  0.0858
 5896W        W25430  19.208  14.052  12.201 -0.0523  0.1721  0.0855
 5897W        W25431   2.921  13.257  10.792 -0.1593 -0.4743 -0.1474
 5898W        W25432   1.910  19.197   2.586 -0.1443 -0.0296  0.2391
 5899W        W25433   6.727  15.005  13.330  0.0106 -0.0584 -0.1703
 5900W        W25434   9.293  14.867   4.035  0.1995 -0.0313 -0.2512
 5901W        W25435  14.766   1.058   3.105  0.0457 -0.0409 -0.2278
 5902W        W25436  10.947  10.145   3.709 -0.0994  0.0099  0.1844
 5903W        W25437  18.979  16.270   1.472  0.3062 -0.1085  0.0829
 5904W        W25438  18.641   1.604   3.817  0.2269 -0.0642 -0.0793
 5905W        W25439  12.565   1.000  10.310  0.0267  0.0107 -0.2236
 5906W        W25440   3.725   3.354  12.870 -0.3747  0.0360  0.2027
 5907W        W25441  11.162  19.002   3.098  0.0887  0.2903  0.3112
 5908W        W25442   6.559  16.848   3.324  0.1393 -0.1015 -0.1863
 5909W        W25443   7.784  16.422   0.266  0.0126 -0.1080 -0.0714
 5910W        W25444   1.650  10.991  13.266 -0.2909  0.2451  0.0377
 5911W        W25445   8.283  14.865   4.177  0.3694  0.1846  0.2130
 5912W        W25446   8.475   9.748   3.168 -0.4461  0.1462 -0.1084
 5913W        W25447  15.159   7.722  12.049  0.3176 -0.0821  0.0830
 5914W        W25448   7.526  10.499  13.263 -0.1268  0.3789  0.2509
 5915W        W25449   1.631  13.879   2.918  0.3388  0.1448  0.1656
 5916W        W25450  16.157  13.946   0.224 -0.2576  0.4476 -0.0305
 5917W        W25451   7.638   4.414  10.707 -0.1382 -0.0434  0.1045
 5918W        W25452   2.139   7.805  12.228  0.2029  0.3310 -0.3053
 5919W        W25453  17.027  12.393  12.697  0.1921  0.1686  0.2327
 5920W        W25454   9.433  10.629   2.284 -0.0881  0.3324 -0.2268
 5921W        W25455   9.587  17.119  13.971 -0.0833 -0.0022 -0.3187
 5922W        W25456   7.672  11.060  13.835 -0.0334 -0.0491  0.3962
 5923W        W25457  17.921   4.011   1.701  0.1389  0.3015  0.1837
 5924W        W25458  16.641  17.100  12.117 -0.0690 -0.1835  0.4148
 5925W        W25459   4.514  17.248   3.778 -0.2931 -0.0860  0.0389
 5926W        W25460   9.302  13.217   9.944 -0.4322 -0.3284 -0.0439
 5927W        W25461  12.995  19.334   0.419  0.2817 -0.1923 -0.1095
 5928W        W25462  11.948   7.462   1.086 -0.0578 -0.1533 -0.1715
 5929W        W25463  15.746  11.305  10.742 -0.2335 -0.1307 -0.0694
 5930W        W25464   2.644   4.978   1.120 -0.2473 -0.1868 -0.3947
 5931W        W25465   6.639   2.380   1.783  0.2995  0.3151  0.2108
 5932W        W25466   3.555  10.330   0.337  0.4323 -0.0251 -0.2886
 5933W        W25467  13.073   6.785  10.503  0.0129 -0.3028  0.2702
 5934W        W25468  13.771  17.944   2.777  0.1633 -0.1162 -0.1267
 5935W        W25469   6.513   7.446   2.094 -0.0489 -0.0956  0.0504
 5936W        W25470  17.574  17.322  10.327 -0.0368  0.0634 -0.1881
 5937W        W25471   8.111  16.805   1.068 -0.0140 -0.2014 -0.1003
 5938W        W25472  13.726  18.602  12.703  0.1129  0.0498 -0.0992
 5939W        W25473  13.081   0.489   1.547  0.1282  0.1499 -0.1617
 5940W        W25474  11.182  19.326   2.583 -0.0359 -0.0787 -0.0900
 5941W        W25475  15.020   5.273  13.631 -0.2103 -0.0627 -0.0390
 5942W        W25476   1.146  14.713   1.250 -0.2743 -0.0599 -0.0573
 5943W        W25477  13.361  13.219   9.142 -0.1517  0.0808 -0.2685
 5944W        W25478  16.906  16.785  10.479 -0.1975 -0.1028 -0.1664
 5945W        W25479   9.650  11.518  12.989 -0.2183 -0.0805 -0.2580
 5946W        W25480  17.045   3.476   9.360 -0.4197 -0.0218 -0.1401
 5947W        W25481  10.624   9.354  10.738 -0.0358  0.0071 -0.0371
 5948W        W25482   0.732  13.299   4.184 -0.2971 -0.1722 -0.1123
 5949W        W25483   0.735   6.332  13.882  0.0601  0.3982 -0.4453
 5950W        W25484   0.123   0.803  12.755  0.0461 -0.1136 -0.0003
 5951W        W25485   3.982   1.202   0.601  0.0880  0.2516  0.1481
 5952W        W25486   5.776   8.156   9.810  0.2444  0.0201  0.1925
 5953W        W25487  17.380   0.828  10.486  0.0467 -0.0119 -0.0485
 5954W        W25488  15.261  14.629  11.052  0.1690 -0.1064  0.1005
 5955W        W25489   6.153  14.316  12.924  0.0172 -0.0508 -0.3443
 5956W        W25490   6.381  10.799  14.079 -0.0721  0.2677 -0.0251
 5957W        W25491  14.841  19.304  14.193 -0.1369  0.0557  0.0644
 5958W        W25492   8.393   7.199  10.794  0.1334 -0.0155 -0.2021
 5959W        W25493  18.827   0.431   3.494  0.1404 -0.1234 -0.0107
 5960W        W25494  15.619   4.668   3.246 -0.0455  0.0863  0.1528
 5961W        W25495  11.435   5.747  11.587 -0.2222  0.3560  0.0830
 5962W        W25496  18.239   7.115   3.831  0.3548  0.3690  0.0164
 5963W        W25497  18.049   3.153   1.194  0.0440 -0.1331  0.3857
 5964W        W25498   4.600  16.622  10.790 -0.0195  0.2947 -0.0904
 5965W        W25499  16.817  13.545   0.843  0.0164  0.0257  0.1908
 5966W        W25500  10.911   3.365   9.411 -0.0695  0.2276 -0.2771
 5967W        W25501   3.998  16.659  10.926  0.1657 -0.0216 -0.2735
 5968W        W25502   4.059  12.643   1.963 -0.0004  0.0860  0.0191
 5969W        W25503   4.203   9.740   3.913 -0.3399  0.0526 -0.2002
 5970W        W25504   2.242   1.214  12.737 -0.0716 -0.0511 -0.1193
 5971W        W25505  14.598  11.447  11.266 -0.3665 -0.1265 -0.2625
 5972W        W25506   6.077  13.810   4.140  0.2206  0.1816  0.1348
 5973W        W25507  13.928   7.087   0.857 -0.0596  0.3274 -0.1680
 5974W        W25508   6.770   9.442  11.620 -0.1514  0.1308  0.0125
 5975W        W25509  18.550   8.752  10.367  0.0192  0.0579  0.0143
 5976W        W25510   3.833   8.163  11.283 -0.0824  0.0990 -0.0731
 5977W        W25511  16.411   9.224   0.459  0.1690  0.2223 -0.2662
 5978W        W25512  18.497  11.697  12.136  0.2355  0.1544  0.0030
 5979W        W25513   5.303   2.060   3.059 -0.0610  0.1952  0.1028
 5980W        W25514  12.501   0.052   0.740 -0.0923 -0.0556  0.5345
 5981W        W25515  15.192   1.000   2.215 -0.0483  0.1035 -0.1672
 5982W        W25516  11.909  17.313   1.107 -0.1164 -0.0113  0.2351
 5983W        W25517  18.546  17.521  11.983 -0.0405 -0.0104 -0.1403
 5984W        W25518   4.883  17.115   3.076 -0.0966  0.1179 -0.1069
 5985W        W25519  12.635   4.046  10.713 -0.1928 -0.1323  0.0222
 5986W        W25520  14.937   3.473  10.475 -0.1977 -0.3193  0.0387
 5987W        W25521  12.594   0.615  13.307 -0.3338 -0.0174 -0.1691
 5988W        W25522  13.693   6.487   0.020 -0.2098 -0.4157  0.4549
 5989W        W25523  15.292   1.837   1.509  0.0408 -0.0373  0.0494
 5990W        W25524   8.528   7.985  14.267 -0.0827 -0.0217  0.0535
 5991W        W25525  13.174  15.004   1.163 -0.1365  0.2256  0.3130
 5992W        W25526   6.383   1.916   0.633  0.2742 -0.0651  0.0562
 5993W        W25527  13.846   3.756  12.339 -0.1620  0.0962  0.0772
 5994W        W25528  14.260  12.026  14.295  0.2764 -0.0700 -0.0185
 5995W        W25529  17.012  16.307  10.141  0.0855  0.3387 -0.1581
 5996W        W25530  13.447   1.804   3.229 -0.0860  0.0977  0.1870
 5997W        W25531   0.770  16.418   0.492 -0.2757 -0.0481  0.1023
 5998W        W25532  14.266  17.675  10.608 -0.1343 -0.1969 -0.0659
 5999W        W25533   1.816  15.455   0.176 -0.2096 -0.1590  0.0371
 6000W        W25534  10.037  12.529  11.021  0.2406  0.0394 -0.5383
 6001W        W25535   5.462  12.354   1.910 -0.1840  0.1554 -0.1224
 6002W        W25536  13.037  12.606   2.789  0.2191 -0.2512  0.1600
 6003W        W25537   6.552  17.774  10.303  0.0524 -0.1816 -0.1654
 6004W        W25538   3.792  17.803   1.227  0.1085 -0.1365  0.2650
 6005W        W25539   2.556  11.689  13.072 -0.0152 -0.0901  0.3814
 6006W        W25540  14.640  18.822   0.082 -0.1217  0.1316  0.4149
 6007W        W25541  15.210  18.364   2.401  0.2835 -0.0629  0.2341
 6008W        W25542   1.756   1.758  10.697 -0.0457 -0.2808  0.0474
 6009W        W25543   9.780  12.512  11.448 -0.2072  0.0611 -0.1093
 6010W        W25544  17.660  13.125  12.664  0.1552 -0.4097 -0.0472
 6011W        W25545  19.431   5.788   0.634  0.0055 -0.0542 -0.0956
 6012W        W25546  12.968  14.158   2.119  0.0540  0.4054  0.0122
 6013W        W25547  18.689   1.511  13.980 -0.2379 -0.1234  0.1113
 6014W        W25548  17.567  17.464   1.110  0.0327 -0.1071  0.0561
 6015W        W25549   9.965   2.132  14.092  0.0181  0.0709 -0.0286
 6016W        W25550   7.211  12.733   1.964  0.2279 -0.1984  0.0076
 6017W        W25551  18.920   5.699   2.810 -0.0848  0.4308  0.2877
 6018W        W25552  11.998  12.268   3.905 -0.1443 -0.0989 -0.5161
 6019W        W25553  16.498  18.772   2.129 -0.1755  0.0276 -0.3618
 6020W        W25554  16.318   9.606   0.733  0.2736  0.1069  0.1055
 6021W        W25555   0.584   4.420  11.019 -0.2216  0.0173  0.0806
 6022W        W25556   0.096  10.843   3.490 -0.2847 -0.1077  0.1638
 6023W        W25557   0.302  18.916   3.080  0.1873  0.3981  0.1565
 6024W        W25558   4.387   8.481  11.744  0.1685  0.1672 -0.0033
 6025W        W25559   2.708   9.571   3.945  0.1750  0.0982 -0.2331
 6026W        W25560   6.457  14.225  13.735 -0.0390  0.0757 -0.1941
 6027W        W25561  17.462  17.850   2.031 -0.2373  0.0602 -0.1314
 6028W        W25562  18.497  10.590  12.795  0.1645  0.0655 -0.0081
 6029W        W25563   7.454   0.371  12.115 -0.1914  0.1900 -0.1261
 6030W        W25564  16.380  12.044   0.621  0.1826  0.1952 -0.0253
 6031W        W25565   7.842  12.100   3.214  0.0542  0.0144 -0.5795
 6032W        W25566   3.908   6.224  11.567  0.0212 -0.2047 -0.1164
 6033W        W25567   6.654   0.944   3.523 -0.1917  0.1456  0.2640
 6034W        W25568  14.462  11.535   0.156 -0.3949 -0.1064 -0.3812
 6035W        W25569  15.085  10.868   1.024  0.2863  0.0981 -0.2859
 6036W        W25570  18.017   6.022   2.671  0.0381 -0.1504  0.2824
 6037W        W25571   5.763   8.258   3.295 -0.1671 -0.2206 -0.2187
 6038W        W25572   2.423   2.331  12.534 -0.0445 -0.1332 -0.0917
 6039W        W25573   0.577   1.520   2.046  0.4267  0.1021  0.3746
 6040W        W25574   5.051  16.734   2.703 -0.2600 -0.0352 -0.1513
 6041W        W25575   2.164   7.789   3.175  0.1140  0.1231  0.0785
 6042W        W25576  17.178  15.848  10.155 -0.2199 -0.0330 -0.3893
 6043W        W25577  13.124   9.135  14.215 -0.2631  0.1524  0.1965
 6044W        W25578  14.883  12.300  11.633 -0.0656  0.2691  0.0388
 6045W        W25579  12.196   6.106  12.752  0.1717 -0.2281 -0.2035
 6046W        W25580   4.685  14.814  14.310 -0.0117  0.1444  0.1278
 6047W        W25581  13.349   8.837   4.175 -0.1759  0.0857  0.1461
 6048W        W25582   9.643  14.348   4.716  0.3118  0.1594  0.1087
 6049W        W25583   0.589  17.858   0.536  0.1234 -0.1675  0.3147
 6050W        W25584  11.337   8.479  13.427  0.2334 -0.0995 -0.0216
 6051W        W25585   6.508  14.960   1.663  0.0269 -0.1015  0.0332
 6052W        W25586   4.926   0.400   3.765 -0.0243 -0.1497 -0.2884
 6053W        W25587   6.810  15.623  12.367  0.0637 -0.1049 -0.1880
 6054W        W25588   2.975   0.179  12.897 -0.0984 -0.1155  0.2667
 6055W        W25589   7.548   7.716   4.037 -0.0892 -0.1226 -0.2483
 6056W        W25590   6.451   8.285   0.203  0.3079 -0.1125 -0.0392
 6057W        W25591  15.900  16.985  10.330  0.2654  0.2557  0.4626
 6058W        W25592   8.094   5.821   3.338  0.1625 -0.2403  0.2827
 6059W        W25593  14.436  18.307   1.522  0.0696  0.0217  0.0859
 6060W        W25594  13.310   9.231  13.245  0.1360  0.2806 -0.2645
 6061W        W25595   0.674   6.921  14.341 -0.1929 -0.0738  0.1451
 6062W        W25596   1.408   5.904  13.490  0.3078 -0.2185  0.0928
 6063W        W25597  11.825  11.287   1.549 -0.0675 -0.0118  0.0811
 6064W        W25598  15.592   0.796  10.477 -0.0161 -0.0719  0.2739
 6065W        W25599   5.738  15.176  10.802 -0.0257 -0.2169  0.0941
 6066W        W25600  10.743   0.303   2.477 -0.1868  0.2759 -0.1586
 6067W        W25601   8.769   2.423  13.718  0.1215 -0.2531 -0.2241
 6068W        W25602  11.509  11.409  10.771 -0.0760 -0.0053  0.0035
 6069W        W25603  19.272   4.883  12.121 -0.1408  0.0649  0.1774
 6070W        W25604  18.931  19.446   0.885  0.1168 -0.1481 -0.1160
 6071W        W25605   1.658   1.618  11.544 -0.1083 -0.0791 -0.2254
 6072W        W25606   3.487  17.656  13.616  0.4354 -0.2030  0.2588
 6073W        W25607  18.943  17.304   0.979  0.1195  0.1715 -0.1908
 6074W        W25608   9.115  10.654   3.243 -0.0479  0.1515  0.1610
 6075W        W25609  13.715   9.607   0.265 -0.0176  0.0011 -0.2820
 6076W        W25610   7.183   4.726   1.205  0.1503 -0.2361  0.0852
 6077W        W25611  11.061  16.135  11.388 -0.3174  0.0079 -0.2388
 6078W        W25612  10.745   0.968  11.663 -0.2292  0.3301  0.4042
 6079W        W25613  14.142   5.556   0.758  0.0148 -0.1473 -0.3811
 6080W        W25614   6.565  15.115   3.517  0.4021 -0.1084  0.2039
 6081W        W25615   7.211   9.165  11.907 -0.3544  0.0300  0.0641
 6082W        W25616  13.292  14.405   4.012 -0.1469 -0.1923 -0.1731
 6083W        W25617  12.676   6.486   0.969  0.0078  0.3156  0.0207
 6084W        W25618  13.199  10.854   0.652  0.0728 -0.1536  0.2933
 6085W        W25619  17.328   4.170  13.997 -0.1925 -0.2813  0.0373
 6086W        W25620  14.489   1.676  11.315 -0.0257 -0.2023 -0.1330
 6087W        W25621   0.349   1.956   2.224 -0.0110  0.2345  0.2486
 6088W        W25622  13.914   0.726   1.810  0.3959  0.1630 -0.0331
 6089W        W25623   6.371  12.357   2.405  0.1970  0.1086  0.0297
 6090W        W25624   2.564  12.378  14.026 -0.2573 -0.3509  0.0336
 6091W        W25625  11.555   3.705   4.906 -0.1128 -0.2762  0.1275
 6092W        W25626  11.274  10.842   4.009 -0.0747 -0.0382  0.0238
 6093W        W25627   1.671  15.600   3.836  0.2725  0.0547 -0.1044
 6094W        W25628  15.016   7.035  12.943 -0.3709  0.2705  0.1089
 6095W        W25629  18.030  10.050  12.712  0.0258  0.1630  0.1404
 6096W        W25630  16.454   1.996   2.166 -0.1845  0.0222  0.1192
 6097W        W25631   8.296   4.936   0.155  0.2580 -0.0019  0.3835
 6098W        W25632  14.899  11.273   2.437  0.2308 -0.2055  0.1381
 6099W        W25633   5.750   9.337  14.271  0.1821  0.2170 -0.2241
 6100W        W25634   5.012  13.858  13.598  0.1463  0.0410  0.3221
 6101W        W25635   9.486   0.506   2.864 -0.0018  0.0547  0.0161
 6102W        W25636  12.441   7.937  11.327  0.1027  0.1346 -0.0492
 6103W        W25637  17.453  12.186  12.291  0.0645 -0.1356  0.0195
 6104W        W25638  17.003   4.026  11.058 -0.1246 -0.0639  0.0223
 6105W        W25639  18.623   3.233  13.641 -0.1434 -0.0296  0.0002
 6106W        W25640  18.885   6.644   2.630  0.1067 -0.2497  0.0713
 6107W        W25641  11.963   8.586   1.583 -0.1462  0.1259  0.2307
 6108W        W25642  17.611   3.426   3.961  0.1330 -0.2625  0.0770
 6109W        W25643  15.480   2.660   2.516 -0.0280  0.1209 -0.0395
 6110W        W25644  17.776  15.304   8.955 -0.0030  0.0570 -0.0946
 6111W        W25645  14.385  16.116  12.216  0.0361  0.0037 -0.0901
 6112W        W25646  15.289  19.450  12.272 -0.1437  0.0147 -0.0039
 6113W        W25647   1.739   5.342   0.243  0.0854  0.0397 -0.0339
 6114W        W25648   0.296  11.815  10.611 -0.0457 -0.0283  0.0046
 6115W        W25649  12.589   7.685  12.432  0.1545 -0.1706 -0.0636
 6116W        W25650  13.288   5.975  12.372 -0.3696 -0.3184  0.3883
 6117W        W25651  19.113  15.354  10.465  0.0140  0.0292 -0.0148
 6118W        W25652   9.647   2.303  12.377 -0.0135 -0.0604  0.0109
 6119W        W25653  13.145   5.842   2.796 -0.0056 -0.0098  0.0577
 6120W        W25654   6.512   6.495   2.485 -0.0145  0.1110  0.2676
 6121W        W25655  17.872  13.146  11.007 -0.0266 -0.2509  0.2956
 6122W        W25656  10.582   8.248   1.024 -0.2549 -0.2207  0.1581
 6123W        W25657  10.999  10.885   0.159  0.1678 -0.0573  0.0080
 6124W        W25658  11.247   3.549   4.434 -0.2260  0.0838 -0.0458
 6125W        W25659  10.217  12.984  10.992  0.4376 -0.3466 -0.0809
 6126W        W25660   4.093   3.932   1.179  0.2041  0.0742 -0.0076
 6127W        W25661  12.121  13.133  11.955  0.0774 -0.0786  0.0003
 6128W        W25662  10.950  10.509  10.543  0.0847  0.0578  0.2501
 6129W        W25663  11.381   3.367   0.743  0.1164 -0.1853 -0.0490
 6130W        W25664   5.640  13.912  13.080  0.1433  0.1994 -0.0270
 6131W        W25665  14.622  12.590   2.073  0.0009  0.0545 -0.0629
 6132W        W25666  19.388  12.297  12.968  0.0712 -0.0364 -0.0619
 6133W        W25667   4.151   3.789   3.032  0.1587  0.0370  0.0445
 6134W        W25668   7.076   7.739  11.469 -0.1126 -0.2418  0.0347
 6135W        W25669   9.994   0.751  13.115 -0.0855 -0.2428  0.0694
 6136W        W25670   0.127  13.103   1.035 -0.0949  0.4882  0.2657
 6137W        W25671  11.802  11.670  11.998  0.1481 -0.0565 -0.1578
 6138W        W25672  14.935   8.645  10.818 -0.6565  0.0273  0.1682
 6139W        W25673   5.484  15.696  11.503  0.1458  0.0389  0.1053
 6140W        W25674   0.492  17.034   1.689 -0.0926  0.0892 -0.2574
 6141W        W25675  10.012  10.531   3.660  0.2162  0.0179  0.1392
 6142W        W25676  17.836   2.808   0.803 -0.1521 -0.1204  0.0050
 6143W        W25677  16.376   6.215   0.825  0.0740 -0.1213 -0.0530
 6144W        W25678   6.998  11.001   3.960  0.1572 -0.0336  0.2194
 6145W        W25679   9.534  13.646  11.931  0.0617 -0.1484  0.0222
 6146W        W25680   0.011   6.221  13.323 -0.0184 -0.2472 -0.1798
 6147W        W25681  15.156  19.072  11.740  0.5306  0.1993 -0.1520
 6148W        W25682  11.044  10.492   2.262  0.0916  0.0709  0.1225
 6149W        W25683  12.669   9.295  14.306 -0.1321 -0.1096 -0.5331
 6150W        W25684   8.494  16.357  13.546 -0.1158 -0.0049 -0.1115
 6151W        W25685   0.548  15.660   3.928 -0.0337  0.0387  0.2295
 6152W        W25686   7.079  11.302   0.131 -0.0052  0.0220 -0.2325
 6153W        W25687  16.011  14.189  12.486 -0.2265  0.2167 -0.0368
 6154W        W25688   4.774   1.905  12.341  0.0988  0.4106  0.0562
 6155W        W25689  12.947  14.311   4.831 -0.2905  0.3908 -0.0963
 6156W        W25690  17.618  13.539  11.820 -0.2238 -0.1232  0.1596
 6157W        W25691   7.992  10.214  11.593 -0.1822  0.2516 -0.2208
 6158W        W25692  11.038   1.723  10.600 -0.0324  0.0257 -0.1132
 6159W        W25693   3.332   5.070   0.437  0.3267  0.1401  0.3910
 6160W        W25694   0.268   9.622   2.402  0.0901 -0.1393  0.1005
 6161W        W25695  11.899   8.449  12.178  0.3122 -0.2882 -0.0998
 6162W        W25696   6.131  14.946   3.783  0.1974 -0.1692  0.1038
 6163W        W25697   8.495   2.627   3.291  0.3896  0.3365  0.2379
 6164W        W25698  10.633   6.415  13.256 -0.1137 -0.3188  0.2502
 6165W        W25699  16.952   6.808  12.765 -0.1115  0.0164 -0.2100
 6166W        W25700  14.944  13.247  11.920  0.0336  0.1369 -0.1472
 6167W        W25701  10.445   1.438  11.686 -0.0427 -0.0919 -0.0582
 6168W        W25702   1.332   1.797   0.356  0.1252 -0.1033  0.2401
 6169W        W25703   1.226  17.006   0.907  0.0430  0.2474 -0.0344
 6170W        W25704   6.432  10.093  10.940  0.0101 -0.1161  0.2384
 6171W        W25705  19.095   9.090  11.335  0.0942 -0.1638 -0.1272
 6172W        W25706   6.585   8.668  13.208 -0.1738  0.1777  0.0512
 6173W        W25707  15.267   8.113  13.395 -0.0583  0.0641 -0.2462
 6174W        W25708   5.535   8.701   2.240  0.1005  0.1879  0.0025
 6175W        W25709   2.614  11.928   3.187 -0.1750  0.0200  0.0603
 6176W        W25710  12.661  15.124  14.174  0.0835  0.1760 -0.1539
 6177W        W25711  18.024   7.069   0.038 -0.3053  0.3745  0.1302
 6178W        W25712  10.951  15.692  13.462 -0.4086  0.1662  0.0008
 6179W        W25713   0.097   0.588   0.843 -0.2514 -0.2044 -0.1666
 6180W        W25714  10.292  19.184   3.448  0.1235 -0.0880  0.4600
 6181W        W25715  17.533   3.478   1.953  0.4022  0.3900  0.0135
 6182W        W25716   1.732  11.701   2.202 -0.0774  0.1338  0.0432
 6183W        W25717  10.487  17.129   1.570 -0.0729 -0.2253  0.1141
 6184W        W25718   8.884  11.595  13.875  0.1799 -0.0007 -0.0819
 6185W        W25719   4.021   3.966  10.898  0.3590 -0.2653  0.1000
 6186W        W25720   6.470   5.082  12.688 -0.1589 -0.3509 -0.4166
 6187W        W25721   0.505  16.251   1.553 -0.0138  0.1493 -0.1633
 6188W        W25722   4.747  17.140  12.321  0.1554  0.1688  0.6336
 6189W        W25723  15.762  18.336   1.052 -0.1103 -0.1004  0.0591
 6190W        W25724   6.774  17.983  11.451 -0.3983 -0.0187  0.0969
 6191W        W25725  17.581  13.985  12.036  0.0109  0.1151  0.0793
 6192W        W25726  10.188  16.282  12.493  0.1311  0.0850 -0.3156
 6193W        W25727  10.703  16.358  14.234 -0.0567 -0.3017 -0.1028
 6194W        W25728   1.454  14.332  12.123  0.2720  0.0014 -0.0039
 6195W        W25729  16.120  15.276   0.151 -0.2342 -0.0864 -0.1644
 6196W        W25730   2.357  10.525   2.853 -0.3762 -0.2749  0.1236
 6197W        W25731  12.735  16.640  10.997 -0.1220 -0.3210  0.2125
 6198W        W25732  17.745  11.974  11.232  0.0554  0.0021 -0.1146
 6199W        W25733  15.817  14.263   0.472 -0.2053 -0.0617 -0.0965
 6200W        W25734   1.026  15.176   9.819  0.2028 -0.0510  0.0884
 6201W        W25735  11.056   7.133  13.193  0.2499  0.6348 -0.0580
 6202W        W25736   4.683   4.677  13.226  0.1348  0.0140 -0.1502
 6203W        W25737  17.503  17.375  11.640  0.1254 -0.0154  0.4124
 6204W        W25738   4.418  18.965   0.477 -0.0812  0.2349  0.1095
 6205W        W25739  14.406  12.218  11.951  0.0947  0.0942 -0.0513
 6206W        W25740  16.946   8.090  12.025 -0.2229  0.0605 -0.3637
 6207W        W25741  15.017  15.815  13.251  0.1790 -0.2270  0.0963
 6208W        W25742  13.850   4.058  11.889  0.1297 -0.2775  0.1886
 6209W        W25743  18.422  13.434   3.145 -0.0686 -0.1588 -0.0183
 6210W        W25744  14.035   9.316   3.810  0.0119 -0.1367 -0.0568
 6211W        W25745  17.722   3.488  11.589 -0.3613 -0.3688 -0.2881
 6212W        W25746  17.001  15.473  11.222  0.0947  0.0609  0.0878
 6213W        W25747  13.887   8.471  13.708  0.0537  0.0276  0.0520
 6214W        W25748   8.648   0.212   1.654 -0.0653  0.2456 -0.2278
 6215W        W25749  16.334   4.075  12.336  0.1483  0.2704 -0.2610
 6216W        W25750  12.514  17.599  14.296  0.0949  0.1037 -0.0554
 6217W        W25751   4.928   3.797   0.640 -0.0528 -0.1749 -0.0502
 6218W        W25752  11.118  15.552  11.306 -0.0090 -0.1719 -0.1060
 6219W        W25753  10.739   9.591   3.813 -0.1138  0.1761 -0.1460
 6220W        W25754   7.156   8.958   0.475  0.1385  0.1873 -0.2243
 6221W        W25755  16.180  15.568  10.795  0.0956 -0.0435 -0.3575
 6222W        W25756   3.543   1.822  14.355  0.0918  0.0979 -0.0662
 6223W        W25757   0.909   0.128   4.053 -0.1608 -0.1369 -0.1452
 6224W        W25758  16.782  10.925  11.448 -0.1142  0.0551 -0.2064
 6225W        W25759   3.513  16.210   0.614  0.0536  0.0315 -0.1956
 6226W        W25760  12.741  15.324   4.003 -0.0086  0.0865 -0.0632
 6227W        W25761  11.595   0.777  13.951  0.1612 -0.1866  0.2273
 6228W        W25762   1.876  13.106  11.258 -0.4189 -0.0138 -0.4052
 6229W        W25763   7.593  13.562  14.066 -0.3661 -0.0486  0.2248
 6230W        W25764   7.797  15.950   0.440  0.0569  0.0985  0.0793
 6231W        W25765   7.763  14.413  12.271  0.0207  0.0812 -0.4332
 6232W        W25766  10.293   6.026   4.497 -0.1989 -0.1595 -0.2105
 6233W        W25767  14.328   4.161   1.281  0.0088  0.2395 -0.3355
 6234W        W25768   7.874   9.983  12.083  0.3187 -0.3379  0.0425
 6235W        W25769   3.240   2.332  13.745 -0.0730 -0.0118  0.2435
 6236W        W25770   6.071  16.526   9.670  0.0271  0.1276 -0.2011
 6237W        W25771  15.627   2.466   3.481  0.1282 -0.0359 -0.1291
 6238W        W25772   7.630   0.667   3.059 -0.0927 -0.1921 -0.0569
 6239W        W25773  18.737   7.096   2.134 -0.0403 -0.4503 -0.0624
 6240W        W25774   1.899  12.739   2.228  0.0264 -0.3389  0.0838
 6241W        W25775  16.641   6.666   1.367  0.1765  0.2295 -0.1563
 6242W        W25776   0.860  12.343   1.976 -0.0844 -0.1155 -0.3802
 6243W        W25777   5.946  11.731  13.114 -0.1817  0.0423  0.1330
 6244W        W25778   1.060   2.764  11.696  0.3248  0.1330  0.0619
 6245W        W25779  13.821   6.870   9.334  0.0286  0.2011  0.5389
 6246W        W25780   7.869  12.311   0.552 -0.1962  0.0693 -0.0546
 6247W        W25781   8.953   3.218   1.995  0.2695 -0.2435 -0.1610
 6248W        W25782   1.637  17.955  13.703 -0.1841 -0.0102 -0.3884
 6249W        W25783  16.191   2.029   1.110  0.0729 -0.0092  0.3130
 6250W        W25784  15.239   7.074  13.975  0.0226  0.2096 -0.0511
 6251W        W25785  15.252  17.331   1.109  0.2343  0.3565 -0.1025
 6252W        W25786  19.252   8.890   0.814 -0.0047 -0.0941 -0.2199
 6253W        W25787  16.461  13.084  14.054  0.1521 -0.0654 -0.2114
 6254W        W25788   5.950  15.411   1.578 -0.2280 -0.0815  0.0840
 6255W        W25789  10.024   4.555   0.824  0.2970 -0.2624  0.2696
 6256W        W25790   0.132   5.755   3.277 -0.0203  0.0475 -0.2920
 6257W        W25791  18.633   6.070   0.992 -0.4364  0.0188 -0.1011
 6258W        W25792   2.415   2.302   0.448 -0.1670  0.3366  0.0738
 6259W        W25793  12.685  18.789   2.857  0.0167  0.2365  0.1523
 6260W        W25794  18.107  11.712   1.419 -0.0002  0.1607  0.0853
 6261W        W25795   1.938  17.630  11.199  0.0601  0.1692 -0.0805
 6262W        W25796  11.955  18.115  11.617  0.0194 -0.0398 -0.2175
 6263W        W25797  12.469  17.865  11.460 -0.3249  0.0345 -0.2021
 6264W        W25798   7.866   6.400   1.408 -0.2949  0.2093  0.0132
 6265W        W25799  15.173   1.419   1.859 -0.0517 -0.2500 -0.0051
 6266W        W25800  12.227  19.306  11.800 -0.0061 -0.0883 -0.3685
 6267W        W25801  14.177   5.262  12.889 -0.4607  0.0262  0.2942
 6268W        W25802   6.549   0.258  10.929  0.1726 -0.0345 -0.2679
 6269W        W25803   5.707   5.123   3.892  0.0504 -0.0494  0.1986
 6270W        W25804   9.054   2.003  11.708  0.0307 -0.2218 -0.0012
 6271W        W25805   0.170   9.945  10.951  0.5133 -0.3571  0.0564
 6272W        W25806  14.592   9.734   0.596  0.1342 -0.2304  0.0911
 6273W        W25807   0.604  17.455   4.741 -0.0743  0.1747  0.5457
 6274W        W25808   8.636  15.078   3.524  0.0099 -0.2905 -0.0251
 6275W        W25809  11.376  18.656   2.023 -0.1161 -0.3021  0.4737
 6276W        W25810  13.112  13.626  11.424  0.0141 -0.0603 -0.2511
 6277W        W25811   6.677  19.125   0.358  0.3449 -0.0035  0.0138
 6278W        W25812  15.864   4.819   0.414  0.0729 -0.1264 -0.2080
 6279W        W25813  16.724   0.250  10.959  0.3173  0.0782  0.1496
 6280W        W25814  15.248  18.997   2.267  0.4916  0.0572  0.3298
 6281W        W25815   4.220   0.499   1.023 -0.2177 -0.1294 -0.0622
 6282W        W25816  16.119  19.123  12.679  0.1861  0.0341  0.1489
 6283W        W25817  18.880   9.367   2.708  0.2559 -0.0403 -0.1304
 6284W        W25818  15.902   6.742  14.342  0.0405 -0.0738  0.2608
 6285W        W25819   9.830   1.915   0.264  0.3146 -0.1236  0.0526
 6286W        W25820  14.565   6.537  11.752 -0.0452  0.0376  0.1818
 6287W        W25821   4.412   3.842  14.336  0.1028 -0.2319  0.1377
 6288W        W25822   2.644  18.195   2.220 -0.1388 -0.1857 -0.3079
 6289W        W25823  18.491   1.088   2.318  0.2562 -0.0245  0.1262
 6290W        W25824   9.981   3.528   0.547 -0.0035 -0.0367  0.2213
 6291W        W25825  17.960  19.387   1.031  0.2256  0.0677 -0.2187
 6292W        W25826  17.854   5.280  12.750  0.0566  0.1136  0.2329
 6293W        W25827   7.049  17.315   0.713 -0.0957  0.0890  0.1281
 6294W        W25828   2.184   4.423   1.760  0.0410 -0.0269 -0.0863
 6295W        W25829   7.385  16.522   3.214  0.1431 -0.0509 -0.3010
 6296W        W25830  17.401  19.476  14.238  0.0455  0.0401  0.0960
 6297W        W25831  18.268  18.320   2.126  0.1126  0.0329 -0.0785
 6298W        W25832  17.246   7.066   0.473 -0.3724 -0.1028 -0.0485
 6299W        W25833   8.120   1.365  11.382  0.1001  0.0728 -0.2552
 6300W        W25834  16.716   3.713   0.549 -0.0488 -0.3284 -0.0678
 6301W        W25835   0.154   4.069   0.289  0.1328 -0.0855  0.2598
 6302W        W25836   1.915   0.894  10.228 -0.1110  0.0403  0.1183
 6303W        W25837   7.111   3.858   2.707 -0.1825  0.0681  0.0169
 6304W        W25838  18.731   5.589  11.525 -0.0288  0.0526 -0.2633
 6305W        W25839  10.879  12.502   2.586  0.0343  0.0325  0.0296
 6306W        W25840   6.148  13.282  11.778 -0.2866 -0.3703  0.0057
 6307W        W25841   3.684   4.952   3.492 -0.2396 -0.0440 -0.2166
 6308W        W25842  13.894   0.913   2.336 -0.1492 -0.0330 -0.2310
 6309W        W25843  18.072   2.810   0.141  0.0269 -0.1132 -0.0648
 6310W        W25844   5.032   7.224   1.741  0.2028 -0.0714 -0.2720
 6311W        W25845   3.345   3.030   0.989 -0.0883 -0.1184 -0.1480
 6312W        W25846   8.996  12.964  11.436 -0.4490  0.3183  0.0080
 6313W        W25847   9.015  10.359   4.226 -0.1638 -0.2630  0.4501
 6314W        W25848  18.969   1.453   2.885  0.0059 -0.2161  0.1100
 6315W        W25849   7.798  18.039  11.508 -0.2416 -0.1226 -0.1103
 6316W        W25850   7.025  14.984  11.184  0.1550 -0.1979 -0.0618
 6317W        W25851   8.902  12.817  14.137 -0.2583  0.5284 -0.1944
 6318W        W25852   8.757  10.888   4.102 -0.0996  0.1892  0.0716
 6319W        W25853   4.095   4.692   3.950  0.1850 -0.1437 -0.0111
 6320W        W25854   4.245   0.494  11.297 -0.3300  0.1545  0.2378
 6321W        W25855  11.846   2.597   2.264 -0.0114  0.1327  0.0401
 6322W        W25856   6.174  12.813  10.956  0.1116 -0.0946  0.1939
 6323W        W25857  13.092   1.416   1.500 -0.2343 -0.1188  0.2285
 6324W        W25858   0.650   6.375  13.301 -0.1148  0.1058 -0.0366
 6325W        W25859  13.875   0.033   4.295  0.3935  0.1263 -0.2173
 6326W        W25860  14.841   3.258   1.964 -0.1819  0.2642  0.4227
 6327W        W25861  14.794   5.005  12.059 -0.0666 -0.0491 -0.1336
 6328W        W25862   0.900  18.877  11.336 -0.0809  0.1914  0.0670
 6329W        W25863   4.913   1.192   4.015 -0.2014  0.1499 -0.1249
 6330W        W25864   3.311   6.554  14.350 -0.1104  0.3327 -0.1893
 6331W        W25865   6.876   4.284  11.037  0.0076 -0.0904 -0.1470
 6332W        W25866   4.620   1.481  12.604  0.1325 -0.3878 -0.1300
 6333W        W25867   6.911   4.577   0.777 -0.1783  0.0957  0.0778
 6334W        W25868  13.574   3.009   3.190  0.0635  0.1605  0.1898
 6335W        W25869   1.878   4.717   2.044  0.4361  0.0502  0.0752
 6336W        W25870  18.123  13.928  13.819  0.0423  0.0172  0.1352
 6337W        W25871  18.560   0.757   2.668  0.0207 -0.1801 -0.1325
 6338W        W25872   5.473  10.471   2.577 -0.2538  0.1346  0.0733
 6339W        W25873  10.885  16.258  10.790  0.1981 -0.0274  0.2202
 6340W        W25874   3.641  12.669  10.421  0.0803  0.0450 -0.0815
 6341W        W25875  15.024  14.020  12.547  0.1235  0.0089  0.2834
 6342W        W25876   5.237   8.180  11.214  0.0296  0.1145  0.2507
 6343W        W25877  10.210   5.846   2.028  0.0699 -0.1178 -0.0582
 6344W        W25878   4.733   2.446   2.112 -0.0177  0.0598  0.2717
 6345W        W25879   6.994   1.925  13.194  0.2353 -0.1722 -0.0789
 6346W        W25880   5.936   4.092  12.276  0.0555  0.0024 -0.1292
 6347W        W25881  18.554  16.837   2.088 -0.0813  0.1882 -0.2551
 6348W        W25882   2.307  16.734  13.962 -0.1678  0.2837 -0.0775
 6349W        W25883  15.424   2.603   1.186 -0.1776 -0.1129 -0.0108
 6350W        W25884   7.723  10.584  13.744  0.2109  0.1947  0.3565
 6351W        W25885   3.513  13.846  12.177 -0.0112 -0.3216 -0.0060
 6352W        W25886   8.067   3.989  12.440 -0.2492  0.0930 -0.1698
 6353W        W25887  16.086  15.575  12.466  0.1727 -0.0862  0.2813
 6354W        W25888   6.967  15.908  12.007  0.2469 -0.0353 -0.0245
 6355W        W25889  15.354  10.852   3.187 -0.0490  0.0123  0.0272
 6356W        W25890   2.449   5.485   1.512 -0.3239 -0.0750  0.0925
 6357W        W25891   9.225  16.309  13.700 -0.2270 -0.0263 -0.0093
 6358W        W25892   8.128   5.426   0.257  0.1200  0.1885 -0.0134
 6359W        W25893   0.066  19.341   1.932 -0.1625 -0.0270 -0.1714
 6360W        W25894  13.657  12.976  13.255  0.0487 -0.2574  0.2237
 6361W        W25895  10.604   6.578  11.873  0.3890 -0.0085  0.1678
 6362W        W25896   5.724   3.556  11.050 -0.2625  0.1758 -0.4954
 6363W        W25897   0.768  13.929  13.394 -0.0711 -0.0369  0.0580
 6364W        W25898  16.906  16.601  13.522  0.4866 -0.3918 -0.0546
 6365W        W25899   5.188   3.120   1.504  0.3471 -0.1220  0.0177
 6366W        W25900  19.214  12.172   2.176 -0.0782  0.0771  0.1643
 6367W        W25901   7.301  12.136   4.344  0.0885  0.3253  0.1247
 6368W        W25902  15.773  12.692   3.531  0.2981  0.2088  0.1655
 6369W        W25903  12.786  11.223  10.101  0.1469  0.1020 -0.1075
 6370W        W25904   4.480  18.123   0.736 -0.0418 -0.3385 -0.0015
 6371W        W25905  18.341   3.034  14.031 -0.1138 -0.1391 -0.0481
 6372W        W25906   5.588  17.658  11.208  0.6432 -0.0028  0.0274
 6373W        W25907  12.249   0.328   2.980 -0.0443 -0.1214  0.1180
 6374W        W25908  19.467   4.978   2.380  0.1642 -0.1820  0.0362
 6375W        W25909   7.144  11.680  10.816  0.0419 -0.0133 -0.0837
 6376W        W25910   1.965   9.526   1.960 -0.2732  0.0759 -0.1220
 6377W        W25911   9.009   7.980  13.535 -0.1321  0.4572 -0.0281
 6378W        W25912   5.129   1.022   0.285  0.2084  0.0941  0.0801
 6379W        W25913  12.384   8.988   1.369 -0.4742 -0.0938  0.1416
 6380W        W25914  10.431   6.996  12.504  0.0465  0.3673 -0.1758
 6381W        W25915   8.558  15.442  10.266  0.1120 -0.1039 -0.0044
 6382W        W25916  10.643   7.823   1.392  0.0889 -0.0586 -0.2309
 6383W        W25917   5.823  10.707  14.000  0.2365  0.1906  0.2844
 6384W        W25918  12.413   4.865  13.046 -0.0757 -0.0068 -0.1044
 6385W        W25919   0.393  12.833   4.911 -0.2930 -0.2445 -0.2658
 6386W        W25920  13.731   8.073  12.992  0.1259  0.1413 -0.2672
 6387W        W25921  18.500   0.238   2.456 -0.3160  0.0822 -0.2995
 6388W        W25922  16.163   4.614  12.554  0.1183  0.0149  0.2021
 6389W        W25923  15.929   8.106   2.247  0.2524 -0.0181 -0.1165
 6390W        W25924   5.786  17.142  14.202 -0.2166 -0.1582  0.2111
 6391W        W25925   8.279  11.197   3.024  0.1043  0.1490  0.0894
 6392W        W25926   8.415   1.595   0.310 -0.0017 -0.0971  0.2491
 6393W        W25927  14.512   5.791  12.937 -0.3630 -0.0477 -0.2260
 6394W        W25928  18.160   7.300  10.581 -0.3350 -0.1516  0.4153
 6395W        W25929  14.091  18.376  12.948 -0.0518  0.0682 -0.0207
 6396W        W25930   2.648  13.235   1.855  0.0027 -0.1039  0.0591
 6397W        W25931  17.710  14.513  12.922 -0.1969  0.2065  0.1387
 6398W        W25932  17.545   3.849  11.173  0.0188  0.0352 -0.0232
 6399W        W25933   2.244  10.203   3.377 -0.2506  0.2838  0.1916
 6400W        W25934  12.649   6.105   4.048 -0.0124 -0.2302 -0.0740
 6401W        W25935  16.444   4.433   1.179 -0.1752 -0.1986 -0.2019
 6402W        W25936   1.011   2.734  14.361 -0.1380 -0.0840  0.2712
 6403W        W25937  13.070  19.010   1.231  0.1336  0.0880 -0.1589
 6404W        W25938   7.244   4.645  13.005  0.2690 -0.1159  0.2721
 6405W        W25939   5.943   1.885  13.124  0.2709 -0.1154 -0.1440
 6406W        W25940   9.967   7.497   0.928  0.0890 -0.0552  0.1780
 6407W        W25941   7.655   8.241   0.917 -0.0437 -0.1422 -0.2530
 6408W        W25942  18.858   3.234   1.665  0.0727  0.1901 -0.1555
 6409W        W25943  18.290  17.563   2.406  0.1574 -0.1671 -0.0524
 6410W        W25944   2.762  12.392   2.910  0.0166  0.1285  0.0117
 6411W        W25945   4.674   2.917  11.294 -0.1880 -0.1383  0.3421
 6412W        W25946   6.269  10.654   1.554 -0.0630  0.0845  0.1247
 6413W        W25947   2.175   6.936  12.597  0.1395 -0.4137  0.6529
 6414W        W25948  12.846  18.710  13.496 -0.1704  0.0110 -0.1248
 6415W        W25949   0.076   9.910  12.150  0.0539  0.2522  0.2802
 6416W        W25950   0.629  13.238   0.871  0.0850 -0.1727 -0.1539
 6417W        W25951   3.866  16.195   3.313 -0.0517 -0.0202  0.2357
 6418W        W25952  17.206  15.209  12.657  0.1105  0.1881 -0.1521
 6419W        W25953   6.473   7.966   5.116 -0.0178 -0.2144  0.2215
 6420W        W25954  12.186   9.251  14.346 -0.0166  0.0141 -0.2450
 6421W        W25955  15.613  14.158  11.670 -0.0595 -0.1700  0.0797
 6422W        W25956  18.206  16.153  11.021 -0.2121  0.0295  0.0985
 6423W        W25957   3.954   0.308   2.182 -0.1189 -0.0668 -0.1275
 6424W        W25958  14.462  19.488   2.150  0.1498  0.0866  0.3409
 6425W        W25959  14.013  17.348  13.159  0.2939  0.2039  0.5927
 6426W        W25960  18.534  13.853   0.372 -0.3032 -0.0202  0.2680
 6427W        W25961   5.685   4.297   3.110 -0.4036 -0.0042  0.3029
 6428W        W25962   8.662  19.222  12.932 -0.2611  0.1855 -0.1527
 6429W        W25963  16.012   2.458   0.937  0.0245 -0.0158 -0.0566
 6430W        W25964   5.843  16.426  11.084  0.0787  0.1623  0.0614
 6431W        W25965   6.483  18.087  12.753  0.0261  0.2752  0.0979
 6432W        W25966  14.262   6.178  12.613 -0.2411  0.0151  0.1161
 6433W        W25967   1.548   6.652  13.778  0.1332 -0.1733 -0.4222
 6434W        W25968   7.889   5.326   1.694  0.0988  0.1718  0.0600
 6435W        W25969  12.591   2.250   0.145  0.1573  0.1157  0.1338
 6436W        W25970   0.640  15.861  11.343 -0.0101 -0.0275  0.1187
 6437W        W25971   5.488  12.246  13.583  0.0570  0.4627 -0.0799
 6438W        W25972  13.679  15.844   0.277 -0.0177  0.1976  0.1158
 6439W        W25973  14.916   8.887   3.658  0.2232 -0.0565 -0.1635
 6440W        W25974   5.372   6.220   1.193  0.1027 -0.1952  0.1346
 6441W        W25975   7.686  13.747   0.904 -0.0210 -0.3586  0.0430
 6442W        W25976  11.920  13.601   1.409 -0.0840 -0.2059 -0.0865
 6443W        W25977   5.189  18.248   2.289 -0.2880  0.3176  0.0359
 6444W        W25978  13.704   9.610   3.502  0.2127  0.2109 -0.0579
 6445W        W25979  12.868  16.764   2.813 -0.2841  0.2623 -0.0894
 6446W        W25980  11.466  11.579   1.871  0.1189 -0.0123 -0.1071
 6447W        W25981   6.788  17.245   3.190  0.0736 -0.1374 -0.1103
 6448W        W25982  16.968   5.878  12.024  0.2469 -0.1540  0.2321
 6449W        W25983   0.867   2.791   2.813  0.2597  0.1888  0.0162
 6450W        W25984   4.475   3.698   2.199 -0.0592 -0.3271 -0.3386
 6451W        W25985  11.415   2.401  12.634  0.1228  0.2861 -0.2781
 6452W        W25986  18.836   8.348   3.667  0.1073  0.0137 -0.2667
 6453W        W25987   0.582   1.179   9.819  0.0060  0.0442  0.1639
 6454W        W25988   8.303   1.121   0.242  0.0957 -0.0816  0.2160
 6455W        W25989  17.466   4.844  12.754  0.1205  0.0815  0.1070
 6456W        W25990   7.481   9.530  12.998  0.1848  0.2205 -0.0674
 6457W        W25991   9.125  17.149   4.290 -0.1883 -0.1978  0.1755
 6458W        W25992  16.997  11.427   1.753 -0.1295  0.2433  0.1967
 6459W        W25993  11.023   4.627  11.682  0.3317 -0.2087 -0.2441
 6460W        W25994  12.043   2.373   1.518 -0.1448  0.0828 -0.2312
 6461W        W25995  10.309  16.741   0.050  0.0700 -0.2176 -0.1032
 6462W        W25996  18.333  18.617  12.591  0.2160  0.1669  0.0183
 6463W        W25997  15.084   0.780  10.571 -0.0914  0.0681  0.1367
 6464W        W25998   1.988  17.622  13.447 -0.0299  0.0694 -0.2925
 6465W        W25999   6.795   1.895   0.240  0.0823  0.0632 -0.2010
 6466W        W26000  12.600   0.290  12.722 -0.0276 -0.1446  0.1630
 6467W        W26001  12.431  11.902   1.345  0.1589  0.1447  0.2989
 6468W        W26002  17.444  13.666   4.641 -0.0154 -0.2536  0.1140
 6469W        W26003  16.836  13.252   0.036  0.0130 -0.1237 -0.1248
 6470W        W26004  16.260  11.987   1.276  0.1150  0.3259  0.0796
 6471W        W26005  12.855   0.701  10.710 -0.0438  0.2246 -0.0517
 6472W        W26006   9.809  10.419  12.823  0.0568 -0.2846 -0.0134
 6473W        W26007  18.753  11.824  12.851 -0.3388 -0.0570  0.0445
 6474W        W26008   1.639   4.929  12.477  0.0664 -0.1009  0.0173
 6475W        W26009  10.630  16.598  13.132 -0.0880 -0.3239  0.2748
 6476W        W26010  14.475  10.001  13.556  0.0308 -0.2670 -0.0729
 6477W        W26011  14.149   2.209   3.485  0.0591 -0.0877  0.1066
 6478W        W26012   2.988   4.520   2.727  0.0118 -0.1027  0.0553
 6479W        W26013   4.276   4.336  10.394 -0.0801  0.1684  0.4877
 6480W        W26014  10.920   6.310  13.693  0.4584  0.1412 -0.3299
 6481W        W26015   6.001   0.725   2.622 -0.0660 -0.3752 -0.2832
 6482W        W26016   9.045   7.501   2.353  0.2633  0.3180  0.0932
 6483W        W26017  16.868  15.328  12.244 -0.0193  0.2972  0.0768
 6484W        W26018  13.338   2.291  11.598  0.0074 -0.2355 -0.1219
 6485W        W26019   4.661  17.170   0.528 -0.0958 -0.3986  0.1217
 6486W        W26020  15.738   9.070  13.578  0.1520  0.0180  0.1410
 6487W        W26021   2.759   3.882   2.731  0.1961 -0.0537  0.3543
 6488W        W26022   3.495   9.499  14.334  0.0657 -0.4677  0.1741
 6489W        W26023   3.046   1.670   1.305 -0.0864  0.0221 -0.0098
 6490W        W26024   8.212   3.010  11.133 -0.1807  0.0056 -0.3275
 6491W        W26025  13.126  15.927   3.350 -0.0972 -0.0164 -0.1800
 6492W        W26026  10.387  12.345  13.268 -0.2004  0.1995 -0.0740
 6493W        W26027  15.275   1.598   2.951  0.0726 -0.0648 -0.0062
 6494W        W26028  12.891  16.469   4.691 -0.1148  0.0150 -0.1499
 6495W        W26029   3.157  15.755  13.409  0.1981 -0.3238 -0.0184
 6496W        W26030  18.641   4.397   4.458 -0.0745  0.0785  0.0985
 6497W        W26031   6.425  10.583   0.202 -0.1151 -0.2993  0.0803
 6498W        W26032   9.118   2.950  12.636 -0.0411 -0.2858 -0.2008
 6499W        W26033   0.543  19.138   0.782  0.0411  0.0241 -0.0719
 6500W        W26034  12.514   8.055  12.798  0.0464 -0.2190  0.2476
 6501W        W26035  14.845   7.636  11.577  0.1183  0.2388  0.2570
 6502W        W26036  18.196   5.930   1.349  0.0262  0.3874  0.1186
 6503W        W26037   1.822  15.112   1.065  0.3217  0.2077 -0.1363
 6504W        W26038   6.482   7.508   2.887 -0.1645  0.2967  0.4712
 6505W        W26039   4.958  15.288   2.410 -0.2033  0.0068 -0.0144
 6506W        W26040   4.383  14.800   2.654 -0.0515 -0.0890  0.0973
 6507W        W26041  19.377  19.063  11.455  0.1832  0.1192 -0.1434
 6508W        W26042  11.806   2.309  12.191 -0.1017 -0.0966  0.2564
 6509W        W26043  14.907   1.497   0.565 -0.2293 -0.0658  0.0239
 6510W        W26044   5.956  18.941   1.961  0.3917 -0.0447  0.0694
 6511W        W26045   3.791   2.141   9.569 -0.0685 -0.0433 -0.0679
 6512W        W26046  13.846   5.566   1.665 -0.0637 -0.0706 -0.3560
 6513W        W26047   8.839   8.418  13.316 -0.3175 -0.2293 -0.0915
 6514W        W26048   4.901  16.183   0.870 -0.1342 -0.3037  0.0878
 6515W        W26049   6.842  18.582   0.452  0.1769  0.1817  0.2333
 6516W        W26050  11.394   7.549  13.232 -0.1572 -0.1190 -0.1891
 6517W        W26051   3.552  14.019   3.754 -0.2094  0.1295  0.2268
 6518W        W26052   4.513  10.227   1.307  0.3113 -0.1955 -0.0245
 6519W        W26053   9.079   8.504  12.848 -0.1247 -0.0184  0.1625
 6520W        W26054  14.252   0.131   1.657  0.2670  0.1314 -0.1266
 6521W        W26055   2.568   3.462   9.617  0.1042  0.2403  0.2684
 6522W        W26056  11.611   4.601   4.195 -0.0594 -0.0845  0.2300
 6523W        W26057   5.236   4.745   0.988  0.2779  0.0234  0.4791
 6524W        W26058   7.545   0.999   0.746  0.2432 -0.0432 -0.0956
 6525W        W26059   8.690   5.888  12.440  0.0308  0.0177  0.1894
 6526W        W26060  12.396  18.796   1.944 -0.1990 -0.0052  0.0309
 6527W        W26061  14.198  12.335   0.691 -0.1095 -0.2560  0.0634
 6528W        W26062   5.083  16.899  11.541  0.2024 -0.2903  0.0577
 6529W        W26063  10.942   6.319  12.246 -0.2267  0.2931 -0.0789
 6530W        W26064  17.588   7.415  12.351  0.5345 -0.2800  0.3034
 6531W        W26065   6.399   3.325   2.364  0.1525 -0.0203 -0.0699
 6532W        W26066  17.396   0.125   1.018 -0.0475 -0.0555 -0.0751
 6533W        W26067  14.566  19.437   1.162  0.2249 -0.1627 -0.1222
 6534W        W26068  10.307  14.078  11.028 -0.2851  0.1686  0.0438
 6535W        W26069   3.481  17.843   0.614 -0.1191  0.1123 -0.0946
 6536W        W26070   3.847   5.816   0.156  0.0854  0.1953 -0.0602
 6537W        W26071  15.673   3.979   0.887  0.0683 -0.1358  0.0416
 6538W        W26072  18.023  16.533   2.012 -0.0172  0.2711  0.1085
 6539W        W26073   3.714   8.594   1.945  0.1517  0.3912  0.0417
 6540W        W26074   1.810   7.597   2.789 -0.2435  0.3178  0.0666
 6541W        W26075   4.799  13.108  12.253  0.2711  0.3429  0.0050
 6542W        W26076  17.965  17.256   0.791 -0.2421  0.0708  0.0677
 6543W        W26077  10.561   6.991   1.081 -0.2368  0.2609  0.1507
 6544W        W26078  14.599   5.008   1.760 -0.1318  0.0238 -0.0227
 6545W        W26079   9.622  14.022  12.257  0.1254 -0.2179 -0.0656
 6546W        W26080  18.367  15.419   2.457  0.2427 -0.1264  0.3282
 6547W        W26081  18.162   4.899  12.590  0.2095 -0.0714 -0.0554
 6548W        W26082  18.053   2.536  12.450 -0.1025  0.4323 -0.0772
 6549W        W26083  17.830   2.069   1.949  0.0941 -0.3665  0.4148
 6550W        W26084   8.969  18.791  11.989 -0.2884  0.0966  0.0711
 6551W        W26085   0.259   9.115  12.072  0.0564  0.0225  0.2223
 6552W        W26086   9.059  19.325  13.240  0.1559 -0.0592  0.3211
 6553W        W26087   8.257   7.134  11.293 -0.0025 -0.1931 -0.0532
 6554W        W26088   6.646   9.846  12.055  0.1565  0.1661 -0.0794
 6555W        W26089   4.608   0.821   2.015 -0.0659 -0.3753  0.0572
 6556W        W26090  15.962  12.759   2.421  0.0486  0.2557 -0.3175
 6557W        W26091   1.300  15.577   1.571  0.3574  0.0611  0.2647
 6558W        W26092  19.063   6.855   3.567 -0.1645  0.2181  0.4363
 6559W        W26093  17.234   6.544  12.440 -0.1336  0.2592  0.3450
 6560W        W26094   1.428  18.561   1.617 -0.1246 -0.1489  0.0923
 6561W        W26095  17.995  14.571   3.163  0.4178  0.2854 -0.0827
 6562W        W26096  14.550  16.774  13.618  0.0788  0.3074  0.1631
 6563W        W26097  10.386  10.004  11.215 -0.0535 -0.1939 -0.0373
 6564W        W26098  16.987   8.251   0.844  0.1847 -0.1463  0.4691
 6565W        W26099   1.207   9.070  12.143  0.1300 -0.1491 -0.1390
 6566W        W26100   9.448  16.314  12.636  0.0121 -0.2008  0.2214
 6567W        W26101   3.857   0.216   0.308  0.0556  0.3039  0.2279
 6568W        W26102   8.502  12.067   3.919 -0.1160 -0.2306  0.0143
 6569W        W26103  13.229  17.048  12.274 -0.0407  0.0645  0.1330
 6570W        W26104   8.513  15.161   4.538 -0.1774  0.0433 -0.1003
 6571W        W26105   4.349  16.567  11.234  0.0615  0.0152 -0.0523
 6572W        W26106  19.039  14.943   1.893  0.1851 -0.1404 -0.0510
 6573W        W26107   3.184   8.163   4.824  0.0331  0.0543  0.2661
 6574W        W26108   2.658   5.439  11.183 -0.1310  0.0634 -0.1067
 6575W        W26109   7.641   2.664  12.289  0.1006 -0.0280  0.0600
 6576W        W26110  13.965  14.788   1.232 -0.0269 -0.4007  0.3931
 6577W        W26111  10.128   1.943   0.644  0.2482 -0.1901  0.0816
 6578W        W26112   3.358   1.410  14.064 -0.0293  0.0886  0.0710
 6579W        W26113   7.131   2.299   0.190 -0.0614  0.1683 -0.1929
 6580W        W26114   4.431   9.436   1.774  0.1291  0.1052 -0.0485
 6581W        W26115  10.484   0.227  11.047 -0.0004 -0.0190 -0.1050
 6582W        W26116  17.391   0.020   3.612 -0.0273  0.1256 -0.0127
 6583W        W26117   2.029   8.274  13.953  0.0873 -0.0262 -0.2603
 6584W        W26118  11.032  19.504  12.582 -0.1001  0.0862  0.3786
 6585W        W26119  15.708  19.414   3.104 -0.0864  0.1506  0.0769
 6586W        W26120   8.390   4.768   2.390  0.0822 -0.1876  0.2220
 6587W        W26121   7.244   8.013  13.127 -0.2209 -0.3100 -0.0995
 6588W        W26122  13.487  11.428  13.985 -0.0637  0.1397  0.1036
 6589W        W26123  11.324  10.308  13.749  0.2109 -0.0287  0.0875
 6590W        W26124  11.687  15.907   2.544  0.0322 -0.1333  0.5154
 6591W        W26125   5.256   1.598  12.072 -0.0801 -0.1815 -0.2372
 6592W        W26126   8.748   3.194   1.133 -0.0135 -0.2499 -0.0486
 6593W        W26127  12.671  13.752   3.168  0.0139  0.1842 -0.0155
 6594W        W26128  17.466   8.086  11.498 -0.0603  0.0721 -0.0956
 6595W        W26129  11.287  18.056   3.295  0.1574  0.0841  0.1267
 6596W        W26130   9.310   2.060   3.773 -0.0934  0.2156 -0.0363
 6597W        W26131   3.503   6.553  12.730  0.1607  0.1877 -0.1136
 6598W        W26132   1.375   1.723  11.122  0.0276 -0.0191  0.0001
 6599W        W26133  12.694   7.887   2.043 -0.1117 -0.1082  0.2840
 6600W        W26134   8.551   4.383   2.680 -0.1481  0.1117  0.1872
 6601W        W26135   7.252  15.364  14.237  0.0544 -0.0890  0.1361
 6602W        W26136   3.180   6.970   3.574 -0.2027 -0.0808  0.2114
 6603W        W26137  16.339   8.714   0.337  0.0207  0.3350  0.0369
 6604W        W26138  17.818  16.889   3.567  0.3221 -0.1292  0.0559
 6605W        W26139  19.224  15.512   2.182 -0.0636 -0.0078  0.2337
 6606W        W26140  11.302   9.821   1.334  0.0686  0.1205 -0.1341
 6607W        W26141  10.698  14.489  10.115 -0.1309  0.1479  0.1205
 6608W        W26142   7.801   0.492   0.091 -0.0799 -0.0236 -0.1320
 6609W        W26143  10.897   7.563  11.412  0.1661 -0.1918 -0.0175
 6610W        W26144  17.959  17.776  13.235 -0.1929  0.1078 -0.1852
 6611W        W26145  13.645   1.340   2.465  0.1155 -0.0835 -0.1402
 6612W        W26146  19.254   8.500  10.993  0.0371 -0.2371 -0.0381
 6613W        W26147  11.450  10.066   3.663  0.0381  0.1534  0.1549
 6614W        W26148  10.119   5.511   0.362 -0.0012  0.1872 -0.2337
 6615W        W26149   1.062  18.444   1.925  0.1611 -0.1938  0.2794
 6616W        W26150   3.280   8.194   4.341 -0.1195 -0.0731 -0.1374
 6617W        W26151   9.443  10.321  13.160 -0.1103  0.3642  0.0443
 6618W        W26152   7.839  15.648  12.720  0.3878 -0.1564 -0.0474
 6619W        W26153   1.012  19.405  13.817 -0.0563 -0.0890 -0.2025
 6620W        W26154  15.120   9.314   2.797 -0.4383  0.0431  0.1711
 6621W        W26155  18.604  15.236  13.599  0.0042 -0.1186  0.1457
 6622W        W26156   7.996  11.971   4.967  0.2256  0.2540  0.0537
 6623W        W26157  12.329   4.985  10.995  0.1035  0.0799 -0.0307
 6624W        W26158   1.187   2.161   0.643  0.1127  0.2281 -0.0532
 6625W        W26159   7.853  19.425   2.495 -0.4066 -0.1070 -0.0018
 6626W        W26160   0.401   1.073  14.322  0.0339  0.0529 -0.0894
 6627W        W26161  11.080  13.682  11.905  0.1572  0.4390  0.1459
 6628W        W26162  10.255   2.175   0.094  0.1499 -0.0484  0.1489
 6629W        W26163   2.439  16.226   2.838 -0.0883 -0.2043 -0.0197
 6630W        W26164   6.139  12.351   1.697  0.2793  0.1460 -0.1082
 6631W        W26165   1.478  12.904   0.831  0.3028  0.1219  0.0119
 6632W        W26166   4.312   1.847  12.543  0.0605 -0.2246  0.1388
 6633W        W26167   8.556   9.499  10.658 -0.0422 -0.1748  0.1974
 6634W        W26168   8.986  13.759   3.842  0.1621 -0.5147  0.1567
 6635W        W26169  13.523   9.565  12.984  0.1947 -0.0360 -0.0971
 6636W        W26170   2.611  10.698   1.849  0.1725 -0.2927 -0.0096
 6637W        W26171   2.114   4.472  11.861  0.0575 -0.0401  0.0710
 6638W        W26172   8.193  10.455   0.033 -0.0800 -0.0359 -0.2082
 6639W        W26173  16.672   9.103   5.308  0.0180 -0.0312 -0.3869
 6640W        W26174  10.336   7.290  13.745  0.1736  0.0363  0.0541
 6641W        W26175  19.421   2.947   0.280  0.2128  0.1310 -0.1434
 6642W        W26176  18.147   1.282  12.854  0.0723  0.0201  0.1219
 6643W        W26177   5.788   3.630  12.798 -0.0634 -0.1164 -0.0083
 6644W        W26178   7.387  14.479   0.040 -0.0093 -0.0294  0.1552
 6645W        W26179  12.572  14.032   2.512  0.3325  0.0865  0.3619
 6646W        W26180  10.598  17.363  13.860  0.0251  0.5542  0.3306
 6647W        W26181   6.381   7.786   0.326  0.2491  0.0185 -0.1141
 6648W        W26182   6.416   7.804  12.231 -0.1490 -0.1251 -0.1915
 6649W        W26183   9.719   4.375  10.221 -0.1884 -0.3332  0.2036
 6650W        W26184  19.157  15.812  13.087  0.0384 -0.2053  0.0767
 6651W        W26185   7.243   7.180  12.259 -0.2297  0.0827 -0.0911
 6652W        W26186  10.533  10.294  10.413 -0.3942 -0.3654  0.3640
 6653W        W26187  14.010  11.653  11.013 -0.3879  0.0460 -0.0031
 6654W        W26188  10.690   9.641  12.003 -0.3685 -0.5763  0.0648
 6655W        W26189   6.610  11.441   0.417 -0.1183 -0.2750  0.2771
 6656W        W26190  17.965  10.235  10.417  0.2915 -0.1876  0.0612
 6657W        W26191  17.150   5.686  11.580  0.0005  0.1370  0.1648
 6658W        W26192  15.768  12.495   2.051 -0.2195  0.1471 -0.2166
 6659W        W26193  12.223   0.050   2.580  0.3085 -0.1327 -0.1196
 6660W        W26194  10.194   2.559  11.378 -0.2351  0.0298  0.0069
 6661W        W26195  14.599  14.659   2.549  0.3083 -0.1867  0.4466
 6662W        W26196  12.769  14.203   2.978  0.0045 -0.0699 -0.1102
 6663W        W26197  18.387   9.847  14.249  0.2671  0.0286 -0.2736
 6664W        W26198   0.318   1.605  12.440  0.0645 -0.1238 -0.1916
 6665W        W26199   8.857  16.719  13.609  0.0808 -0.0444 -0.2085
 6666W        W26200  17.096   7.624  12.386  0.0183  0.0795 -0.1000
 6667W        W26201  17.000   4.130   0.449 -0.0486  0.0437 -0.3103
 6668W        W26202   4.780  16.524   3.826  0.0938  0.1277 -0.2960
 6669W        W26203   9.243  18.285  12.041 -0.0091 -0.0342 -0.3201
 6670W        W26204  17.289  15.332  10.188  0.0457  0.0893  0.2987
 6671W        W26205  16.365   7.252  14.042 -0.0558 -0.1848 -0.0650
 6672W        W26206  13.512  10.238   0.867 -0.2156  0.1632  0.1101
 6673W        W26207  11.896  11.561  10.435 -0.2846 -0.1640 -0.0732
 6674W        W26208   5.157   4.295   2.095  0.4239 -0.2178 -0.0548
 6675W        W26209   7.847   6.543   1.980 -0.0534 -0.3136 -0.2334
 6676W        W26210  17.564   9.096  12.900  0.2249 -0.1942  0.0237
 6677W        W26211   0.184   0.242  10.363  0.1068  0.1668 -0.0732
 6678W        W26212  14.785  16.578   2.941 -0.0434  0.1129 -0.1206
 6679W        W26213   9.084   8.680   3.660  0.1453  0.0646  0.0447
 6680W        W26214   9.841  16.855  12.157 -0.1178 -0.1003  0.2008
 6681W        W26215  11.769  14.320  13.209 -0.0320  0.0980  0.0041
 6682W        W26216  12.402  16.308  11.207  0.1543  0.0311 -0.1578
 6683W        W26217   9.980   0.203  10.788 -0.3393  0.4916  0.2959
 6684W        W26218  17.063  17.732  11.662 -0.2476 -0.2172  0.3069
 6685W        W26219  11.851  16.076   0.650 -0.0699  0.0070 -0.0028
 6686W        W26220   0.213  11.574   2.341 -0.0483 -0.1574 -0.1343
 6687W        W26221  18.064  14.886  12.868 -0.2067 -0.1131 -0.3037
 6688W        W26222  14.547   8.868  10.616  0.0565  0.0933  0.1392
 6689W        W26223   5.538  16.716  14.039 -0.0058 -0.2460 -0.0586
 6690W        W26224  17.226   0.281  13.880 -0.0034 -0.0832  0.2283
 6691W        W26225   5.509   1.384  10.329  0.1977 -0.0537 -0.0487
 6692W        W26226   5.309  19.114  14.288  0.1003 -0.2515 -0.0369
 6693W        W26227   3.051   1.452  10.921 -0.0823 -0.0372 -0.2505
 6694W        W26228  11.026  15.924   2.359  0.0884 -0.0987 -0.2698
 6695W        W26229  18.697   2.593   0.957 -0.0628 -0.1277  0.1905
 6696W        W26230  17.094  15.810  10.593  0.3026  0.0165 -0.0325
 6697W        W26231   9.539  12.139  13.462 -0.1578 -0.0656 -0.1576
 6698W        W26232   7.406  17.035  13.278  0.0180 -0.2213  0.0751
 6699W        W26233   3.087   2.606  12.671  0.0539 -0.0144  0.1558
 6700W        W26234   8.601  17.119  13.775 -0.1476  0.2993 -0.4220
 6701W        W26235  12.376   5.204  10.076  0.1045  0.2041 -0.3028
 6702W        W26236  14.382  10.300   0.352 -0.1569  0.2181  0.1718
 6703W        W26237  17.511   6.197   2.616  0.0118 -0.0212  0.1657
 6704W        W26238  11.095  19.074  12.354 -0.2812 -0.0366  0.1262
 6705W        W26239   6.233  11.939   2.104  0.0771  0.0998 -0.1060
 6706W        W26240  14.520   8.306  12.323 -0.0763 -0.2198 -0.1193
 6707W        W26241  14.145   7.405  13.072  0.1401 -0.2502 -0.1625
 6708W        W26242   1.607   3.891   0.141 -0.2058 -0.2511 -0.1245
 6709W        W26243  13.935   1.462   2.078  0.1139  0.2790 -0.0029
 6710W        W26244   6.511  15.196   4.061 -0.1194 -0.1387  0.0262
 6711W        W26245   5.858   5.042   2.290 -0.3840 -0.0926  0.2410
 6712W        W26246  19.384  19.035   1.256 -0.3108  0.4793  0.2524
 6713W        W26247   9.543  14.379   3.032 -0.2072  0.2335 -0.0091
 6714W        W26248  14.314  12.571   3.265 -0.0934  0.1165 -0.4216
 6715W        W26249   4.211  18.964  11.297 -0.2292 -0.1488  0.1301
 6716W        W26250   5.640   4.401   1.584  0.1935 -0.0945 -0.2701
 6717W        W26251  12.396   8.235  13.921 -0.1340 -0.0976  0.1744
 6718W        W26252   7.881   1.908   2.929  0.0259  0.0397 -0.2362
 6719W        W26253   7.187   0.571   2.761  0.3236  0.1934 -0.0385
 6720W        W26254   7.393   1.328   0.395  0.0315 -0.1084  0.2187
 6721W        W26255   5.556  15.601  14.141  0.0631  0.0228  0.0165
 6722W        W26256  15.106   4.923   1.677 -0.2282  0.0592  0.2288
 6723W        W26257  13.750   0.284  11.341  0.1144  0.1186  0.1411
 6724W        W26258  18.563  11.603   1.512 -0.0218 -0.0689  0.0436
 6725W        W26259   3.509   1.703  11.738 -0.1323  0.1431 -0.0162
 6726W        W26260  14.276   8.440  11.822  0.0394 -0.0311  0.1348
 6727W        W26261  16.816  15.064  10.897 -0.1204 -0.0825 -0.2029
 6728W        W26262   2.992   7.760   4.065 -0.0150 -0.2055 -0.1408
 6729W        W26263  10.801   8.268  10.442 -0.0673 -0.0704 -0.5665
 6730W        W26264   1.119   7.396  13.378  0.0966 -0.0637  0.2263
 6731W        W26265   6.320   5.855  13.340  0.0819 -0.0671  0.6180
 6732W        W26266  10.200  17.959  12.286 -0.1988 -0.1319  0.1923
 6733W        W26267   3.151   6.445  13.906 -0.0978  0.1467  0.1305
 6734W        W26268  16.198   4.231   0.794 -0.1856 -0.1085  0.0780
 6735W        W26269   0.602  12.103   2.888 -0.1230  0.0217  0.1886
 6736W        W26270   2.856  13.766  10.965 -0.0259 -0.1324  0.1094
 6737W        W26271  11.158  11.848   1.481 -0.0241  0.2143 -0.2591
 6738W        W26272   4.588  12.551   2.934 -0.0619 -0.1640 -0.1681
 6739W        W26273  14.709   2.558   1.417  0.0616 -0.3455  0.1250
 6740W        W26274  13.714  17.359   0.509  0.1705  0.0665  0.0628
 6741W        W26275   9.350   9.435   0.065  0.3192 -0.4013 -0.0450
 6742W        W26276   3.608   4.693  12.720  0.2256 -0.0358  0.0207
 6743W        W26277   3.871  15.878  12.853  0.0703  0.2208  0.3039
 6744W        W26278   8.886  13.784  12.510 -0.2972  0.1521  0.2162
 6745W        W26279  17.069   2.557   3.510  0.2279 -0.1141 -0.0259
 6746W        W26280   0.457  14.250   1.866 -0.0425  0.0716 -0.5230
 6747W        W26281   1.192  19.227  11.549  0.0700  0.1257 -0.1103
 6748W        W26282   9.798  15.220  14.057 -0.3499 -0.3977 -0.1620
 6749W        W26283   8.970  17.962   1.798  0.1117  0.1238 -0.1787
 6750W        W26284   4.096  12.275   2.407  0.0106 -0.0175  0.1139
 6751W        W26285   5.869   6.338   3.325  0.0272 -0.0116 -0.0070
 6752W        W26286  15.067   6.700  13.634 -0.1255  0.0099  0.0627
 6753W        W26287   3.374  12.077   3.553 -0.0188 -0.2806  0.0401
 6754W        W26288   9.991   6.652  11.720 -0.2539  0.0464  0.0166
 6755W        W26289  17.965   4.992   0.659 -0.0354 -0.0604 -0.0303
 6756W        W26290  11.013  15.013   3.220  0.1766  0.0977  0.0884
 6757W        W26291  18.671   2.180   0.621 -0.3471 -0.0256  0.0366
 6758W        W26292   8.639   5.230   2.575 -0.0185  0.1224 -0.1455
 6759W        W26293   0.156   5.512  11.588 -0.1063  0.0442  0.2097
 6760W        W26294  15.205  12.873  10.936  0.2389  0.0433 -0.1322
 6761W        W26295   7.628  14.818   4.611 -0.1870 -0.1346  0.3854
 6762W        W26296   1.526  13.026   2.045  0.0241  0.0903  0.1715
 6763W        W26297  15.779  19.444   0.436 -0.0528  0.1822  0.0041
 6764W        W26298   3.039   4.624  11.804 -0.1205  0.0508  0.1400
 6765W        W26299   0.107  17.037   1.343 -0.0599 -0.1238  0.0766
 6766W        W26300   0.914  11.677   1.596 -0.0540  0.0329  0.0667
 6767W        W26301   3.710  12.854  12.499  0.1478 -0.0824  0.0417
 6768W        W26302   8.216   8.081   3.354  0.0619 -0.1081 -0.0708
 6769W        W26303  11.304  16.368   0.005 -0.1534 -0.2821  0.2020
 6770W        W26304   1.538  15.205   2.609 -0.1572 -0.4446 -0.0439
 6771W        W26305  13.445   3.776  12.084 -0.0551  0.0054  0.2122
 6772W        W26306   6.018  15.324   4.140 -0.1329  0.0929 -0.0963
 6773W        W26307   5.398  11.411   2.440 -0.0468 -0.3849 -0.1679
 6774W        W26308  15.416   4.611   2.790 -0.1722  0.0922  0.3114
 6775W        W26309  14.769   9.322   2.435 -0.2394  0.1097 -0.1342
 6776W        W26310   2.716   5.971   1.257 -0.2590 -0.2137  0.2282
 6777W        W26311   4.649   5.043   0.360  0.0121  0.0161  0.0705
 6778W        W26312  17.266  16.026   0.339 -0.1062 -0.4673  0.0268
 6779W        W26313   2.274  18.971   4.017  0.0285 -0.1354  0.0984
 6780W        W26314   5.534   5.215   1.990 -0.1963 -0.1856  0.3623
 6781W        W26315  13.131  10.299   2.302 -0.4658 -0.3353 -0.1527
 6782W        W26316  15.391   1.233   9.206  0.1072 -0.2278 -0.2159
 6783W        W26317  14.949  13.389  12.500 -0.0539 -0.2291  0.0472
 6784W        W26318  17.107   1.264  13.037 -0.1312 -0.0543 -0.0531
 6785W        W26319   0.170  15.410   2.424 -0.2869  0.1399  0.0793
 6786W        W26320   0.635  13.517  13.670  0.0673  0.1866  0.0974
 6787W        W26321  14.246  19.230   1.406 -0.1694 -0.0978 -0.4293
 6788W        W26322   2.717   1.837  11.050  0.0031 -0.0784 -0.1592
 6789W        W26323  18.603  16.573  10.039 -0.2302  0.1316  0.3391
 6790W        W26324  10.614   0.893  14.326  0.2716  0.1514 -0.0039
 6791W        W26325   5.549   0.456  14.164 -0.0808 -0.1051 -0.1166
 6792W        W26326   5.601  12.699   9.304  0.0446  0.1918  0.2587
 6793W        W26327   3.006  16.432  11.683  0.1517 -0.0948  0.0420
 6794W        W26328  18.887  14.611   0.002 -0.0898  0.1807  0.2041
 6795W        W26329   4.016   2.785  10.242  0.1461  0.1125  0.0858
 6796W        W26330   9.846  10.130   1.473  0.1654  0.0974  0.2152
 6797W        W26331  19.370   7.822  13.411 -0.0637 -0.1194  0.1053
 6798W        W26332   6.640   9.673  10.127 -0.0474  0.2829  0.3259
 6799W        W26333  18.565   2.549  10.825  0.0574 -0.2571 -0.2303
 6800W        W26334   4.327   4.639   2.164  0.3085  0.3033 -0.3361
 6801W        W26335  10.125  10.301  10.770 -0.2093  0.1987  0.2326
 6802W        W26336   5.656  10.124   1.374  0.3229 -0.2503 -0.0066
 6803W        W26337   9.405  17.853  10.256  0.1741  0.1502 -0.0775
 6804W        W26338   8.477  15.173  11.535  0.1098 -0.3366 -0.0373
 6805W        W26339   1.229   0.323  10.862 -0.0655 -0.3203 -0.0944
 6806W        W26340   6.523   3.716   3.220  0.0403  0.2174  0.3710
 6807W        W26341   9.214   5.531   4.042  0.1496  0.0650 -0.0577
 6808W        W26342   5.877  14.686   1.957  0.1106  0.2825  0.0211
 6809W        W26343   1.784  13.705   1.040  0.0988 -0.0852  0.0760
 6810W        W26344   5.308   8.188   3.115  0.2051 -0.2266 -0.0513
 6811W        W26345   2.699  14.373  12.083 -0.0662 -0.0512 -0.0530
 6812W        W26346  16.068  16.580   4.368  0.0497  0.1621  0.1795
 6813W        W26347  13.583   5.083   0.407 -0.1665 -0.1962  0.2683
 6814W        W26348   8.016   2.837   0.688 -0.0256 -0.0166  0.2247
 6815W        W26349  15.507  12.170  11.484 -0.0560 -0.1139  0.0811
 6816W        W26350  15.899   6.389  13.939  0.0907 -0.0928 -0.0749
 6817W        W26351   9.105  18.934  12.884  0.0244  0.4508 -0.0132
 6818W        W26352  12.190  12.359   2.779  0.0409  0.2322  0.1691
 6819W        W26353   4.544  12.734   3.379  0.3658 -0.0631 -0.3013
 6820W        W26354   3.596  11.544   1.672 -0.2769 -0.0710  0.1363
 6821W        W26355  13.325  15.827   2.749 -0.2397 -0.1377  0.3484
 6822W        W26356   6.603  17.516  10.772  0.0046  0.2407 -0.1045
 6823W        W26357   4.438   5.438  12.156  0.1034 -0.0405  0.0746
 6824W        W26358  13.375   6.908  12.472  0.1073  0.0991  0.2446
 6825W        W26359  15.479  15.668  11.458 -0.1868 -0.0251 -0.1728
 6826W        W26360   3.772   5.501   0.561  0.0025 -0.1199  0.0225
 6827W        W26361   6.636  16.588   2.076 -0.0364 -0.1335  0.2108
 6828W        W26362   9.163   4.938  11.331 -0.3225  0.0015 -0.0274
 6829W        W26363  16.201   4.025  14.230  0.0750  0.0296  0.0690
 6830W        W26364   3.978   1.459   4.154  0.0250  0.3224 -0.3888
 6831W        W26365   8.104  12.465  11.377  0.3155  0.2111 -0.1734
 6832W        W26366  18.425   3.494  11.905 -0.0016  0.2931 -0.3227
 6833W        W26367  13.393   4.616  12.452 -0.2368 -0.0732  0.4769
 6834W        W26368  17.127  17.992  14.371  0.4327 -0.2516 -0.0120
 6835W        W26369   3.274   1.462   3.248 -0.2461  0.0851 -0.1605
 6836W        W26370  11.868   3.035   9.129  0.2006  0.3544  0.1143
 6837W        W26371   0.566  12.231  13.244  0.1510 -0.0612 -0.0595
 6838W        W26372   1.985   2.905  14.093  0.4096 -0.0657  0.1700
 6839W        W26373   2.743   4.898  11.375 -0.0110 -0.1272  0.0013
 6840W        W26374   3.680  12.747  14.140  0.0540 -0.0674 -0.0944
 6841W        W26375  17.628   7.892   0.369  0.0013  0.0100  0.2984
 6842W        W26376  13.995   4.231   0.950 -0.1319 -0.0962 -0.1340
 6843W        W26377   5.786   5.799  12.576 -0.1925 -0.4469  0.0889
 6844W        W26378   3.800   8.389  12.949  0.0202 -0.1931  0.0999
 6845W        W26379  14.785   6.854  12.518  0.1709  0.0482  0.0283
 6846W        W26380  10.078  15.395  11.518  0.1569  0.1316 -0.0925
 6847W        W26381  18.516  15.387  14.193  0.1259  0.1075 -0.4704
 6848W        W26382  17.687   8.963   3.663  0.3159 -0.0139 -0.2677
 6849W        W26383   1.172  15.572   2.622 -0.1945  0.5443  0.1657
 6850W        W26384   6.684  18.095  13.819  0.4844  0.1693  0.0081
 6851W        W26385  10.437  10.101   0.299 -0.1103  0.0243  0.1841
 6852W        W26386   7.940  18.116  11.944 -0.2991 -0.1148  0.0361
 6853W        W26387  19.308   9.321   0.328 -0.1250 -0.0429 -0.1320
 6854W        W26388  15.166   7.069  12.298 -0.0503 -0.0327 -0.1734
 6855W        W26389   6.803   0.244   2.234  0.2590 -0.1190  0.2889
 6856W        W26390   9.134   5.099  13.315  0.0874 -0.3630  0.0142
 6857W        W26391  16.349  10.869   9.791 -0.1497  0.0853  0.0053
 6858W        W26392   0.371   4.254  12.459 -0.1554 -0.0219  0.1286
 6859W        W26393   3.003   8.557   4.527 -0.0875  0.0941  0.2631
 6860W        W26394   7.731  13.390   2.252  0.1377  0.0479 -0.1276
 6861W        W26395   6.962   0.466  14.345  0.0374 -0.1278  0.5008
 6862W        W26396  10.905   5.972  11.563 -0.2750 -0.1094  0.2091
 6863W        W26397  17.650   4.428   2.825  0.0851  0.1657  0.1329
 6864W        W26398  11.988  17.684  11.367 -0.0249 -0.0330 -0.1602
 6865W        W26399  15.314   1.447   0.829  0.0192 -0.2568 -0.3577
 6866W        W26400   0.403  13.680   1.946 -0.6378  0.0254  0.2521
 6867W        W26401   0.057   2.470   2.792  0.2885  0.2243  0.3026
 6868W        W26402  15.459  11.061   0.602 -0.5404 -0.1571  0.2116
 6869W        W26403  19.003  10.835   0.879  0.1443  0.2361 -0.0700
 6870W        W26404   1.091   7.468  11.346 -0.0128  0.1351  0.1303
 6871W        W26405  14.203   8.404   1.074  0.0273 -0.3159 -0.4568
 6872W        W26406  15.487   5.043   2.070 -0.1303  0.1424 -0.1167
 6873W        W26407  15.867   4.836   1.875 -0.3182  0.0407  0.0829
 6874W        W26408   0.450  16.672  11.590  0.1397  0.1125  0.0169
 6875W        W26409   2.436  10.234   2.410 -0.0453 -0.1333 -0.0259
 6876W        W26410  14.304   3.483  13.532  0.0992 -0.0016  0.1361
 6877W        W26411   8.946   4.358  13.106  0.0330 -0.2457  0.1953
 6878W        W26412  15.339  10.643  10.754 -0.1875 -0.0155  0.2935
 6879W        W26413  11.742  17.826   3.288 -0.1414  0.3834 -0.0453
 6880W        W26414  18.577   9.343   3.218  0.1997  0.1720 -0.0816
 6881W        W26415  14.232  13.812  10.758 -0.0009 -0.0111 -0.2894
 6882W        W26416  10.568  19.132   2.103 -0.2165 -0.0184  0.3382
 6883W        W26417   7.744   2.331   3.822  0.2126  0.2927  0.0771
 6884W        W26418   6.788   0.719  11.321 -0.3199  0.0242  0.1009
 6885W        W26419  14.574  11.116   1.797 -0.1786 -0.1014 -0.0516
 6886W        W26420  10.976   8.218  14.214 -0.1259  0.0915 -0.2767
 6887W        W26421  13.394   8.097   3.260 -0.1526 -0.6377  0.2915
 6888W        W26422   5.757  16.286  13.465 -0.1261 -0.2809 -0.0273
 6889W        W26423  11.387   2.809  13.541 -0.0469  0.3274  0.2669
 6890W        W26424  11.876   5.794  13.104 -0.1069  0.1227 -0.0703
 6891W        W26425   2.633  16.247   0.455  0.0436 -0.0474  0.1886
 6892W        W26426  16.904  11.477  13.182 -0.3271 -0.0798  0.0525
 6893W        W26427   5.283   3.229   3.627 -0.2024  0.4160 -0.0757
 6894W        W26428  13.091  14.819  12.671 -0.2891  0.1932  0.1730
 6895W        W26429  11.118   6.101   0.778 -0.0812  0.0536 -0.1626
 6896W        W26430  12.447   0.777   2.944 -0.2277 -0.0728  0.1859
 6897W        W26431   6.933   1.186  10.596  0.0686  0.2587  0.0828
 6898W        W26432   6.537  10.894   3.989  0.0034 -0.1532 -0.1896
 6899W        W26433  14.351   6.145   9.633 -0.1588 -0.1119  0.1428
 6900W        W26434  16.080  10.348   2.476  0.0302  0.2253 -0.1190
 6901W        W26435  18.282  12.681   3.196 -0.1963 -0.0195 -0.1510
 6902W        W26436  11.684   6.567  14.313 -0.1324 -0.0834  0.2720
 6903W        W26437   4.047  15.693  13.313  0.1493  0.4538  0.1831
 6904W        W26438   5.942  15.094   4.658  0.0561  0.0987 -0.2141
 6905W        W26439   4.360   9.145   1.266 -0.1441 -0.1230 -0.2000
 6906W        W26440  14.827  18.569  13.463 -0.1492 -0.0034 -0.0211
 6907W        W26441   2.302   0.790  13.995 -0.0343 -0.0876  0.1232
 6908W        W26442  13.341   7.810   1.542 -0.1725  0.1125  0.1051
 6909W        W26443  10.935   7.093  11.148  0.0242  0.0575 -0.1654
 6910W        W26444  18.137  18.036   4.125  0.2224 -0.7517 -0.1008
 6911W        W26445   2.404  18.728   4.471  0.2764  0.2122 -0.0898
 6912W        W26446   9.595   1.919   3.344 -0.3448  0.1638 -0.0844
 6913W        W26447  14.344   7.968   2.751 -0.1170  0.0476  0.1900
 6914W        W26448   8.193  15.697  14.165  0.0006  0.3159  0.0041
 6915W        W26449  16.778   2.806   3.013 -0.0367  0.0110  0.5176
 6916W        W26450   7.523   9.182   0.145  0.0336 -0.1028 -0.0393
 6917W        W26451   6.332  17.049  12.269  0.0584 -0.1132  0.0028
 6918W        W26452  11.209   3.705   1.431 -0.2269 -0.0112 -0.4519
 6919W        W26453  16.350   2.467  11.668 -0.1638  0.0803  0.2294
 6920W        W26454   8.849  15.332  10.692  0.2351  0.0180 -0.0504
 6921W        W26455  13.951  10.419   3.373  0.0434 -0.0834  0.0281
 6922W        W26456   8.492   8.550   0.062 -0.1954  0.2409  0.2038
 6923W        W26457   6.037   1.030   1.117  0.3597 -0.0040 -0.0359
 6924W        W26458  10.561  17.736   2.739 -0.3337 -0.2769  0.1187
 6925W        W26459  19.262   1.502   1.029  0.0130 -0.2161  0.0395
 6926W        W26460  15.412  12.060   0.678 -0.1264  0.1833 -0.0872
 6927W        W26461  18.296  10.821  13.179 -0.2439 -0.0696 -0.0120
 6928W        W26462   1.449  12.337   3.458 -0.1075 -0.0235  0.0910
 6929W        W26463   8.612   8.992   0.552 -0.1413  0.4193  0.0296
 6930W        W26464   5.788  13.188  12.554 -0.3988  0.1988  0.0094
 6931W        W26465   1.942  14.740   2.400  0.1372 -0.0893 -0.2016
 6932W        W26466   0.270  17.922  11.034 -0.3026 -0.0332 -0.2042
 6933W        W26467  12.760   9.806   2.490  0.1610 -0.0295 -0.0807
 6934W        W26468   1.743  16.003  13.926  0.0250  0.0254 -0.2129
 6935W        W26469  17.180  18.544  10.199  0.2747 -0.1493 -0.2024
 6936W        W26470  16.739  14.443   3.188 -0.0374 -0.0121 -0.0689
 6937W        W26471  14.898  12.427  12.887 -0.2229 -0.1680  0.1795
 6938W        W26472   2.928   6.156  11.709  0.0822 -0.0563 -0.0152
 6939W        W26473   1.622   7.516   5.320 -0.3786 -0.1584  0.1946
 6940W        W26474  12.040  18.281   0.229  0.4913  0.1273 -0.2295
 6941W        W26475  13.385   4.444  10.431 -0.1460  0.3112 -0.1674
 6942W        W26476  11.905  12.123  11.950 -0.1965  0.2552  0.2233
 6943W        W26477   7.317   2.452  13.785 -0.4239  0.0876 -0.0914
 6944W        W26478  19.178  13.749  10.901 -0.1610 -0.1632 -0.0398
 6945W        W26479  13.594   0.671   0.138  0.0295 -0.0365 -0.1724
 6946W        W26480  17.427   7.461  13.541  0.1542 -0.1783 -0.1267
 6947W        W26481   7.111  19.386  13.054 -0.3641 -0.2128 -0.1226
 6948W        W26482   8.385  12.093  12.361 -0.1346 -0.1448  0.1414
 6949W        W26483   9.971  13.220   3.641  0.0311 -0.1836 -0.0187
 6950W        W26484   4.948  13.738   3.403  0.0071 -0.0265  0.0461
 6951W        W26485   4.889  19.029   0.235 -0.0519 -0.1502 -0.0069
 6952W        W26486   0.903  11.541   3.605  0.0768  0.3368 -0.0963
 6953W        W26487  17.793   5.918   2.191  0.1036 -0.3593  0.0119
 6954W        W26488  17.264  18.174   3.009  0.1224 -0.3080 -0.3540
 6955W        W26489  18.192  15.306  11.957  0.0491 -0.0449 -0.1307
 6956W        W26490  13.936   3.258  11.491 -0.2974 -0.1388 -0.0791
 6957W        W26491  13.204   3.255   4.683  0.1636  0.1747 -0.0809
 6958W        W26492   7.033   4.212  12.856  0.1698  0.1130 -0.1690
 6959W        W26493  13.410   1.356   1.997  0.3629 -0.0443 -0.4016
 6960W        W26494  11.700   8.576   2.117 -0.0402  0.1721  0.1272
 6961W        W26495   3.702   7.146   3.562 -0.1029  0.0367  0.1853
 6962W        W26496   8.051  17.672   3.468  0.2038  0.0521  0.0795
 6963W        W26497  15.918   7.606   2.955  0.1067  0.1371 -0.2202
 6964W        W26498  15.496   5.246   0.819  0.0503  0.2492 -0.1134
 6965W        W26499   9.247  12.712   3.098 -0.0872 -0.1238 -0.2304
 6966W        W26500   2.374   1.249   2.195 -0.1459  0.0074  0.0098
 6967W        W26501   0.262   0.718  13.666 -0.1985 -0.0887  0.0521
 6968W        W26502   6.796  12.131   4.325 -0.1541  0.0073 -0.3553
 6969W        W26503   7.024  16.892   0.974 -0.1749 -0.0581  0.0162
 6970W        W26504  12.084   4.235   2.213  0.4162 -0.1203  0.1201
 6971W        W26505   0.374   0.167  11.132  0.0587  0.1675  0.0692
 6972W        W26506  10.734   3.630   4.071  0.0464  0.0885  0.1589
 6973W        W26507   4.646  13.619   4.965 -0.0212  0.4068 -0.0569
 6974W        W26508   1.541   0.070   2.038 -0.1448 -0.0825  0.1481
 6975W        W26509   8.372   4.345   3.137 -0.0764  0.2241 -0.0894
 6976W        W26510  10.206   3.509  13.665  0.2470  0.1096 -0.4068
 6977W        W26511  11.344  14.403   5.100 -0.0728 -0.2081  0.0762
 6978W        W26512   5.601  13.278   0.012 -0.1971 -0.0655 -0.3830
 6979W        W26513   8.963   8.565   1.114 -0.0943  0.3056  0.0538
 6980W        W26514   0.257   1.545  11.623 -0.6717 -0.1472 -0.2894
 6981W        W26515   9.106  11.421   0.555  0.1359 -0.0182  0.0143
 6982W        W26516   8.543   7.969  13.221 -0.0816 -0.1445 -0.1162
 6983W        W26517  18.617  11.328   2.069  0.2000 -0.3114 -0.0539
 6984W        W26518   8.777   8.969   4.593  0.0340 -0.0089  0.0855
 6985W        W26519  12.331   7.800  13.643  0.0392  0.1248  0.0873
 6986W        W26520  18.343  19.219   0.134 -0.2703  0.0984 -0.3856
 6987W        W26521  14.280  13.317  10.709  0.1827  0.3804  0.3111
 6988W        W26522  14.316   8.497   1.903  0.0797  0.0574 -0.3316
 6989W        W26523   4.139  14.581  14.249  0.0129 -0.1144 -0.2576
 6990W        W26524   9.961   3.656  11.095 -0.1936 -0.2318  0.1622
 6991W        W26525   7.469   2.282  12.536  0.0558  0.2451 -0.1637
 6992W        W26526   1.259  11.785  12.932 -0.1875 -0.4968 -0.0143
 6993W        W26527  17.587   0.955   2.498 -0.1865  0.0501  0.2791
 6994W        W26528  15.238  18.331   0.759  0.1598 -0.0680  0.1374
 6995W        W26529   8.266   4.967  13.553  0.2161  0.0489  0.2164
 6996W        W26530   0.855   8.161   3.810  0.1398  0.2756 -0.1536
 6997W        W26531  11.695  13.837   0.390  0.0602 -0.0603 -0.0670
 6998W        W26532  10.505  18.493   3.342  0.1729  0.3090  0.1233
 6999W        W26533   8.355  14.883   3.179  0.1881 -0.0591  0.2328
 7000W        W26534   2.057   6.560  12.282 -0.2922 -0.1702  0.1484
 7001W        W26535  18.573  11.901  13.419  0.0119  0.0115 -0.1617
 7002W        W26536  17.584  14.427   3.398 -0.3624 -0.1846  0.2448
 7003W        W26537  17.828  11.701  13.235 -0.1834  0.0336 -0.0127
 7004W        W26538   5.964   2.135  10.886  0.0141  0.0986 -0.1057
 7005W        W26539  12.481  18.154   0.016 -0.0685 -0.3398 -0.2361
 7006W        W26540   4.677   5.197  13.274  0.1821  0.1291  0.1563
 7007W        W26541   5.225   1.342  12.799 -0.0749  0.0340 -0.3356
 7008W        W26542   3.108   1.160   3.642  0.1734  0.1467 -0.0173
 7009W        W26543   7.633  11.463  11.654  0.1273  0.3468 -0.1140
 7010W        W26544  17.136   4.103   9.904  0.0344  0.0708 -0.1641
 7011W        W26545  13.146  14.064  10.271 -0.2825 -0.0572 -0.2413
 7012W        W26546   1.879  16.741  11.408  0.3695  0.2564  0.0268
 7013W        W26547   1.708  12.171  12.508 -0.0019  0.1334  0.1140
 7014W        W26548   8.047  19.032  11.644  0.2158 -0.4305  0.0564
 7015W        W26549  12.709  13.326   3.975 -0.1269  0.0466  0.1446
 7016W        W26550   3.785   1.044  13.419  0.1552 -0.0945 -0.2508
 7017W        W26551  10.005  18.323  13.812  0.0953  0.0586 -0.0615
 7018W        W26552  16.517  17.053   2.172 -0.1230 -0.0775 -0.2199
 7019W        W26553  10.084   3.647  12.091 -0.0496  0.0076 -0.1132
 7020W        W26554  18.872  17.810  12.590 -0.2517  0.0483  0.4608
 7021W        W26555   4.326  18.825   3.593 -0.1323  0.0007 -0.0424
 7022W        W26556   2.646  18.108   1.585 -0.1340 -0.1021 -0.3566
 7023W        W26557   4.039  18.034  13.198  0.1071  0.0132  0.0806
 7024W        W26558   3.778   1.667   2.070  0.1161 -0.1480  0.0457
 7025W        W26559   9.610   8.108  13.185 -0.2214  0.0112  0.5133
 7026W        W26560   7.790  15.075  11.229 -0.2426 -0.0903 -0.0251
 7027W        W26561  13.359  11.460   3.930 -0.1907  0.1913  0.1573
 7028W        W26562   1.988   3.193   1.816  0.0387 -0.1185  0.3721
 7029W        W26563   7.628   3.540   3.190  0.0274  0.2272 -0.0717
 7030W        W26564   7.566  14.719  11.967  0.0307 -0.2031  0.0055
 7031W        W26565   3.198   9.358  11.454  0.1667  0.1708 -0.1185
 7032W        W26566  13.047   4.889   2.758  0.4415 -0.0377  0.2412
 7033W        W26567   0.929  14.619   3.798  0.2796  0.3601 -0.0819
 7034W        W26568   6.572   5.250   2.801  0.1553  0.1794  0.0015
 7035W        W26569  14.656  15.105   0.411 -0.1050  0.0607 -0.2152
 7036W        W26570  18.206   1.220   0.780 -0.0880  0.0556  0.1049
 7037W        W26571   3.256   9.642   2.463 -0.0137  0.0405  0.1791
 7038W        W26572   9.176   9.826  12.173  0.0979 -0.2314 -0.0438
 7039W        W26573  17.339  18.664  12.485  0.3173  0.0696 -0.0977
 7040W        W26574   8.002   1.002   4.732 -0.1588 -0.0694 -0.0422
 7041W        W26575   7.685  14.048  10.828  0.2627  0.1262 -0.3911
 7042W        W26576  12.705  11.447  12.076  0.1541  0.3134  0.2301
 7043W        W26577  17.521  14.218   0.416  0.0235  0.1669 -0.0478
 7044W        W26578   1.979   8.394  11.827 -0.2472  0.1904  0.1331
 7045W        W26579   4.490  11.252   3.289  0.0017  0.0169  0.1364
 7046W        W26580  10.573   5.470  13.180  0.0869  0.0786 -0.0420
 7047W        W26581   6.111   1.451   9.479  0.1633 -0.1285 -0.1211
 7048W        W26582   0.098   6.742  10.259 -0.1749  0.0006  0.1344
 7049W        W26583   6.008  18.640   2.378  0.0718 -0.0404  0.0792
 7050W        W26584   8.095  13.086  10.988  0.2598 -0.0196 -0.0053
 7051W        W26585   4.979   9.563   3.067  0.2776  0.0434 -0.2853
 7052W        W26586   7.929   0.897  10.557 -0.3746 -0.3885  0.3181
 7053W        W26587  16.383   5.586   1.318  0.2175  0.0018  0.0383
 7054W        W26588   5.068   1.585   0.469  0.3234 -0.5178  0.0720
 7055W        W26589   4.755   5.240  11.805  0.0701 -0.2103 -0.0678
 7056W        W26590  14.356   5.695  13.389 -0.0656  0.1125  0.2361
 7057W        W26591   2.416  15.634   2.339 -0.2503 -0.3469  0.0535
 7058W        W26592   9.061  11.351  13.058  0.3977  0.1240  0.0137
 7059W        W26593  16.179   1.944  14.168  0.1304  0.2337  0.2652
 7060W        W26594  18.033   7.770  13.003 -0.5019 -0.2272  0.0599
 7061W        W26595   1.194   9.631  10.304  0.0802 -0.1967  0.0708
 7062W        W26596   0.923   6.819   3.213 -0.3130 -0.2114 -0.0555
 7063W        W26597   4.307   0.375   0.188  0.3619 -0.3520 -0.2061
 7064W        W26598  16.800  15.065   1.778 -0.3238 -0.0217 -0.0924
 7065W        W26599   4.580  13.951  13.270  0.2843  0.1539  0.1249
 7066W        W26600   5.143  17.830  13.984  0.1387 -0.4007  0.1717
 7067W        W26601   5.145   5.843   0.300 -0.0286 -0.0381 -0.1777
 7068W        W26602   8.535   0.350   2.879  0.1491  0.5193  0.2003
 7069W        W26603   2.471  12.636   1.050 -0.0778 -0.0182 -0.0723
 7070W        W26604   3.664   2.049  11.351  0.0696  0.0360 -0.0017
 7071W        W26605  13.996   7.341   3.338  0.1471  0.2284 -0.0068
 7072W        W26606   5.694   3.862  10.658 -0.0664  0.0631 -0.0945
 7073W        W26607  14.120   9.801   2.075 -0.1592  0.0652  0.0185
 7074W        W26608   4.252   9.813   3.397 -0.0955 -0.1861 -0.1182
 7075W        W26609  13.989  17.163   1.671  0.3626 -0.1448  0.2967
 7076W        W26610  18.062  17.754   3.712 -0.1676 -0.1218 -0.0271
 7077W        W26611   2.521  12.053  11.037 -0.0903 -0.1781  0.0002
 7078W        W26612  18.093   1.229  11.462 -0.1336  0.0755 -0.1980
 7079W        W26613   5.642  10.042  12.864  0.1715  0.1115 -0.1805
 7080W        W26614   3.841  13.754   1.681  0.4585  0.1162 -0.0844
 7081W        W26615   8.006  10.455   3.732  0.0791  0.1446  0.3570
 7082W        W26616   4.108  17.986   5.031  0.4388 -0.4058 -0.0049
 7083W        W26617  14.894   1.837   3.209 -0.1572 -0.0015  0.2405
 7084W        W26618  18.496   7.089  12.415 -0.0994 -0.1352  0.1198
 7085W        W26619  12.628  19.127  11.484 -0.0017  0.0968  0.1320
 7086W        W26620  10.641  13.587   2.751  0.2070  0.1395 -0.0400
 7087W        W26621  10.551  14.417  14.208  0.3274  0.2289 -0.0932
 7088W        W26622  15.360  10.875  11.545  0.0503 -0.3617 -0.0079
 7089W        W26623   2.985  14.157   0.533  0.0840 -0.0386 -0.1577
 7090W        W26624  16.597   7.859  12.380 -0.2858  0.0401  0.1763
 7091W        W26625  15.422  15.041   1.675  0.2580  0.3097 -0.0850
 7092W        W26626   7.054   1.665   2.675  0.1094 -0.0209 -0.3413
 7093W        W26627  19.160  10.361   4.678  0.1929 -0.2445 -0.0668
 7094W        W26628  10.116   4.093   0.608  0.0518 -0.0744 -0.2565
 7095W        W26629   3.049  16.009   1.683  0.0978 -0.0293  0.2146
 7096W        W26630  18.159  10.529  10.730 -0.1093  0.1226  0.2220
 7097W        W26631   7.000  18.215  11.082  0.2258  0.3687  0.0677
 7098W        W26632  11.822  14.515   2.765 -0.0630  0.2557 -0.3648
 7099W        W26633   3.047  19.501  11.422 -0.0485  0.0811  0.0952
 7100W        W26634   2.334  18.637   3.112 -0.0759  0.0745 -0.0346
 7101W        W26635   2.463  11.453   5.390 -0.0992  0.1333 -0.2662
 7102W        W26636   7.800   9.358   3.097 -0.2093 -0.0720 -0.0164
 7103W        W26637  10.843   2.338  10.164  0.2789  0.2580 -0.0326
 7104W        W26638   6.726   1.822  11.707 -0.0872  0.2176 -0.0420
 7105W        W26639   8.445   2.978  10.620  0.0826 -0.1008 -0.0607
 7106W        W26640  15.266  19.215   2.726  0.0380  0.1764 -0.1983
 7107W        W26641  17.486  10.441   2.482  0.3187 -0.0188 -0.3502
 7108W        W26642  13.270  14.563  13.165  0.1617  0.1394 -0.2875
 7109W        W26643  13.811  10.669  11.065  0.3356  0.0308  0.1803
 7110W        W26644  16.294  12.816   3.172 -0.2455  0.0531 -0.3873
 7111W        W26645   1.139  12.130  10.057  0.2113  0.2082 -0.2274
 7112W        W26646  10.768   4.514   1.949 -0.0097  0.2430 -0.3316
 7113W        W26647   3.815  10.941   4.266 -0.0125  0.1995 -0.0529
 7114W        W26648  18.324   3.874   2.251 -0.1083 -0.1162  0.1437
 7115W        W26649  17.254  14.309  11.796  0.0449  0.0354  0.0454
 7116W        W26650   9.793   9.272   0.251 -0.0413  0.0406 -0.2664
 7117W        W26651  11.661   5.737   5.170 -0.1774 -0.2675 -0.3426
 7118W        W26652  11.480   2.524  11.422 -0.0977 -0.0211  0.3343
 7119W        W26653   6.094   5.298   3.550 -0.1768  0.0233  0.0470
 7120W        W26654  17.772   4.684   2.420  0.0656  0.2298 -0.1054
 7121W        W26655  13.568   2.522  11.979  0.1665  0.2210 -0.1059
 7122W        W26656   0.228  14.514  14.098  0.0650  0.3515  0.0300
 7123W        W26657  11.455  13.523   2.165 -0.0134 -0.0744 -0.2135
 7124W        W26658  12.600   6.469  11.858 -0.1447  0.1893 -0.2570
 7125W        W26659  18.196   0.297   0.902  0.2234 -0.0684 -0.4181
 7126W        W26660   7.617  17.673  11.828 -0.3901  0.2687  0.0630
 7127W        W26661   6.421   4.387  12.421  0.3015 -0.1207  0.3639
 7128W        W26662  12.971  13.199  13.764  0.2038  0.2348  0.1117
 7129W        W26663  15.661  16.015  12.922 -0.0038 -0.2826 -0.0288
 7130W        W26664   9.195  15.948  11.333 -0.0830  0.2430  0.0466
 7131W        W26665   1.327   8.975   1.394  0.1560 -0.2026  0.0281
 7132W        W26666  12.052  18.974   2.566  0.2081 -0.2150  0.0800
 7133W        W26667  11.843  14.492   3.741 -0.0837  0.3865  0.1434
 7134W        W26668   4.096   7.664  11.018  0.1138 -0.3145  0.1586
 7135W        W26669  11.945   1.947   3.694  0.2384  0.1197  0.0038
 7136W        W26670  14.339   8.919   3.735  0.0114  0.0492  0.1678
 7137W        W26671  14.668   6.116  13.298  0.1192  0.1803 -0.0819
 7138W        W26672  18.183   9.251  10.518  0.0031  0.1077 -0.0651
 7139W        W26673  17.615  11.259   2.978  0.2084 -0.2438 -0.1030
 7140W        W26674   2.891   7.723   2.237 -0.2109 -0.0513  0.2171
 7141W        W26675  16.206  14.450   0.059  0.1288 -0.1912  0.1933
 7142W        W26676  11.011  13.268  13.216  0.3050 -0.2235 -0.0461
 7143W        W26677  13.611  12.633  12.921 -0.3441  0.0175  0.0585
 7144W        W26678   1.385  17.572  11.783 -0.6148  0.5314 -0.0557
 7145W        W26679   9.709   3.101   0.909 -0.1197 -0.2071 -0.0357
 7146W        W26680  14.240   3.346   4.430  0.0729  0.2567  0.4855
 7147W        W26681   6.106   2.740   3.712 -0.2432  0.1899  0.0655
 7148W        W26682  11.778  18.722   9.945  0.3519  0.3356 -0.1686
 7149W        W26683  18.332   2.322  11.700 -0.0002 -0.0584 -0.0060
 7150W        W26684  12.606   4.079  13.397 -0.1052 -0.1916 -0.1497
 7151W        W26685   5.774   4.877   1.047  0.0415  0.1960  0.0248
 7152W        W26686  12.433   5.611   3.702  0.3106 -0.4918 -0.0442
 7153W        W26687   3.443  11.984   1.124  0.0874  0.0247  0.0832
 7154W        W26688   2.922   4.094   1.957 -0.2582  0.0842 -0.2150
 7155W        W26689   0.948  12.414   3.199  0.0095  0.0617  0.0724
 7156W        W26690   7.103  17.059  10.769  0.1461 -0.0523 -0.1275
 7157W        W26691  10.459   8.958   3.735 -0.0232 -0.2218 -0.0406
 7158W        W26692  18.496  11.551   2.866  0.3043 -0.0891 -0.2163
 7159W        W26693  10.438   4.341   2.478  0.0786  0.0626  0.2779
 7160W        W26694  13.958  10.278   2.110  0.0520 -0.0521 -0.0271
 7161W        W26695  10.834   0.208   1.216  0.2595  0.2535 -0.3153
 7162W        W26696  13.392   3.498   2.252  0.1298  0.3004  0.0736
 7163W        W26697   3.923  11.817   1.429 -0.0507  0.0144  0.1268
 7164W        W26698   9.590  19.113   3.224  0.2227  0.0051  0.0334
 7165W        W26699  17.427  10.548   2.955  0.0296  0.2350 -0.0776
 7166W        W26700  11.937   7.257  14.359  0.0436 -0.2316 -0.0121
 7167W        W26701  13.695  14.891   1.883 -0.0008  0.0286 -0.1404
 7168W        W26702  16.290   1.417   0.406 -0.0295 -0.0297  0.1466
 7169W        W26703  19.232   9.093  13.169 -0.1616 -0.1393  0.1595
 7170W        W26704   6.723   8.219   4.016 -0.1151 -0.2791  0.0682
 7171W        W26705   9.141   5.432  11.511 -0.3001 -0.2091 -0.1224
 7172W        W26706  17.147  15.685   9.627 -0.0781  0.0680  0.5144
 7173W        W26707   7.425   8.307  12.038  0.0619  0.0911 -0.0278
 7174W        W26708   0.783  11.265  11.244  0.1657  0.0214  0.3566
 7175W        W26709  15.478   0.011   4.795 -0.3167  0.1142 -0.0699
 7176W        W26710   2.135  16.879   4.750  0.1735 -0.2173 -0.1788
 7177W        W26711  10.238  16.754   1.917 -0.0814 -0.1609  0.2712
 7178W        W26712  14.049  15.099   2.689  0.2036  0.0947 -0.0490
 7179W        W26713   4.138   0.725  10.376  0.0249  0.1095  0.1857
 7180W        W26714   6.508   9.102  12.499 -0.0556 -0.0164 -0.0587
 7181W        W26715   8.656   7.977  11.383 -0.0708 -0.4480 -0.0502
 7182W        W26716  12.535   4.903  10.532  0.0934  0.0648  0.1242
 7183W        W26717  19.399  16.543   1.434  0.3328  0.1381  0.0656
 7184W        W26718   2.376  14.239   1.717  0.1585 -0.0361  0.0486
 7185W        W26719  19.464   3.244  13.373  0.0702 -0.0546 -0.4116
 7186W        W26720   2.808  14.728   2.829 -0.0869  0.0201  0.1769
 7187W        W26721  17.364  11.564   3.875 -0.1837 -0.1575  0.1439
 7188W        W26722   7.020  17.483  11.723  0.2735  0.1878 -0.0595
 7189W        W26723  16.157   7.506   1.123  0.0317  0.2515  0.0567
 7190W        W26724   7.820  13.389   0.573 -0.5733 -0.1165  0.3908
 7191W        W26725   7.283   2.685  12.793  0.1802  0.2223  0.5218
 7192W        W26726   4.851   1.084   3.117  0.3634  0.0329  0.0881
 7193W        W26727  18.162  15.343   1.528 -0.0738  0.1823  0.0179
 7194W        W26728  14.045   1.775   4.057  0.2005 -0.1179  0.2627
 7195W        W26729  14.631   7.435  12.211 -0.0951 -0.5218  0.2764
 7196W        W26730  12.093  15.095  12.724  0.1144 -0.0928 -0.1777
 7197W        W26731   9.686   1.273   2.131 -0.0092 -0.0921  0.1361
 7198W        W26732   5.309   3.744   1.157  0.3296  0.1856 -0.1476
 7199W        W26733   1.083   5.004   3.895  0.1939  0.1487  0.4073
 7200W        W26734   4.165  10.000  13.759  0.2463  0.1621 -0.1295
 7201W        W26735   5.030  11.589  13.804 -0.1140 -0.4627  0.0083
 7202W        W26736   3.662  17.388   1.457  0.0731  0.0563  0.1593
 7203W        W26737  15.383   4.458  13.099  0.0730 -0.2180  0.3505
 7204W        W26738   1.542  12.150  13.112 -0.4402  0.0219 -0.2114
 7205W        W26739  16.320   4.730  13.533 -0.0581 -0.0243 -0.1112
 7206W        W26740   6.074  10.394   4.200  0.0530  0.0076 -0.2315
 7207W        W26741  17.892   0.353   2.446  0.0235 -0.1663 -0.0311
 7208W        W26742   6.243   0.777  13.673 -0.0737  0.0376  0.0421
 7209W        W26743  14.841  18.385  14.318  0.1668 -0.2069 -0.0128
 7210W        W26744   9.763   9.685  12.241 -0.3246 -0.1671  0.0684
 7211W        W26745   4.057  10.831   2.744  0.0219 -0.2060  0.0300
 7212W        W26746  16.416  16.982  11.082  0.0483 -0.0504  0.2193
 7213W        W26747  17.899   0.171   0.559  0.0825 -0.2415 -0.1682
 7214W        W26748  18.057   9.358   0.467  0.0305  0.3571  0.0402
 7215W        W26749  15.730  14.531  12.126 -0.3495  0.1068 -0.1481
 7216W        W26750   2.357   0.307   1.102  0.1097  0.3606  0.0926
 7217W        W26751   3.988  13.656   4.054 -0.1465  0.1255  0.1609
 7218W        W26752   5.569   2.938   0.029  0.1805 -0.1380 -0.1260
 7219W        W26753   4.184  17.863  13.834 -0.1446 -0.0182  0.1275
 7220W        W26754   7.167   6.714   3.590 -0.0110  0.4011  0.0147
 7221W        W26755  16.140   2.417   3.800 -0.0995 -0.1798  0.2764
 7222W        W26756  15.060   4.775  13.705 -0.3213  0.0712 -0.0789
 7223W        W26757  14.940  13.958   0.685  0.0698  0.3573 -0.0056
 7224W        W26758  12.365   2.271  11.312 -0.0559  0.0006 -0.0585
 7225W        W26759  16.241  12.525  13.457  0.1825 -0.0515  0.1614
 7226W        W26760   6.461  10.821  11.197 -0.1226  0.0040  0.2451
 7227W        W26761  14.324   6.907   1.100 -0.1601  0.0774  0.0546
 7228W        W26762  11.470  19.128   0.860  0.0758  0.2853  0.1418
 7229W        W26763  11.895   0.410  11.233 -0.0720 -0.3639 -0.1977
 7230W        W26764   4.837  18.619  13.119  0.0721  0.0390  0.0002
 7231W        W26765  11.369   9.973   2.779  0.0624 -0.0246  0.2146
 7232W        W26766   9.979   3.335   3.647 -0.1692  0.1160  0.0367
 7233W        W26767  15.750  16.818  11.401 -0.0054  0.4252  0.2353
 7234W        W26768  12.830  14.047  11.303  0.0607  0.3660 -0.0615
 7235W        W26769   4.735   7.612   0.227 -0.0016 -0.2434  0.0320
 7236W        W26770   3.918   1.584  12.162  0.3109 -0.2569  0.0197
 7237W        W26771  17.008   4.742  11.923 -0.1379 -0.2046 -0.0447
 7238W        W26772  16.409  14.430   0.643  0.1034  0.0749  0.1287
 7239W        W26773   4.758  12.943  14.121  0.0297 -0.2025 -0.0729
 7240W        W26774  18.432   3.235   0.434 -0.2655 -0.1523  0.0266
 7241W        W26775  15.009   4.024   0.337  0.0781  0.2506 -0.0396
 7242W        W26776   0.935   0.621   2.249 -0.0341 -0.0463  0.0592
 7243W        W26777  14.316   6.698  12.582  0.0460 -0.1347 -0.2795
 7244W        W26778  18.193  13.908  11.306  0.1470  0.2783 -0.3850
 7245W        W26779  14.227  11.084  14.350 -0.2501 -0.0929  0.0972
 7246W        W26780   5.765   9.376   0.833  0.2182  0.1887 -0.0561
 7247W        W26781   0.485   8.903   2.362  0.1485 -0.1325 -0.2769
 7248W        W26782  14.171  18.875  12.768 -0.0767 -0.0639  0.1572
 7249W        W26783   0.940  12.277   1.423  0.2740  0.2578 -0.1717
 7250W        W26784  19.059   0.356   3.991 -0.0337 -0.1327  0.0985
 7251W        W26785  15.525   8.118   1.769 -0.2529  0.0950 -0.0074
 7252W        W26786  12.851  17.655  12.469 -0.1443 -0.2900 -0.3120
 7253W        W26787  12.483   7.348   1.405  0.0884  0.1408 -0.1848
 7254W        W26788  12.813   2.995   0.498  0.0626  0.1925  0.0791
 7255W        W26789   0.837   7.300   3.422  0.0812 -0.2668  0.1785
 7256W        W26790  14.385   7.731   3.219  0.1108 -0.0596  0.1429
 7257W        W26791  10.851   9.997  12.403  0.2009  0.3077 -0.0454
 7258W        W26792   6.355  11.945  11.386 -0.0126 -0.0622  0.1349
 7259W        W26793  16.880   5.418  11.158  0.0351  0.2462  0.0523
 7260W        W26794  19.058  15.689  11.420 -0.2187 -0.2915  0.2497
 7261W        W26795   3.479  14.489  13.966 -0.1376  0.3650  0.1696
 7262W        W26796  15.158  16.544   1.558  0.3712 -0.1216 -0.3253
 7263W        W26797   6.398  12.480  11.288 -0.0070 -0.0936  0.0469
 7264W        W26798   4.878   7.515   1.289  0.0734  0.1446 -0.0104
 7265W        W26799   2.992   3.417   2.536 -0.2108 -0.1799 -0.2066
 7266W        W26800   9.612   5.326   2.558 -0.1192  0.2701  0.0483
 7267W        W26801   4.546  16.631   1.814 -0.0053 -0.1011  0.1043
 7268W        W26802  15.572   4.935  13.049 -0.0297 -0.1471 -0.1266
 7269W        W26803   8.878   4.768   2.459  0.1562 -0.0964  0.0620
 7270W        W26804   8.955   1.958  12.395  0.2442 -0.1302 -0.1213
 7271W        W26805   6.997   5.000   2.646  0.3045  0.0190  0.1045
 7272W        W26806   1.465   1.841  12.082  0.0262 -0.1624 -0.2993
 7273W        W26807   4.612  19.037   9.768  0.0995  0.0879  0.0818
 7274W        W26808   7.816  11.366  13.031  0.1081  0.1329  0.2803
 7275W        W26809   9.304  11.053   2.017 -0.3262 -0.0036  0.0028
 7276W        W26810   0.740   9.401   2.569 -0.0233  0.3891  0.1205
 7277W        W26811  16.530   1.611  13.625  0.1585 -0.0306  0.3220
 7278W        W26812   3.602  12.837   2.831 -0.5840  0.2044 -0.1101
 7279W        W26813  14.116   8.810  14.031  0.0426 -0.0010  0.0163
 7280W        W26814   0.824  19.245  12.494  0.2384  0.2729  0.1679
 7281W        W26815  11.795  11.447  11.561 -0.1479  0.1511  0.0831
 7282W        W26816  17.640  15.497  13.361 -0.4093 -0.0893  0.1074
 7283W        W26817   2.091  18.514  13.731 -0.0774  0.0952  0.0915
 7284W        W26818   0.482  14.945  11.121  0.0914 -0.2092  0.0764
 7285W        W26819  19.230  13.594  11.919 -0.3303 -0.2501  0.0152
 7286W        W26820   0.943   5.365   3.000  0.0463 -0.1647  0.1489
 7287W        W26821   4.816   3.895   1.897  0.0155  0.0143  0.1538
 7288W        W26822  19.310   3.220   0.674  0.1103 -0.0064  0.0151
 7289W        W26823  14.739  18.021  13.977 -0.0218  0.0208  0.2208
 7290W        W26824   1.808   1.030   0.356 -0.1311  0.1566 -0.1659
 7291W        W26825   2.591   1.424  10.641 -0.1118  0.0692 -0.1999
 7292W        W26826   8.825   2.066  11.194  0.0365  0.3833  0.2754
 7293W        W26827  10.213   6.419   3.908  0.1243  0.0710 -0.1542
 7294W        W26828  15.210  17.911  14.215 -0.0692 -0.1092  0.1861
 7295W        W26829   2.265   1.311   1.169  0.0492 -0.1689  0.1647
 7296W        W26830   8.331  13.775   4.919  0.0862  0.1615 -0.1313
 7297W        W26831  15.933  11.129  12.260 -0.1836 -0.1207  0.1836
 7298W        W26832  18.547  17.495  11.216 -0.0177 -0.3092 -0.1482
 7299W        W26833   0.289  15.117   0.309 -0.0384 -0.1599 -0.0746
 7300W        W26834   9.962   8.221  14.071  0.0935 -0.5089 -0.1935
 7301W        W26835   6.158   7.971   2.881 -0.1172  0.1898  0.2254
 7302W        W26836  12.604  17.140  13.494 -0.2298  0.0936  0.1160
 7303W        W26837   3.239   9.134  10.746 -0.1092  0.0749  0.4046
 7304W        W26838  11.416   8.826  11.465 -0.0630 -0.0349 -0.1388
 7305W        W26839  16.415   8.577   1.192 -0.1966 -0.1120 -0.3171
 7306W        W26840  18.497   8.791  12.198  0.0888 -0.3999  0.4400
 7307W        W26841  13.520   3.743   3.999  0.1324  0.4060 -0.0977
 7308W        W26842  16.563   3.800  13.976 -0.3361  0.1377  0.1002
 7309W        W26843   2.243   2.911  10.498  0.0111 -0.2663  0.1632
 7310W        W26844  11.356  16.941   3.331  0.0685 -0.1934 -0.2151
 7311W        W26845  17.093   7.970   4.545 -0.0824 -0.1905 -0.1184
 7312W        W26846   8.225   1.819   1.571  0.0201  0.1887  0.0085
 7313W        W26847  10.622   5.947   3.468  0.0180 -0.3276 -0.0002
 7314W        W26848   5.375   6.905   2.707 -0.1895  0.1560 -0.0974
 7315W        W26849  16.738   6.646  13.154 -0.4274 -0.1590 -0.1780
 7316W        W26850   7.050   8.917   1.472  0.0392 -0.2015 -0.0370
 7317W        W26851   0.704   6.022   1.087  0.0418 -0.1866  0.1125
 7318W        W26852  12.183   9.426   0.976  0.0887  0.0837 -0.2180
 7319W        W26853   0.715  17.666  10.732 -0.2540 -0.1311  0.5579
 7320W        W26854   3.469   8.944   2.138 -0.2561  0.1031  0.0010
 7321W        W26855   2.188  18.977  12.564  0.2749 -0.0371  0.0904
 7322W        W26856  13.449  13.926   3.975  0.0850  0.0280  0.3377
 7323W        W26857   7.959  13.645   3.922 -0.4868 -0.2756  0.0703
 7324W        W26858  13.967   1.874   1.724 -0.1848 -0.1404 -0.0076
 7325W        W26859   4.846  10.904   3.434 -0.3781 -0.0033 -0.0515
 7326W        W26860  13.149  10.111  10.742 -0.2700  0.1135 -0.3025
 7327W        W26861  16.388   1.257  12.810  0.0460 -0.0568 -0.0370
 7328W        W26862  18.847   7.229  11.538 -0.0037 -0.2750  0.0249
 7329W        W26863  10.569   4.315   3.134 -0.1243  0.0610  0.1764
 7330W        W26864  16.583  10.083   0.704 -0.0255 -0.0246 -0.0696
 7331W        W26865   7.525  18.080   0.097  0.1107 -0.2412 -0.1036
 7332W        W26866   6.883  16.104  12.504 -0.2227  0.0743  0.0182
 7333W        W26867  19.501   0.661  13.201  0.0295 -0.2874 -0.0272
 7334W        W26868   7.835  16.413  10.770 -0.2254  0.1822 -0.0666
 7335W        W26869   3.791   9.606  13.133 -0.0423 -0.1909 -0.2087
 7336W        W26870  14.890   2.698   3.501  0.1308 -0.2660 -0.2982
 7337W        W26871   4.110  12.435  13.133 -0.0340 -0.1083  0.0888
 7338W        W26872   4.078   5.596  12.574 -0.1010 -0.1765  0.1130
 7339W        W26873  17.154  16.765  11.515  0.0475  0.2932  0.2678
 7340W        W26874  14.067  10.458   2.890 -0.3022 -0.2259  0.0395
 7341W        W26875  10.772   5.907  13.372  0.1510 -0.1433  0.2280
 7342W        W26876   7.445  14.876  13.983 -0.2324 -0.2225 -0.0491
 7343W        W26877  14.553  13.958   3.364 -0.0170 -0.1673  0.1540
 7344W        W26878   9.752  13.785   3.915 -0.0788  0.2252 -0.1366
 7345W        W26879   9.577  19.226  13.214  0.0122 -0.1611 -0.1120
 7346W        W26880   3.868  10.629  10.540  0.0280  0.0230 -0.0704
 7347W        W26881   5.118   9.678   0.111  0.1458 -0.2894  0.3676
 7348W        W26882   6.767   8.401   2.957  0.1551 -0.0021  0.1956
 7349W        W26883   3.550   9.173   5.327 -0.1841  0.2742 -0.2338
 7350W        W26884   0.453   7.668   3.188  0.1737  0.4318  0.0972
 7351W        W26885   1.442  18.385   0.342 -0.0159  0.0797  0.1236
 7352W        W26886  13.314   3.986   2.321 -0.0174 -0.0278  0.0512
 7353W        W26887  18.414  10.154   4.319  0.0991  0.1355  0.0251
 7354W        W26888   2.894   1.368   2.105  0.3841  0.2660  0.0322
 7355W        W26889  15.510  15.133   1.239  0.7261  0.1937 -0.1452
 7356W        W26890  17.587  12.894   0.135  0.1784  0.2847  0.0482
 7357W        W26891   0.730   7.984  13.527 -0.1300 -0.0227 -0.1191
 7358W        W26892  19.467  17.710   0.495 -0.1239 -0.0537 -0.0722
 7359W        W26893  11.100   1.508  11.511 -0.0864  0.4878 -0.1375
 7360W        W26894   6.866  12.178  10.619  0.1080  0.0987 -0.0483
 7361W        W26895   7.944   4.308   1.715 -0.2116  0.2014 -0.0915
 7362W        W26896  15.636  14.684   4.149  0.0096 -0.4418 -0.2018
 7363W        W26897  18.507  18.121  12.302 -0.1839  0.1649  0.0301
 7364W        W26898  12.946   3.623  10.795 -0.1184 -0.1962  0.4330
 7365W        W26899   7.794   6.809   2.402 -0.0526  0.0549 -0.2886
 7366W        W26900  11.568   0.561   1.725  0.1714 -0.2297 -0.1977
 7367W        W26901  18.781   8.907   2.929 -0.1188  0.4157 -0.2990
 7368W        W26902  13.796   3.766   2.544  0.3601  0.0578 -0.3020
 7369W        W26903  14.081   7.979  12.156 -0.2363  0.2772  0.1395
 7370W        W26904  13.954   8.661   9.663  0.0802  0.2736  0.1772
 7371W        W26905   9.143  11.438   3.171  0.0867  0.5000 -0.3274
 7372W        W26906  11.404  12.126  13.028 -0.1272  0.1740 -0.2596
 7373W        W26907   9.403  12.743   2.367  0.1292 -0.0240 -0.3500
 7374W        W26908  14.363  19.123  14.221 -0.1666 -0.1903 -0.1197
 7375W        W26909   1.769  17.532   1.274  0.3121  0.0002 -0.2561
 7376W        W26910  16.800  14.124   2.802  0.0539  0.0441 -0.4809
 7377W        W26911   0.109  10.229  13.647  0.0488 -0.1976  0.0113
 7378W        W26912   7.638   0.097   9.928  0.0331 -0.0363 -0.2072
 7379W        W26913   6.549  15.919  11.678 -0.1244 -0.2307 -0.2605
 7380W        W26914  16.229  18.759   1.154  0.0124 -0.0748 -0.1761
 7381W        W26915   0.580   8.550  10.689 -0.1701 -0.1443 -0.3282
 7382W        W26916  11.841  15.696   1.196  0.0401 -0.0819  0.1740
 7383W        W26917  10.284  12.041  11.071 -0.2169  0.0591  0.0561
 7384W        W26918  14.725   3.844  13.075  0.2814 -0.2031 -0.1024
 7385W        W26919  18.460  13.533  13.524 -0.2257  0.2694  0.2304
 7386W        W26920  15.214   2.997  13.771  0.0165 -0.5246 -0.0537
 7387W        W26921   9.238   6.171   4.656  0.0053  0.2114  0.2296
 7388W        W26922   6.514  10.273  14.129 -0.0858  0.1314  0.0320
 7389W        W26923   1.075   9.556  14.228  0.0690 -0.4244  0.0761
 7390W        W26924  16.555  12.087  14.374 -0.1143  0.0182  0.2228
 7391W        W26925   5.188  15.167   1.987 -0.2623  0.1499 -0.0318
 7392W        W26926  18.212   7.477  13.983 -0.0117 -0.0624 -0.2183
 7393W        W26927   1.247   2.248   3.592 -0.2015  0.2833  0.2475
 7394W        W26928   8.446   9.705  12.890  0.1362  0.1822  0.1784
 7395W        W26929   6.491   4.752   0.631 -0.1288  0.0530  0.4877
 7396W        W26930   0.861   3.858  11.713 -0.0371 -0.3356 -0.1009
 7397W        W26931  16.699  17.723  12.629  0.0953  0.1645  0.2188
 7398W        W26932  12.812  10.728   2.268 -0.0131 -0.2190 -0.3451
 7399W        W26933   8.105   2.593   3.597 -0.2307  0.0688  0.4581
 7400W        W26934  16.812  19.450  12.887  0.0081  0.0813 -0.1321
 7401W        W26935  17.867  11.903  10.218  0.3858  0.0214 -0.0351
 7402W        W26936  13.815  15.851  14.164  0.4704 -0.1887 -0.4956
 7403W        W26937   5.907  15.621  10.659  0.0928  0.1135  0.0924
 7404W        W26938   4.112  15.847   4.132  0.4023  0.0854  0.1926
 7405W        W26939   4.094   7.162   0.274  0.1348 -0.0122 -0.1337
 7406W        W26940   7.088   9.827  12.866 -0.3469 -0.4319  0.2848
 7407W        W26941   0.882  16.167   0.914  0.1812 -0.2294  0.0437
 7408W        W26942  15.840  11.797  10.899  0.0871 -0.1424 -0.0807
 7409W        W26943   5.620   1.037   2.063 -0.2374  0.0548  0.2202
 7410W        W26944   7.468   1.004  13.798  0.0304 -0.1954 -0.0164
 7411W        W26945   0.910  15.601  11.879  0.1685  0.1709  0.0305
 7412W        W26946  13.250   3.121  10.979 -0.2035  0.2045  0.1194
 7413W        W26947  14.583  14.922   3.527  0.1433 -0.0207 -0.2364
 7414W        W26948  10.543   9.631   1.130 -0.0612 -0.0769 -0.1147
 7415W        W26949  18.054   8.251   1.296  0.2203 -0.2718 -0.1573
 7416W        W26950  12.311  10.617   3.939 -0.5299 -0.0330  0.3326
 7417W        W26951  14.368   2.264  10.255 -0.0671 -0.1081  0.0047
 7418W        W26952   7.699  17.084   2.537 -0.2995 -0.2567  0.0476
 7419W        W26953  17.841   7.402   0.442 -0.0188  0.0408  0.0241
 7420W        W26954   8.486  10.190  11.555  0.1110 -0.0457  0.0057
 7421W        W26955   9.135  12.074  11.866  0.3351  0.1764  0.0399
 7422W        W26956   1.909  14.644  13.846 -0.2092  0.1117 -0.0553
 7423W        W26957  14.169   5.488  12.033 -0.2065 -0.1569  0.0599
 7424W        W26958   1.185   6.096   3.871 -0.3623 -0.2528 -0.0879
 7425W        W26959  18.016  11.194   0.785  0.4358 -0.3779  0.3050
 7426W        W26960   8.730  10.868   1.606 -0.0327 -0.0081  0.0353
 7427W        W26961  16.328   0.840  12.314 -0.1859 -0.0075 -0.1940
 7428W        W26962  18.750  13.830  11.830  0.0607 -0.1554 -0.0417
 7429W        W26963   4.034   8.255  13.980  0.3245 -0.1925 -0.2037
 7430W        W26964  15.884  15.998   1.410  0.2775 -0.2368 -0.2500
 7431W        W26965  12.578   3.758   4.630  0.0724  0.1156  0.1556
 7432W        W26966  12.667   8.625  10.161  0.2233  0.3288 -0.0990
 7433W        W26967   1.949  13.226   3.688  0.1922  0.0986  0.3243
 7434W        W26968   0.795  13.309   1.960 -0.0131 -0.3529 -0.0290
 7435W        W26969   3.262   4.428   2.261  0.0430 -0.4252  0.0448
 7436W        W26970  12.982   5.588   1.161 -0.1743  0.0754 -0.2602
 7437W        W26971  13.146  15.833   1.073  0.2437 -0.3347 -0.1019
 7438W        W26972  17.785  15.140  13.750 -0.2513  0.0513  0.1160
 7439W        W26973  18.592  19.329  11.636 -0.2171 -0.2900  0.2689
 7440W        W26974   2.915   8.041   1.910 -0.0887 -0.0550 -0.1135
 7441W        W26975   4.227   2.958   2.577 -0.0157 -0.1246 -0.1233
 7442W        W26976   4.967  19.342  13.890 -0.3868  0.0430  0.0529
 7443W        W26977  10.022   3.716   3.963 -0.1499 -0.0457 -0.1375
 7444W        W26978   6.561  14.698  10.451 -0.0450  0.0101 -0.1877
 7445W        W26979   5.528   2.439   0.299 -0.2459 -0.0858  0.0594
 7446W        W26980   3.713  16.346   2.381  0.1148  0.0362 -0.1661
 7447W        W26981  10.207   1.242  13.796  0.1227  0.1793 -0.1636
 7448W        W26982  13.643   1.208   1.557  0.0056  0.0316  0.2751
 7449W        W26983   2.545  10.360   3.763  0.1406 -0.2893 -0.2788
 7450W        W26984   9.148  16.165   1.558  0.1192 -0.2022 -0.3370
 7451W        W26985   8.947   8.055   2.430 -0.1600  0.0963  0.0498
 7452W        W26986  14.550   1.440   1.270  0.1167  0.0866  0.2108
 7453W        W26987  13.508  19.217   1.116 -0.1814  0.0805 -0.0460
 7454W        W26988   0.651  14.005  10.925  0.0488 -0.3899  0.1124
 7455W        W26989   6.929  10.698   0.853  0.1193 -0.0480  0.2502
 7456W        W26990   2.672  14.663   1.107  0.0043 -0.0450 -0.1440
 7457W        W26991   9.745   4.267   2.997  0.4088  0.0730 -0.1870
 7458W        W26992   7.259  17.057  11.745 -0.2259 -0.0545  0.1396
 7459W        W26993   7.067   3.651   3.795 -0.0912  0.1529 -0.2234
 7460W        W26994  18.522   9.821   0.745 -0.3027 -0.1053 -0.2203
 7461W        W26995   4.316   9.255   2.217  0.1070 -0.1136  0.0593
 7462W        W26996  12.935  18.482   0.018 -0.0763 -0.0076  0.3192
 7463W        W26997  16.954  14.254   3.957 -0.1720 -0.0383 -0.0476
 7464W        W26998   8.280  14.065   3.549 -0.1484  0.1725  0.1426
 7465W        W26999   1.660   1.106   4.705  0.1977  0.1357 -0.0492
 7466W        W27000  13.855   4.952  14.373 -0.0401  0.1035  0.2559
 7467W        W27001   4.228   7.278   1.977  0.0331 -0.2770 -0.2746
 7468W        W27002  18.636   0.601   2.066  0.1748  0.0453  0.1435
 7469W        W27003  11.091   9.518  14.124  0.3055  0.1895 -0.1873
 7470W        W27004  10.090   2.414   0.965  0.3631  0.1990  0.1591
 7471W        W27005   2.908  17.989   0.680 -0.0207  0.1027 -0.1167
 7472W        W27006  11.731  18.141  14.127  0.0095 -0.1972  0.2649
 7473W        W27007   2.762  18.821  11.199 -0.1775  0.2613  0.0230
 7474W        W27008  17.797   9.421  14.084 -0.2853  0.1568 -0.2468
 7475W        W27009   8.782   5.015  11.767 -0.1531  0.3524 -0.0503
 7476W        W27010   8.883  11.886  12.290  0.1475  0.0957  0.1879
 7477W        W27011  11.489   0.443  14.332  0.2363 -0.3058  0.0534
 7478W        W27012  19.273  13.863  13.636  0.0636  0.0365 -0.1654
 7479W        W27013   8.831  16.752   0.095  0.1102  0.1615  0.3504
 7480W        W27014  14.317  11.324  10.777 -0.1277  0.0303  0.4093
 7481W        W27015   3.873   4.173   1.744  0.0977  0.1441 -0.2439
 7482W        W27016   5.788  11.911  12.705 -0.1071 -0.2311 -0.1656
 7483W        W27017   0.197   3.974   1.740  0.3584 -0.1795 -0.0878
 7484W        W27018   8.048   5.392  13.539 -0.2298  0.2130 -0.0599
 7485W        W27019  15.389   1.072   3.913  0.1791 -0.5637  0.1065
 7486W        W27020  15.861   7.677   0.247  0.2246  0.0170 -0.2322
 7487W        W27021   2.930   9.523   2.805 -0.0641  0.0509  0.2854
 7488W        W27022   4.545   0.949   0.932 -0.0403 -0.0874  0.0805
 7489W        W27023  15.573   8.103  13.029 -0.1020  0.2103 -0.2377
 7490W        W27024   7.976   1.902   0.720 -0.2327  0.0840  0.0056
 7491W        W27025   5.025  18.605   2.962 -0.4043 -0.0348  0.2343
 7492W        W27026   7.550  13.999  13.063  0.0068  0.0072  0.0765
 7493W        W27027  15.176  15.904   0.720  0.1209  0.0105  0.1287
 7494W        W27028  13.464   8.660  10.817  0.3174  0.1141 -0.2360
 7495W        W27029   3.766  13.492   0.717 -0.2162  0.0078 -0.1917
 7496W        W27030   2.715   7.829   2.674  0.3507 -0.0213  0.1438
 7497W        W27031   4.314   4.711  10.804 -0.0478 -0.0044  0.1472
 7498W        W27032  18.471   4.345  13.200 -0.1894 -0.2908 -0.0280
 7499W        W27033  13.547  16.004  12.833  0.0026 -0.4025  0.0621
 7500W        W27034  18.482  15.568   1.797 -0.0565 -0.0112  0.0275
 7501W        W27035  19.306  14.677  11.639 -0.2118 -0.4232  0.0893
 7502W        W27036   4.581  12.505  14.342 -0.0682  0.0252  0.1124
 7503W        W27037  12.809   4.996  13.312  0.1505  0.0562 -0.0678
 7504W        W27038   7.291   5.128  13.179  0.3228 -0.0047 -0.3646
 7505W        W27039   4.076  15.427   0.547 -0.0280  0.0351  0.0331
 7506W        W27040  15.709  11.189  11.347 -0.0001 -0.0342  0.0681
 7507W        W27041  13.488  19.280   0.222  0.4545 -0.2147 -0.0769
 7508W        W27042   3.606   4.760  11.846  0.0109 -0.2291 -0.0858
 7509W        W27043  14.063  14.009   1.457 -0.0041  0.1477  0.2007
 7510W        W27044   2.116   6.772   2.704 -0.0462  0.1721 -0.0754
 7511W        W27045   8.822  12.504   0.146 -0.1924  0.1588 -0.1293
 7512W        W27046   3.954  17.771  10.903 -0.0158  0.1079  0.0089
 7513W        W27047  12.051  15.587  12.868 -0.0286 -0.0619 -0.2519
 7514W        W27048   7.233  13.516   4.299  0.0254  0.1148  0.1650
 7515W        W27049  10.240   4.662  13.168 -0.1891  0.0168  0.4369
 7516W        W27050  10.501   6.549   0.358  0.0614 -0.2551  0.1780
 7517W        W27051  17.237  10.095  13.949  0.0597 -0.0200 -0.2630
 7518W        W27052   9.617  19.026   4.949 -0.1221  0.2830  0.0928
 7519W        W27053  16.051   3.692   1.655  0.2395  0.1253  0.1475
 7520W        W27054  15.965  18.695  11.197 -0.0322  0.1117  0.1606
 7521W        W27055   9.679   9.827   0.617  0.0717  0.0036 -0.1405
 7522W        W27056  15.639  11.864   1.522  0.3080  0.0190 -0.3865
 7523W        W27057  16.168   7.006  11.980  0.1492 -0.1413  0.3503
 7524W        W27058   4.562  11.030  12.847  0.0736  0.1432  0.0416
 7525W        W27059  12.387   6.236  11.482 -0.1894 -0.0231 -0.1952
 7526W        W27060  12.656  11.455  11.595 -0.0020 -0.0260 -0.0444
 7527W        W27061   7.307   0.764  13.180 -0.0194 -0.2720  0.0931
 7528W        W27062   3.341   3.367  13.153  0.1482  0.0587 -0.0688
 7529W        W27063  18.848  16.083  12.238 -0.4501  0.0777 -0.2336
 7530W        W27064   6.684   9.609  13.018 -0.1605  0.1369  0.0587
 7531W        W27065  10.711  17.009  14.295  0.1723  0.1205  0.3783
 7532W        W27066   6.267   1.949   1.604 -0.1062 -0.1694  0.3459
 7533W        W27067  17.651  17.300  13.602 -0.0785 -0.0988  0.1501
 7534W        W27068  19.457  12.941   3.944  0.1415  0.0590 -0.2023
 7535W        W27069   6.382   2.701  13.110  0.0532 -0.1554  0.1507
 7536W        W27070  12.975  10.995   3.639 -0.0227  0.0004 -0.0126
 7537W        W27071   7.881  18.784   1.217  0.0941 -0.0508 -0.2314
 7538W        W27072  15.652   6.237   1.822  0.0628  0.1118  0.0125
 7539W        W27073  12.193   7.238   3.172 -0.0976  0.1787  0.1064
 7540W        W27074  16.781   0.671  12.126  0.3841  0.2359 -0.2849
 7541W        W27075  13.702   6.538   3.050 -0.0524  0.0043 -0.0061
 7542W        W27076   1.305   3.529   9.368 -0.0596  0.0053 -0.1889
 7543W        W27077   1.372  18.076   1.734  0.2306 -0.3319 -0.1636
 7544W        W27078  15.855   1.586  11.667 -0.1349  0.3172  0.1574
 7545W        W27079  15.535   9.931   2.057 -0.2076  0.2866 -0.1243
 7546W        W27080   4.521   2.448   3.788  0.1032  0.0242 -0.3005
 7547W        W27081   4.180  17.939  12.376  0.3464  0.1268  0.2556
 7548W        W27082  14.304  13.781  12.069  0.1670  0.0461  0.3812
 7549W        W27083   1.258   6.995  12.861  0.1556 -0.1264  0.3362
 7550W        W27084  18.375  16.700  11.653 -0.1784 -0.2206  0.2012
 7551W        W27085  13.123  11.518   1.909  0.0214 -0.2221  0.1102
 7552W        W27086  14.211  14.211   2.442 -0.0421  0.2611  0.1382
 7553W        W27087   5.892   9.057   3.921  0.0075  0.0173 -0.2565
 7554W        W27088   4.153   4.681   0.848  0.0044  0.3072  0.0450
 7555W        W27089   7.394   2.895   1.577  0.0775  0.1985  0.0963
 7556W        W27090  14.475   6.542   0.243 -0.1821  0.0143  0.5126
 7557W        W27091   2.547   3.078  13.593  0.2349 -0.0322 -0.1308
 7558W        W27092   3.000   6.478  12.127  0.1369 -0.1084  0.1492
 7559W        W27093   9.084   1.473   1.401 -0.0111 -0.0450 -0.0856
 7560W        W27094  10.896  14.674  11.600  0.1981  0.3740 -0.0886
 7561W        W27095   8.698   7.032  13.288  0.2275  0.0673 -0.0116
 7562W        W27096   2.902   8.716   0.514 -0.0658 -0.0924  0.3179
 7563W        W27097  19.296  10.944  13.935  0.2533  0.1074 -0.0255
 7564W        W27098  16.672  18.241  13.150  0.2295 -0.0872  0.0105
 7565W        W27099  18.401  14.307  10.602  0.1109  0.1905 -0.0460
 7566W        W27100  18.428   2.260  10.320 -0.2346  0.0328 -0.1065
 7567W        W27101   2.870   1.777   3.378  0.0247  0.0569  0.0042
 7568W        W27102   6.045   4.289  10.692  0.3670 -0.0831  0.2682
 7569W        W27103   1.921   5.938  13.268  0.1753  0.2010 -0.1583
 7570W        W27104  12.775  11.060   0.951 -0.1055 -0.0746 -0.0356
 7571W        W27105  10.684   5.704  10.869  0.2225 -0.0086  0.1925
 7572W        W27106   3.556  17.985   2.465 -0.1280  0.0642  0.2575
 7573W        W27107  14.504   3.424  11.618 -0.1201  0.3491 -0.0904
 7574W        W27108  10.804   2.711  14.100 -0.2485 -0.3198 -0.1162
 7575W        W27109   9.363   4.194  13.611 -0.1602 -0.0446  0.1862
 7576W        W27110  18.159  18.577   9.960  0.0483  0.0186  0.1218
 7577W        W27111   3.728  16.510   2.873 -0.3793 -0.3528  0.2306
 7578W        W27112   1.102  13.244   1.055 -0.0753  0.0983 -0.1523
 7579W        W27113   6.395   4.437  13.323  0.0001 -0.0122  0.2093
 7580W        W27114   9.027   0.048  13.888 -0.1296  0.1924 -0.1332
 7581W        W27115   5.048  16.029  11.380  0.4831  0.0852  0.0471
 7582W        W27116  19.258   1.427   1.572  0.0713 -0.1573  0.0901
 7583W        W27117  15.558  10.165   2.548 -0.1159  0.1163 -0.0905
 7584W        W27118   3.186  11.447   2.013 -0.3881 -0.2765 -0.0999
 7585W        W27119   2.090   4.100   1.340 -0.1121  0.0899  0.4072
 7586W        W27120  16.699   5.020  13.716  0.1512 -0.1567  0.3674
 7587W        W27121  12.228   6.596  11.173  0.2655 -0.0658  0.3724
 7588W        W27122   7.202   6.007  14.137 -0.0033  0.2006  0.3791
 7589W        W27123  10.980   1.909  13.567 -0.1685 -0.0542 -0.0159
 7590W        W27124   3.373   5.554  11.027  0.0061  0.0692 -0.2315
 7591W        W27125   0.730   2.189   0.910 -0.2636  0.0800  0.0693
 7592W        W27126   7.962   6.850  12.699  0.0098  0.0348  0.0904
 7593W        W27127  13.294  11.738  11.718  0.1826  0.0523 -0.2487
 7594W        W27128   0.609  17.963   4.777 -0.0652 -0.1631  0.0818
 7595W        W27129  17.627   4.242  12.707  0.2893  0.0714 -0.0473
 7596W        W27130  11.039  18.292   1.679  0.0130  0.3766  0.2031
 7597W        W27131  18.976  17.115   2.027 -0.0258 -0.0992 -0.2365
 7598W        W27132  12.251   3.247   0.954 -0.0279  0.1672 -0.0748
 7599W        W27133  19.123   3.979   1.315  0.2782 -0.1150  0.2872
 7600W        W27134   6.493   1.855   3.872  0.2970 -0.0333 -0.1482
 7601W        W27135   3.940   7.711  14.107  0.3258 -0.0067 -0.1717
 7602W        W27136   6.930  15.365   1.478 -0.3048  0.2281  0.3375
 7603W        W27137   5.614  14.688   1.304 -0.1279  0.0920  0.0225
 7604W        W27138  19.492  12.045   0.801  0.0709  0.2721 -0.1027
 7605W        W27139   0.773  10.961   4.602 -0.2466 -0.1859  0.1949
 7606W        W27140   1.051  10.181  11.029  0.2472  0.1281  0.2673
 7607W        W27141   4.002   3.469  14.241 -0.1555 -0.3441  0.1712
 7608W        W27142   0.728  19.425   3.500  0.1237 -0.1505  0.0228
 7609W        W27143   2.152   9.748  11.577 -0.0993 -0.0119  0.1155
 7610W        W27144  15.441   3.092  12.302  0.0532 -0.1163 -0.1310
 7611W        W27145   2.592   9.514   1.636 -0.0569 -0.0053 -0.1510
 7612W        W27146  15.208   0.557  12.970  0.0691  0.1150 -0.1815
 7613W        W27147  16.622  11.526   0.605  0.1347 -0.0845  0.2500
 7614W        W27148   1.809   8.723  13.057  0.1083  0.0859 -0.1857
 7615W        W27149   6.135  10.111   1.577 -0.0041 -0.0934  0.1731
 7616W        W27150  18.510  17.828   0.184 -0.0600 -0.1261 -0.0328
 7617W        W27151  16.578  15.237  13.783 -0.0297 -0.2144 -0.0602
 7618W        W27152  14.736  15.406  11.273 -0.2269 -0.0780 -0.1837
 7619W        W27153  13.515   9.503  11.366 -0.0100 -0.0978  0.1294
 7620W        W27154  16.242   0.439   0.463  0.3212 -0.1793 -0.2169
 7621W        W27155   6.946  16.972  12.331  0.1703  0.1283 -0.0374
 7622W        W27156   9.789  14.071   1.280  0.1562 -0.0971 -0.0456
 7623W        W27157   4.605   5.533  11.354 -0.1295 -0.1262  0.2463
 7624W        W27158  14.813  10.390   1.058 -0.1443 -0.1657  0.0037
 7625W        W27159   6.666  17.141   1.321 -0.4167  0.0934  0.1532
 7626W        W27160  10.281  12.875   3.768 -0.1627  0.1434  0.0211
 7627W        W27161  18.347  11.528  12.977 -0.0812  0.0223 -0.0666
 7628W        W27162  16.981  18.973  12.914  0.1706 -0.4526 -0.0540
 7629W        W27163   5.984   6.589  12.867  0.1014 -0.1950 -0.0668
 7630W        W27164   6.548  17.643   1.450 -0.4394 -0.1230  0.0555
 7631W        W27165  16.568   3.849  10.852 -0.0554 -0.2723 -0.4351
 7632W        W27166   3.115  10.001   3.089 -0.0913  0.1540  0.0083
 7633W        W27167   1.040  16.031  11.027 -0.1031 -0.1917  0.0901
 7634W        W27168   6.704  10.041  13.720  0.1888 -0.0687  0.0711
 7635W        W27169   1.273  13.747   0.292  0.1784  0.0458  0.0425
 7636W        W27170   0.114   6.144   1.598  0.0577 -0.0744  0.1787
 7637W        W27171   7.232   5.987   0.292  0.2319  0.2675 -0.0668
 7638W        W27172  18.570   5.221  10.995  0.1490 -0.0802 -0.2877
 7639W        W27173   6.181   6.838  13.277  0.0140  0.0839 -0.0475
 7640W        W27174  11.098  15.540   3.633  0.0496 -0.2443 -0.1062
 7641W        W27175   4.762   5.259  10.409  0.1537  0.0015 -0.1197
 7642W        W27176  18.325  18.296   0.177  0.0035 -0.2505  0.1300
 7643W        W27177  11.254   3.017  13.023  0.1676  0.2279  0.1281
 7644W        W27178  10.493  13.256  13.209  0.1304  0.1760  0.1802
 7645W        W27179  19.030   9.065   1.898 -0.0562  0.0250  0.1543
 7646W        W27180  18.403   3.392   1.473  0.0357 -0.1274 -0.2933
 7647W        W27181  15.760  19.442  11.631  0.1700 -0.3490 -0.1641
 7648W        W27182  17.319   4.162   0.912  0.2870 -0.1107 -0.2472
 7649W        W27183  15.885  12.085  10.053  0.1387  0.2282  0.0820
 7650W        W27184  16.914  18.317   3.338 -0.3730  0.0344  0.0411
 7651W        W27185  10.521   2.199   0.865 -0.1288 -0.1309  0.2358
 7652W        W27186  12.985   8.140  12.721  0.2140  0.1497  0.2931
 7653W        W27187   8.071  13.019   2.289  0.2663 -0.0315  0.1250
 7654W        W27188  14.884  11.746   3.654 -0.0578  0.1019 -0.0601
 7655W        W27189  14.903  13.156   3.486 -0.0643 -0.0036 -0.0267
 7656W        W27190  17.942  17.179   3.168  0.2416 -0.1266 -0.1793
 7657W        W27191  18.982   7.380   0.288  0.1383 -0.0104 -0.2433
 7658W        W27192  17.743  10.258  13.645 -0.0933 -0.0194  0.0304
 7659W        W27193  16.360   8.833  10.434 -0.1854  0.0676  0.0223
 7660W        W27194   6.358  18.680   3.451  0.1759 -0.0914  0.2007
 7661W        W27195  13.294   7.323  10.477  0.2208 -0.0662  0.2012
 7662W        W27196  17.402   9.337   1.594  0.1459 -0.1921  0.0480
 7663W        W27197  12.835  14.485  14.299 -0.0899 -0.1226  0.0622
 7664W        W27198  14.611  11.853  11.600 -0.0763 -0.3565 -0.0625
 7665W        W27199  17.922   1.640   2.209  0.2038 -0.0577  0.1421
 7666W        W27200   1.437   6.213  11.085  0.0814 -0.0679  0.0271
 7667W        W27201   1.077  16.949   3.597 -0.1503 -0.0311  0.2781
 7668W        W27202   5.736   2.073   2.603  0.1685  0.2593 -0.2077
 7669W        W27203  12.230  10.806  10.708  0.3747  0.1931 -0.0681
 7670W        W27204   4.651   7.388  11.036 -0.4044  0.3160  0.3249
 7671W        W27205  15.775  13.275   1.210  0.0597  0.0041 -0.3120
 7672W        W27206  15.596  14.995   0.762  0.0625 -0.0301 -0.2294
 7673W        W27207  18.920  19.051   1.256 -0.4321 -0.2715 -0.0932
 7674W        W27208   6.922  10.669  12.362 -0.1219  0.1504  0.1582
 7675W        W27209   2.324   9.005  13.774  0.1270 -0.1335 -0.0230
 7676W        W27210   5.062   8.606   3.314  0.2815  0.0530  0.0751
 7677W        W27211   9.847   1.965  12.075 -0.1709 -0.1441 -0.1351
 7678W        W27212  12.171  11.116   1.954  0.1120  0.0878  0.1358
 7679W        W27213  11.388  15.070   2.313 -0.0764 -0.1449  0.1117
 7680W        W27214   9.590  18.577   3.362  0.0087  0.1567  0.1452
 7681W        W27215  15.575   3.700   1.914  0.0931 -0.3348  0.4924
 7682W        W27216   6.222  10.990  11.947  0.0835 -0.2323 -0.0506
 7683W        W27217   8.800   9.090   3.818 -0.1773 -0.1193 -0.1102
 7684W        W27218   9.796  15.286   2.144 -0.0899  0.0929 -0.2619
 7685W        W27219  13.858   7.019   2.863  0.0147  0.1453 -0.1734
 7686W        W27220   1.586   4.934  14.297  0.0847 -0.2708  0.0636
 7687W        W27221   9.228   6.297  12.978  0.4656  0.0262  0.0304
 7688W        W27222  16.094  14.862  10.356  0.0151  0.3554  0.2954
 7689W        W27223  15.799  14.383  11.255 -0.0284  0.1186 -0.1606
 7690W        W27224   6.252  12.773   1.997 -0.0427  0.0432  0.1393
 7691W        W27225  13.311   0.903   1.744 -0.0971  0.0592 -0.0251
 7692W        W27226   8.467  14.418   3.212 -0.1325  0.3761  0.1345
 7693W        W27227  18.496  11.583  11.636  0.1551 -0.1760 -0.0101
 7694W        W27228  15.544  17.991  10.699 -0.1178 -0.1792  0.1346
 7695W        W27229  14.433   0.028   3.953  0.1812 -0.1394  0.0368
 7696W        W27230  10.033   8.044   1.892 -0.2881  0.1027  0.2234
 7697W        W27231  12.396  10.232   0.627 -0.0348 -0.0853  0.0242
 7698W        W27232   6.965  10.133   2.144 -0.1143  0.3708  0.1720
 7699W        W27233   1.501  17.120   2.771 -0.1716 -0.1729 -0.3701
 7700W        W27234  11.375   0.269   1.297 -0.0516 -0.0182 -0.2118
 7701W        W27235  16.919   1.721   1.906 -0.0518 -0.0095  0.3128
 7702W        W27236  14.795  17.235  11.090 -0.0876  0.1132  0.2245
 7703W        W27237   4.959   3.186  10.426 -0.2646 -0.2234  0.2029
 7704W        W27238   0.631  14.515   1.088  0.0697  0.0977 -0.1335
 7705W        W27239  11.151   7.791   0.720  0.0921 -0.2303  0.3494
 7706W        W27240  12.012  19.417   3.043  0.1411 -0.2060 -0.0450
 7707W        W27241   7.045  12.175  14.196  0.1516 -0.1292  0.0806
 7708W        W27242   6.937  17.126  11.359  0.1612  0.0164 -0.0999
 7709W        W27243   0.769   7.416   2.263 -0.0848 -0.1094  0.1835
 7710W        W27244   9.133  19.034   0.767  0.2346 -0.0919  0.0878
 7711W        W27245  13.078  16.089  10.231 -0.2535  0.1639  0.0082
 7712W        W27246   0.942  13.331   0.093  0.1715 -0.1938  0.2651
 7713W        W27247   2.711   1.383   3.651 -0.1924  0.1752 -0.2312
 7714W        W27248   0.824   4.524  12.373  0.0578 -0.1059  0.3508
 7715W        W27249   2.556  16.081   1.782  0.1733  0.0412  0.0809
 7716W        W27250   7.620   4.841  12.000 -0.1034  0.2955  0.1278
 7717W        W27251  10.272   3.035  11.011  0.2079 -0.0282 -0.0408
 7718W        W27252   6.983   9.333  12.729 -0.3095  0.2716 -0.3214
 7719W        W27253  10.478  15.458  13.848  0.1836  0.0368  0.0580
 7720W        W27254   8.356   7.687   0.541 -0.1197 -0.1762 -0.0842
 7721W        W27255  16.935   8.124  14.316 -0.2768  0.1971 -0.1665
 7722W        W27256   6.894   4.267  13.337  0.1150  0.1875  0.2672
 7723W        W27257   1.456   7.028  13.338 -0.0528 -0.0606 -0.0966
 7724W        W27258   4.313   8.351  12.666  0.0470  0.0509 -0.1603
 7725W        W27259  17.235  11.782  10.811 -0.1631 -0.0883  0.0857
 7726W        W27260   5.756   5.006  11.276 -0.0681 -0.4838  0.0670
 7727W        W27261   7.396  18.893   3.078  0.2161 -0.2122  0.1387
 7728W        W27262   6.319  16.278   1.230  0.0843  0.0296 -0.2757
 7729W        W27263   1.207   7.316   0.500 -0.1393  0.1850  0.1859
 7730W        W27264   9.439   3.817   3.045 -0.2188  0.0158 -0.2869
 7731W        W27265  13.393   8.617  11.675 -0.0321 -0.0647  0.1286
 7732W        W27266   6.416  14.380  10.814 -0.0220  0.0734 -0.0774
 7733W        W27267   0.885   5.340   3.515  0.0814 -0.1230 -0.2353
 7734W        W27268  14.497   6.089   3.464  0.1160  0.1886  0.0453
 7735W        W27269   6.578  14.208  12.659 -0.1434  0.2005  0.0408
 7736W        W27270   0.426  18.585  12.078  0.1121  0.0043  0.3523
 7737W        W27271   7.072  16.436  10.594 -0.0479  0.0068  0.2011
 7738W        W27272  12.405  18.511  12.542  0.0170 -0.0288  0.2936
 7739W        W27273  16.777   3.333  11.636 -0.2015  0.2999 -0.0534
 7740W        W27274   3.434  15.456  13.996  0.2133  0.0164 -0.1851
 7741W        W27275  12.270  12.649  14.020 -0.1980  0.1504  0.1582
 7742W        W27276  17.968   5.396  10.216  0.0450  0.1090 -0.1667
 7743W        W27277   1.047  19.217  12.995  0.1298  0.2604 -0.1077
 7744W        W27278   0.821   7.853   0.815 -0.0023 -0.0749  0.1951
 7745W        W27279   6.977  19.109  11.327  0.0019  0.1916 -0.0639
 7746W        W27280  10.968   6.137  10.585 -0.0817  0.1463 -0.2885
 7747W        W27281   8.122   1.821  12.347 -0.0700  0.3408 -0.0514
 7748W        W27282   3.243  18.682  11.152  0.0554 -0.3047 -0.1698
 7749W        W27283   3.113   9.423   1.899 -0.0732  0.0775 -0.1529
 7750W        W27284   5.251   7.662  10.692  0.0066  0.2893  0.0465
 7751W        W27285   7.063   2.871  11.733  0.1670 -0.1103 -0.0261
 7752W        W27286   3.709   0.259  11.889 -0.0865 -0.0294 -0.2497
 7753W        W27287   0.672  15.792   1.420  0.2934  0.0988 -0.4218
 7754W        W27288   8.931  10.999   2.941 -0.2006 -0.2557 -0.0633
 7755W        W27289  16.412   2.918  10.920  0.0280  0.0796 -0.1034
 7756W        W27290   4.531  18.667  10.043 -0.0664  0.1950 -0.0926
 7757W        W27291   9.841   2.600  11.755 -0.1010  0.0538  0.3315
 7758W        W27292   9.653  13.280  10.980 -0.3092  0.1758 -0.4015
 7759W        W27293  13.370  12.794  10.777 -0.2177  0.2770  0.1458
 7760W        W27294   4.445  10.081   0.560  0.1161  0.0455  0.0738
 7761W        W27295  16.697   9.071  12.707 -0.1952 -0.0964  0.0699
 7762W        W27296  19.068   0.062   2.076 -0.1195 -0.0058  0.2748
 7763W        W27297  17.053  11.902  13.942  0.2757  0.4692  0.2067
 7764W        W27298  14.089  17.401  12.543  0.2355 -0.4905  0.0373
 7765W        W27299   3.010   7.435   2.640  0.1299 -0.2082  0.1354
 7766W        W27300   2.120  10.352   0.554  0.2938  0.0728  0.4611
 7767W        W27301   2.650   0.277   3.499 -0.1678  0.0926 -0.1723
 7768W        W27302   8.119  11.141   2.291  0.2144 -0.0198 -0.4435
 7769W        W27303   8.567   9.407  13.849 -0.0664  0.6315 -0.0166
 7770W        W27304  19.072   5.903  13.108 -0.2552  0.0780  0.0116
 7771W        W27305  14.614   9.769   1.751 -0.3233  0.1683 -0.1159
 7772W        W27306   5.688  12.424   1.420 -0.1097  0.1997  0.3380
 7773W        W27307  11.388  14.080  12.005  0.2282 -0.1627  0.1790
 7774W        W27308  11.116   4.114   0.669 -0.0541  0.2801  0.1459
 7775W        W27309  10.055  13.986  10.544 -0.1308  0.2196  0.1783
 7776W        W27310   2.891  13.438  11.365 -0.3270 -0.1949  0.1483
 7777W        W27311   5.358   6.091  14.115 -0.1371  0.0958 -0.3060
 7778W        W27312  18.031   4.638  10.926  0.0244  0.1778 -0.0861
 7779W        W27313   5.515   4.007  11.980 -0.1342  0.2126  0.1094
 7780W        W27314  16.428  15.365  12.025 -0.0409  0.2205  0.0868
 7781W        W27315   1.802   2.826   0.781 -0.0766 -0.0870  0.0569
 7782W        W27316   4.110   3.475  11.781  0.0617 -0.0378 -0.0250
 7783W        W27317  18.859  18.613  10.596 -0.0619  0.1168  0.4040
 7784W        W27318   8.549  18.521   3.450 -0.4738  0.0809 -0.1315
 7785W        W27319   2.279  18.131  12.858  0.2710 -0.0598 -0.1407
 7786W        W27320   4.552   9.885   2.961 -0.1341 -0.1419 -0.1036
 7787W        W27321  18.865   8.103   1.167  0.1197 -0.1145  0.0147
 7788W        W27322   1.185  18.739   2.432 -0.0944  0.0629 -0.3214
 7789W        W27323  15.010   0.221   1.015  0.1651 -0.0491 -0.3726
 7790W        W27324  14.393   2.996   3.367 -0.2048  0.2365  0.2153
 7791W        W27325  17.904  19.362   3.656  0.1895  0.2466  0.3049
 7792W        W27326  10.285  14.367  13.393  0.0633  0.2680 -0.0929
 7793W        W27327  11.332  14.818   3.748  0.1333 -0.0800 -0.0801
 7794W        W27328  15.293   1.547   2.429 -0.1561  0.0945 -0.3239
 7795W        W27329   4.756   8.176  12.915 -0.1113  0.1994 -0.4681
 7796W        W27330  11.193  13.484  12.642  0.0891 -0.0795 -0.0816
 7797W        W27331  11.910   8.648  12.702  0.0118 -0.2777  0.1438
 7798W        W27332   5.435  16.005   0.919 -0.3663 -0.1097 -0.1188
 7799W        W27333   2.672  14.674   2.146 -0.0694 -0.1992 -0.3619
 7800W        W27334  17.182   6.749   0.059 -0.2346 -0.1557  0.2680
 7801W        W27335   2.742  19.006   1.000 -0.2644  0.0073 -0.1529
 7802W        W27336   9.878   7.369   2.848  0.2877  0.1695  0.3437
 7803W        W27337   1.848  18.396   0.768 -0.2158  0.0395 -0.2269
 7804W        W27338   7.869  19.447  10.870  0.0425 -0.0719 -0.3939
 7805W        W27339   2.664   9.408  11.920  0.3868 -0.1471 -0.0705
 7806W        W27340  11.515  11.854   2.294  0.1616  0.1071  0.1002
 7807W        W27341   7.831  13.453   1.334 -0.0675  0.0703 -0.0377
 7808W        W27342  16.374   7.652  10.470 -0.1568  0.2663 -0.1991
 7809W        W27343  14.185   3.850   1.703 -0.1707  0.0853  0.2173
 7810W        W27344   8.065  14.805  12.233  0.2406 -0.2061 -0.0270
 7811W        W27345   9.992  16.998  12.624 -0.1450  0.0708  0.1114
 7812W        W27346  16.315   0.384  12.135 -0.0156 -0.2415 -0.0279
 7813W        W27347   2.340   5.995  12.942  0.1061 -0.0522 -0.2568
 7814W        W27348  15.725   5.440  12.852  0.1557 -0.0468  0.1627
 7815W        W27349   1.673   9.016   3.018  0.0740  0.0354 -0.1007
 7816W        W27350   6.585   3.315   4.472  0.3872  0.1543 -0.0468
 7817W        W27351   8.060  10.463  13.349 -0.2803 -0.1060 -0.1029
 7818W        W27352  13.528  11.587   0.858  0.1941  0.0453  0.2788
 7819W        W27353   5.682  11.952   2.180 -0.6628  0.3068  0.3595
 7820W        W27354  18.173   5.164   0.165  0.1731 -0.0667 -0.3876
 7821W        W27355   3.807   1.225  13.889 -0.3493 -0.0361 -0.2388
 7822W        W27356   4.579   8.938   2.688  0.2340  0.0378  0.3982
 7823W        W27357   2.057   4.286  10.951 -0.1124  0.2329  0.2551
 7824W        W27358   7.226   8.011   0.786  0.3878  0.2948  0.1489
 7825W        W27359  16.434  13.538   0.265  0.0194 -0.1248 -0.0471
 7826W        W27360   9.686   5.957  11.544  0.1741 -0.0023 -0.4609
 7827W        W27361  18.640   9.920   3.948 -0.2334  0.0775  0.0133
 7828W        W27362  13.543   3.361  10.627 -0.0067  0.2179  0.0590
 7829W        W27363  11.565  19.307   4.101 -0.3249  0.1839  0.1443
 7830W        W27364   0.304   0.755   0.438  0.1810 -0.0910  0.0249
 7831W        W27365  14.433   0.847  12.777  0.2564 -0.3899 -0.0581
 7832W        W27366   5.496   7.296  12.299 -0.0472  0.0180  0.0882
 7833W        W27367  19.162  18.172  12.771 -0.0890  0.0589 -0.1695
 7834W        W27368   6.554   9.764  14.123  0.1386  0.0543 -0.2251
 7835W        W27369   0.865   6.517  10.739  0.1374 -0.1521  0.1333
 7836W        W27370  14.903   0.497  10.181 -0.3422 -0.0532 -0.3032
 7837W        W27371  16.308  16.914   1.681 -0.0462  0.1729 -0.3447
 7838W        W27372  14.851  16.774   1.962  0.1718 -0.0799 -0.0395
 7839W        W27373  16.845  14.961   1.299  0.2049 -0.1093 -0.1538
 7840W        W27374  16.086   0.938   2.810  0.1436 -0.2443 -0.0724
 7841W        W27375   1.248  17.652  13.748 -0.1437  0.1830 -0.4228
 7842W        W27376  15.320  10.464  13.031  0.0864 -0.0274  0.2964
 7843W        W27377  10.204   9.843  11.705 -0.1091 -0.1079 -0.0451
 7844W        W27378   3.728   5.877  11.853 -0.1304  0.0790  0.0344
 7845W        W27379  10.728   4.811  10.114 -0.2306  0.2060  0.0062
 7846W        W27380   9.246  12.288   2.109 -0.0446 -0.0006 -0.1264
 7847W        W27381  19.020   7.663   1.397  0.1794  0.0194  0.1850
 7848W        W27382  18.342   4.032   0.902 -0.0515  0.0308  0.1552
 7849W        W27383   5.590   4.663  11.567  0.0932 -0.0814  0.0121
 7850W        W27384   1.912  14.109   4.977 -0.0341  0.1795 -0.2382
 7851W        W27385   6.930   8.947  11.518  0.2538 -0.3024 -0.0252
 7852W        W27386  16.402  12.293  11.488  0.1897  0.1945 -0.0375
 7853W        W27387   4.071   5.336  13.565  0.1699  0.0747  0.0319
 7854W        W27388   7.497  11.760   4.047 -0.4375  0.0227  0.0697
 7855W        W27389   8.779  19.457  11.138 -0.2457 -0.4336 -0.1004
 7856W        W27390  17.881   0.790  13.669  0.0139 -0.2031  0.0039
 7857W        W27391  16.642   0.113   2.683 -0.2534  0.1991  0.1465
 7858W        W27392   2.346   5.319  11.562  0.3219  0.1018  0.1788
 7859W        W27393  11.393  10.689   0.611 -0.0189 -0.1701  0.1334
 7860W        W27394   1.468   6.670   4.639  0.0069 -0.0911  0.1624
 7861W        W27395   0.617  15.668   9.675 -0.1572  0.1682  0.0588
 7862W        W27396  16.232   7.446   1.708  0.0378  0.2339 -0.0586
 7863W        W27397   4.822  12.637   1.262 -0.2012  0.1137 -0.0504
 7864W        W27398  18.462  12.217  10.415 -0.3219  0.0406 -0.1457
 7865W        W27399   9.750  19.176  14.055  0.0351  0.0422 -0.0761
 7866W        W27400  15.998   6.018  11.993 -0.4182  0.0368  0.0005
 7867W        W27401   2.488  12.830   2.890  0.0944  0.1253 -0.0330
 7868W        W27402  15.679  14.677  10.765  0.2274 -0.1390  0.2462
 7869W        W27403   3.799   2.528   1.652 -0.1459 -0.1150 -0.3088
 7870W        W27404  18.716   8.453   0.753 -0.2427 -0.0083 -0.0735
 7871W        W27405   6.813   3.765  13.198 -0.0407  0.0161 -0.0214
 7872W        W27406  10.785  17.938  14.262  0.2034  0.1119 -0.0473
 7873W        W27407   3.495  13.807   2.776  0.2332 -0.2075  0.0128
 7874W        W27408  16.842   2.432  10.436 -0.2150 -0.1895 -0.1859
 7875W        W27409  14.824  19.454  13.696  0.3048 -0.2652  0.3183
 7876W        W27410   7.106   9.593   2.220 -0.2431 -0.0946  0.0261
 7877W        W27411   3.844  14.767   2.046 -0.1574  0.0305 -0.2102
 7878W        W27412  12.052   2.563  10.652 -0.2931  0.1969  0.0421
 7879W        W27413  18.268  18.324  14.016 -0.2558 -0.2981  0.3588
 7880W        W27414   5.465  15.146  11.272  0.0864 -0.2072 -0.2670
 7881W        W27415  13.048   0.947  10.273  0.3040 -0.3157 -0.2730
 7882W        W27416  16.065  14.765   3.795  0.1756 -0.2692  0.1222
 7883W        W27417  13.720  18.778  13.575  0.2728  0.1500  0.2002
 7884W        W27418  12.638   6.291  10.392 -0.0701 -0.2086 -0.1948
 7885W        W27419   4.608  17.295   1.078 -0.1952 -0.0230  0.2493
 7886W        W27420   6.784  15.250  12.866  0.1950 -0.2301 -0.1170
 7887W        W27421  17.603   0.183  13.153 -0.0419  0.1229  0.1080
 7888W        W27422  10.955  16.250   2.772 -0.2020  0.0754  0.0184
 7889W        W27423  13.776   3.678   1.529  0.1878  0.0270  0.3054
 7890W        W27424  12.355  17.367   0.351 -0.1800 -0.1733 -0.1732
 7891W        W27425  14.752   7.198   2.191  0.2296 -0.1560 -0.1581
 7892W        W27426  17.717  14.153   2.982  0.0721  0.1317  0.0600
 7893W        W27427  11.366  19.228  13.158  0.3167  0.0747  0.2753
 7894W        W27428  10.248   1.655   0.198  0.3741  0.0572  0.0017
 7895W        W27429  15.047  16.019   2.972 -0.2060  0.3183 -0.3497
 7896W        W27430   1.013  14.362   0.759 -0.0825  0.0094  0.0729
 7897W        W27431  11.487   5.255   1.335  0.0056  0.6318 -0.1911
 7898W        W27432   6.197  12.801   4.067 -0.0570 -0.0567 -0.0810
 7899W        W27433  15.192  11.064  11.040  0.3313 -0.1020 -0.3063
 7900W        W27434   5.474  17.235  13.273 -0.0119  0.0800  0.3086
 7901W        W27435   7.442  18.150  11.864  0.1529  0.3912  0.1734
 7902W        W27436   1.214   2.549   2.593  0.2135  0.3324  0.0955
 7903W        W27437  15.752  18.105  14.276  0.5101  0.1127  0.1423
 7904W        W27438  11.686  17.112   1.916 -0.0199  0.0621 -0.2055
 7905W        W27439  16.484   4.148   0.228  0.0671 -0.2516  0.3444
 7906W        W27440  14.999  10.301  12.646  0.1472 -0.3696  0.2438
 7907W        W27441   4.119  17.520   2.834 -0.2537  0.1056 -0.0661
 7908W        W27442  13.298  13.806  10.997 -0.0598  0.2851  0.0676
 7909W        W27443   9.416  15.610   0.336  0.0711 -0.2233 -0.0527
 7910W        W27444   7.051   2.172  12.807 -0.1945 -0.0434  0.2954
 7911W        W27445  17.564  11.391  12.010 -0.0815 -0.0719 -0.0296
 7912W        W27446  15.430   8.026  12.587  0.2342 -0.0753 -0.2902
 7913W        W27447  13.970   4.502   3.575  0.1942 -0.6736  0.2299
 7914W        W27448  19.308  18.627   2.219 -0.0665  0.2920 -0.1421
 7915W        W27449  10.317   4.793   2.796 -0.1637  0.1399  0.1878
 7916W        W27450   0.204  11.071   2.153  0.0657  0.0140 -0.2995
 7917W        W27451   1.849   5.091   0.636  0.3863  0.2057  0.1791
 7918W        W27452   6.245   5.504   1.077  0.0094  0.2039 -0.0349
 7919W        W27453   3.264  17.506   3.701 -0.0931 -0.3947 -0.1477
 7920W        W27454   3.193   5.067   3.422 -0.0107 -0.2922 -0.1149
 7921W        W27455  14.901   2.412  10.360  0.0095 -0.0461 -0.0170
 7922W        W27456  13.179  11.504  13.517 -0.2759 -0.2517 -0.3993
 7923W        W27457  10.460  18.526   2.657 -0.1066  0.1321  0.1193
 7924W        W27458   6.216   6.292  11.639 -0.1516  0.1070  0.0224
 7925W        W27459   6.876  11.183  12.020  0.2970  0.0039 -0.1876
 7926W        W27460   2.784   9.848  10.902 -0.5013  0.0067  0.0254
 7927W        W27461   5.340   4.601  13.907  0.0838  0.0590  0.1908
 7928W        W27462   2.721   3.545  11.836  0.0584  0.2284  0.1037
 7929W        W27463  16.633   1.530  12.280 -0.1548 -0.1078  0.0194
 7930W        W27464   5.236  10.009  12.483  0.0158 -0.0354 -0.2911
 7931W        W27465   9.361   0.202   1.185 -0.1091 -0.4084  0.3124
 7932W        W27466   6.942   0.437  13.167  0.0485 -0.1694 -0.2273
 7933W        W27467  13.529  15.824  10.297  0.3938 -0.0629 -0.0058
 7934W        W27468   3.708  13.820  12.680  0.0928 -0.2249  0.1484
 7935W        W27469   0.811   0.613   0.536  0.1568 -0.1378  0.1090
 7936W        W27470   7.722   8.325  13.368 -0.3131 -0.1121 -0.0708
 7937W        W27471   1.351   6.335   1.686 -0.0107  0.3122  0.0477
 7938W        W27472   4.766   6.283  11.855 -0.0425  0.0999 -0.1912
 7939W        W27473  19.210  16.165  11.278 -0.1064 -0.1309 -0.0853
 7940W        W27474  15.754  16.368  13.261 -0.0984  0.1190 -0.1144
 7941W        W27475   1.363  14.492   3.607  0.0499 -0.0967 -0.0348
 7942W        W27476  17.225  15.649   3.557 -0.1631  0.1390 -0.1501
 7943W        W27477   1.120  11.966   3.438 -0.1416 -0.0848  0.1177
 7944W        W27478  19.144   5.276   2.542  0.1502 -0.0393 -0.2442
 7945W        W27479  15.462   4.498   4.084  0.0131 -0.4210  0.0480
 7946W        W27480   2.216   3.370   0.368 -0.1627 -0.0759  0.2065
 7947W        W27481  13.798  18.435  13.925 -0.0808 -0.3169 -0.1489
 7948W        W27482  14.825  16.108  11.937 -0.0846 -0.3775  0.3598
 7949W        W27483   6.604  11.170  11.627 -0.1712  0.0937  0.0508
 7950W        W27484  15.174  18.593  11.980  0.1712  0.2125  0.2216
 7951W        W27485   5.895  13.978   3.251 -0.2418 -0.3280 -0.0359
 7952W        W27486   1.750  10.888   2.952 -0.2624 -0.1028  0.1673
 7953W        W27487  15.651  10.646  11.209 -0.3364  0.0216  0.1706
 7954W        W27488  16.777   7.356   1.784 -0.1428 -0.2506  0.4995
 7955W        W27489   0.579   5.297  11.717  0.3263 -0.1297  0.2396
 7956W        W27490  10.003  17.951   2.078 -0.5843  0.1698 -0.0600
 7957W        W27491  10.506   4.758   0.740  0.3659  0.0231  0.0994
 7958W        W27492  19.509   6.578   3.430  0.1333 -0.0716  0.1184
 7959W        W27493   3.302   0.780   3.867 -0.2860  0.0747  0.1432
 7960W        W27494   2.908   7.339  10.654  0.3385  0.2068 -0.3201
 7961W        W27495  17.857   5.363   2.086  0.1293 -0.1400  0.1073
 7962W        W27496  11.780   6.681  12.065 -0.0341 -0.3787  0.1487
 7963W        W27497   6.705  14.241   9.884 -0.1122  0.0760 -0.2175
 7964W        W27498   8.205   6.445  10.693  0.4396 -0.1958 -0.0612
 7965W        W27499  14.637  16.674  12.148  0.1691 -0.5152  0.1218
 7966W        W27500  10.273  11.081  13.919 -0.0322 -0.1620  0.1617
 7967W        W27501  14.348  12.163   9.391  0.3904  0.1934  0.0729
 7968W        W27502  14.004  16.760   1.263 -0.2906  0.1363  0.0682
 7969W        W27503   5.238  12.688   0.962  0.0777 -0.1266  0.2839
 7970W        W27504  12.594  10.765   1.759  0.0038 -0.0660 -0.0955
 7971W        W27505   9.902  13.595  11.452 -0.1720 -0.1067  0.2048
 7972W        W27506   1.981  19.448  12.370 -0.2495 -0.0801 -0.2465
 7973W        W27507  17.283  18.423   1.989  0.0041 -0.0608  0.1050
 7974W        W27508  10.109   9.692   0.221  0.0446 -0.3852  0.0237
 7975W        W27509  11.946   9.368   1.375  0.0645  0.1521 -0.1083
 7976W        W27510   8.103   5.594  11.348  0.0549 -0.0274  0.2301
 7977W        W27511  13.637   0.227  10.419  0.0901 -0.0494 -0.1507
 7978W        W27512   8.652   5.252   1.114 -0.0322  0.0098  0.1776
 7979W        W27513   9.502  15.976  13.332 -0.1027  0.0703 -0.0621
 7980W        W27514   3.836   7.267   2.470  0.1202 -0.1008  0.1201
 7981W        W27515  10.278  10.961  13.454  0.0531 -0.1288  0.0170
 7982W        W27516  10.337  15.887   3.648 -0.4608  0.0472  0.0380
 7983W        W27517  14.522   2.421   2.027 -0.0684 -0.0480 -0.0138
 7984W        W27518  18.872   4.492   0.044 -0.0846 -0.1275  0.0318
 7985W        W27519  16.153  17.676  14.231 -0.0372  0.0649 -0.0154
 7986W        W27520   2.619   5.466   0.971 -0.0573 -0.0594 -0.0000
 7987W        W27521   8.912  16.358  12.318  0.0844  0.2206  0.1729
 7988W        W27522  13.687   8.503  12.104 -0.2422 -0.0165  0.2432
 7989W        W27523  15.485   0.070   1.853 -0.0585  0.1590 -0.1303
 7990W        W27524   7.830  12.575   2.422  0.1865  0.1332 -0.0360
 7991W        W27525  12.323  17.337   0.866  0.2553 -0.2082 -0.2442
 7992W        W27526  14.932   6.891   1.240  0.2852  0.0809 -0.1062
 7993W        W27527  19.448   9.819   1.985 -0.1875  0.1322  0.1017
 7994W        W27528   4.382  17.890   1.944 -0.1711  0.0954 -0.1952
 7995W        W27529   6.485   2.125  10.841 -0.2031 -0.1198 -0.0261
 7996W        W27530   2.717   8.281   1.401 -0.2656 -0.0225  0.1334
 7997W        W27531  18.614  15.588   4.347  0.2443  0.1636  0.1242
 7998W        W27532  13.162  15.167  12.295 -0.2695 -0.1566 -0.0137
 7999W        W27533  12.261  17.058  11.833  0.0103  0.2024 -0.2355
 8000W        W27534   9.921   9.583   3.850  0.1591 -0.0707 -0.2503
 8001W        W27535  12.298  14.192  11.218 -0.0002  0.0999 -0.0135
 8002W        W27536  11.180  19.309   1.262  0.0892  0.1574 -0.0024
 8003W        W27537  16.720   2.122  13.490 -0.1437 -0.0511 -0.1445
 8004W        W27538   5.914   2.513   1.316 -0.2461 -0.1464  0.1333
 8005W        W27539   4.842  17.205  11.846  0.0862 -0.2996 -0.1683
 8006W        W27540  15.596  16.657  10.606  0.0328  0.1284  0.4876
 8007W        W27541  18.640  11.078   3.020  0.2359 -0.0594 -0.2100
 8008W        W27542  17.452   1.174  10.066  0.1688  0.1435  0.1194
 8009W        W27543   2.605   7.120   2.610  0.2082  0.0723  0.1554
 8010W        W27544  12.760   3.715   3.355 -0.1245  0.0943 -0.1225
 8011W        W27545   5.112  18.010  13.453 -0.0721 -0.0301  0.2598
 8012W        W27546  16.609  10.587  12.280  0.0775  0.1524 -0.1234
 8013W        W27547  18.798  15.985   3.453  0.0847  0.0609  0.0316
 8014W        W27548  11.118   8.294   4.187 -0.1631 -0.1490 -0.0904
 8015W        W27549   2.863   9.497   0.656 -0.2490  0.1225 -0.2198
 8016W        W27550   6.837  10.653   5.814 -0.1778 -0.3363 -0.1973
 8017W        W27551   4.519   6.516  12.868 -0.2549 -0.0938 -0.0605
 8018W        W27552   1.829   8.734  14.071  0.0577  0.2082  0.1045
 8019W        W27553  14.115  16.133   2.506  0.0285  0.0005 -0.1411
 8020W        W27554  11.991   7.057   1.470  0.2689  0.2136  0.0530
 8021W        W27555  16.029  10.133  13.505 -0.1831  0.1023 -0.1753
 8022W        W27556   1.539   3.958  12.128 -0.1400  0.0701  0.0487
 8023W        W27557   5.654   2.523   2.980 -0.2919  0.0254 -0.0135
 8024W        W27558   1.112  16.549   4.800  0.1805  0.3700 -0.2576
 8025W        W27559   9.874   1.616  14.195  0.0301  0.0390 -0.1590
 8026W        W27560   8.649  15.033  12.973 -0.0063  0.1772  0.0204
 8027W        W27561   5.432   0.709  13.257  0.0028  0.2330  0.1624
 8028W        W27562   7.124  12.226  12.780 -0.2922  0.4786  0.1122
 8029W        W27563   4.314   9.646   2.611  0.4947 -0.0607 -0.2052
 8030W        W27564  18.541   1.476   3.309 -0.3996 -0.0453  0.0306
 8031W        W27565   1.385   1.541  12.485  0.0727 -0.2939 -0.1322
 8032W        W27566  10.668  14.087  13.134 -0.1287  0.4012 -0.0448
 8033W        W27567  19.473   9.205  14.126 -0.2964 -0.0392 -0.0607
 8034W        W27568   4.887   5.150   3.526 -0.0405  0.1030  0.1081
 8035W        W27569   8.480   6.574  13.600 -0.2334  0.0746  0.1864
 8036W        W27570   5.624  16.968   0.637 -0.1003 -0.0564  0.0875
 8037W        W27571   7.280   4.245   1.427 -0.3889 -0.0926 -0.2111
 8038W        W27572   9.281  18.635  10.720  0.0867 -0.0563 -0.0617
 8039W        W27573   9.320   1.821  12.076 -0.0050  0.1427 -0.1458
 8040W        W27574   2.964  14.263   2.013  0.1955 -0.3162  0.0194
 8041W        W27575   4.795   0.565   1.063 -0.1812  0.3182  0.0173
 8042W        W27576   3.988   1.089  11.603 -0.2146 -0.1141 -0.2258
 8043W        W27577   5.349   5.350   1.099 -0.0025  0.2833 -0.1123
 8044W        W27578   4.955   9.626  12.627  0.3104  0.1228 -0.1181
 8045W        W27579   4.488   9.245  12.677  0.0531  0.3911 -0.0792
 8046W        W27580  12.817   0.480  12.293 -0.1240 -0.0958  0.3695
 8047W        W27581  16.316  14.296   2.931  0.3777  0.0560 -0.0913
 8048W        W27582   9.900   4.010  13.466 -0.1393 -0.1611 -0.3788
 8049W        W27583  13.437  19.224  10.462 -0.0730 -0.2955  0.1794
 8050W        W27584  14.719   4.164   9.956  0.1040 -0.1482 -0.1709
 8051W        W27585  13.525  14.697   1.402  0.1204 -0.1633 -0.1063
 8052W        W27586   5.335   4.734  11.087  0.1782 -0.0566  0.1444
 8053W        W27587   4.128   4.312   3.039  0.2024 -0.0864  0.3129
 8054W        W27588   3.549   0.996  12.502  0.0177 -0.2589  0.0909
 8055W        W27589   3.492   0.831  10.666  0.1478 -0.3071 -0.0549
 8056W        W27590   2.024   1.887   1.122  0.1660 -0.0678  0.2816
 8057W        W27591   7.776  11.907  11.532 -0.0925 -0.3863 -0.0781
 8058W        W27592  10.798  17.537   3.523  0.2229  0.1636 -0.2629
 8059W        W27593   0.900   5.383  11.348 -0.0064 -0.0981 -0.1142
 8060W        W27594   4.148   9.098   4.108  0.0559 -0.2385 -0.1845
 8061W        W27595  15.554  17.526   1.429 -0.2564  0.1187 -0.0734
 8062W        W27596  10.096  18.934  12.603  0.0258  0.1929 -0.0128
 8063W        W27597   0.321  13.047  11.890 -0.2381 -0.0805 -0.1053
 8064W        W27598  13.318  12.682  11.675  0.2746 -0.0285  0.0758
 8065W        W27599  18.902  15.698  13.990 -0.0664 -0.0669 -0.0669
 8066W        W27600   8.388  16.435   2.587  0.2986 -0.1628  0.1450
 8067W        W27601  16.636   4.256  11.403 -0.0957  0.1254  0.1257
 8068W        W27602  14.664   0.874  13.876 -0.0003 -0.1878  0.1289
 8069W        W27603   8.828  14.338  12.254  0.1206  0.1242  0.1111
 8070W        W27604   7.827  13.664  13.628  0.0302  0.0181 -0.0072
 8071W        W27605  10.675  11.394   1.790  0.3024  0.0624  0.1754
 8072W        W27606  13.468  13.145   4.403 -0.0416  0.1434 -0.3494
 8073W        W27607   0.967   0.629  12.437  0.0614 -0.5060 -0.2848
 8074W        W27608  13.434   4.161   3.767 -0.4503 -0.2451 -0.2916
 8075W        W27609  16.552   1.767   2.923 -0.0381 -0.0441 -0.2329
 8076W        W27610  14.179  17.628   1.864 -0.1431  0.1847 -0.1523
 8077W        W27611   6.403   8.133   0.719 -0.0095 -0.0167 -0.1389
 8078W        W27612   0.695  11.446  10.525 -0.2772  0.0672 -0.1299
 8079W        W27613   5.320   7.764   1.369  0.1271  0.1398 -0.1105
 8080W        W27614   9.838   7.825  13.548  0.3559  0.2542 -0.1030
 8081W        W27615   0.684  16.698  14.378 -0.1283  0.1833 -0.0098
 8082W        W27616  18.396   2.448   3.435 -0.1317  0.0282  0.0067
 8083W        W27617  18.985   6.173  10.837  0.0225 -0.2786  0.3526
 8084W        W27618  11.415  17.529   4.053 -0.1788 -0.1797 -0.0400
 8085W        W27619  10.732  10.522  13.913  0.0332 -0.0580 -0.1717
 8086W        W27620   2.000  12.281   3.522  0.1045 -0.0718  0.0911
 8087W        W27621   3.987   4.229   0.650 -0.3348  0.1739 -0.1133
 8088W        W27622  19.274   7.796  13.884 -0.1870 -0.1352  0.0635
 8089W        W27623  10.494  17.890  13.851  0.1481  0.1171  0.1941
 8090W        W27624  18.340  17.065  12.029  0.0683  0.1783  0.1036
 8091W        W27625   9.604  14.204  11.817 -0.2673 -0.3592 -0.4021
 8092W        W27626   8.218   9.952   0.200 -0.0510  0.2525 -0.0475
 8093W        W27627  12.292   6.512   0.511  0.2127 -0.3135  0.0675
 8094W        W27628  13.340  12.657   0.353  0.1203 -0.2563 -0.1149
 8095W        W27629  17.025  11.041  13.791 -0.0621  0.0491 -0.1587
 8096W        W27630  19.153   8.157   4.041  0.1015  0.1915  0.1976
 8097W        W27631   5.854   0.846  14.002  0.0913 -0.0622 -0.0673
 8098W        W27632  15.393   4.906  12.118 -0.2626  0.0772  0.1642
 8099W        W27633   9.658  18.882  10.959  0.1598 -0.1378 -0.2716
 8100W        W27634   7.471  18.252   1.842  0.0273 -0.1535  0.0945
 8101W        W27635   8.096   9.162   1.282 -0.1475  0.1013 -0.2956
 8102W        W27636   9.210   1.053   1.881  0.2833 -0.0651 -0.0325
 8103W        W27637   0.906  12.516  10.203  0.0981  0.0821  0.1199
 8104W        W27638  16.253   1.880  11.489  0.3135 -0.1370 -0.2320
 8105W        W27639  18.058  16.045   1.142 -0.0127 -0.1835 -0.1623
 8106W        W27640  19.320   9.790   0.535 -0.0267 -0.1107 -0.0889
 8107W        W27641  11.544   3.442   2.126  0.1898 -0.2307  0.0916
 8108W        W27642   0.629   3.572   3.150 -0.0914 -0.3321 -0.1160
 8109W        W27643  17.501   0.652   4.830  0.1336 -0.0354  0.0352
 8110W        W27644  11.623  13.307  12.680 -0.3508  0.0345 -0.1662
 8111W        W27645   3.705   4.862   4.273 -0.1511  0.0055  0.0197
 8112W        W27646  14.231  11.443   1.105 -0.2679  0.0647 -0.2547
 8113W        W27647  13.316  19.058  13.755 -0.2264 -0.1844  0.2730
 8114W        W27648  17.703  17.368   2.130  0.1158 -0.0955  0.1060
 8115W        W27649  17.676  14.454   1.478  0.1574  0.0373 -0.1174
 8116W        W27650   1.800  14.447  11.225  0.2467  0.3396 -0.2145
 8117W        W27651   9.022   7.601  11.554  0.2335 -0.1121 -0.2587
 8118W        W27652   0.041   1.903   0.751  0.0148 -0.0431  0.0904
 8119W        W27653   7.178  19.088   3.532  0.4914 -0.1051 -0.2743
 8120W        W27654  15.705   7.171   0.328 -0.0664  0.4516  0.0012
 8121W        W27655  18.486   4.826  11.939 -0.1056 -0.1003 -0.0385
 8122W        W27656   6.492  14.225   0.721 -0.0896  0.0932 -0.0812
 8123W        W27657  10.755   7.482   0.869 -0.3576 -0.2810  0.1701
 8124W        W27658  10.493   7.032  10.815 -0.0134 -0.0527 -0.2203
 8125W        W27659  17.278  11.537   1.158 -0.0550 -0.0422  0.0311
 8126W        W27660   7.470   1.761   0.961 -0.0399  0.1097  0.0525
 8127W        W27661  13.527   5.634  12.681 -0.0460 -0.1794 -0.2136
 8128W        W27662  13.524  17.982  13.045  0.0422  0.0731 -0.0528
 8129W        W27663   7.326  14.555   3.739  0.3843  0.0284  0.0209
 8130W        W27664  12.216   9.700  10.635 -0.0067  0.2062 -0.1749
 8131W        W27665   1.423   4.924   9.459  0.0740 -0.0863  0.1549
 8132W        W27666   5.018   1.164   1.720  0.1168 -0.1062 -0.0425
 8133W        W27667  18.303   9.342  14.296 -0.2588  0.0044 -0.1213
 8134W        W27668   2.742   2.633   3.462  0.3156 -0.1150 -0.0121
 8135W        W27669  13.563  12.451  14.213 -0.2115 -0.0662 -0.1064
 8136W        W27670  17.017  13.068   0.826 -0.0751  0.0196 -0.1788
 8137W        W27671  11.111  18.237   2.187  0.0377 -0.2206  0.3533
 8138W        W27672   2.736  18.523   0.672  0.0929 -0.2221  0.2412
 8139W        W27673   8.612  12.686  11.616  0.1624 -0.1918  0.0204
 8140W        W27674   4.074  14.923   4.723  0.0819 -0.2067 -0.1556
 8141W        W27675  11.679   0.896   2.799 -0.0560 -0.1457 -0.1325
 8142W        W27676   5.250  17.512  10.849 -0.1102 -0.2356 -0.1320
 8143W        W27677  13.773   4.171   1.389 -0.0154 -0.0267 -0.0021
 8144W        W27678  14.296   4.781  13.097  0.0598  0.1404 -0.0150
 8145W        W27679  10.934  18.805   1.739 -0.0337  0.2959 -0.0152
 8146W        W27680  15.850   8.457  12.027 -0.3949 -0.0366  0.3360
 8147W        W27681   5.214   9.173  13.922  0.0090 -0.0099  0.2444
 8148W        W27682   7.362   2.894  13.366 -0.1402  0.1566 -0.1459
 8149W        W27683   4.657  17.322  12.848  0.1441 -0.0175  0.1809
 8150W        W27684  11.265  17.064   9.466 -0.0982 -0.3622 -0.1501
 8151W        W27685   1.874  11.546   0.857  0.4829 -0.0768 -0.0780
 8152W        W27686   9.456   9.329   0.614  0.1430  0.0158 -0.0457
 8153W        W27687   0.869  16.682  13.382  0.1141  0.1750 -0.0312
 8154W        W27688   4.128  19.242  13.971  0.1262 -0.0902 -0.1984
 8155W        W27689  18.307  19.061   2.485 -0.2381 -0.0015 -0.1522
 8156W        W27690  12.726   2.260   2.795 -0.0079 -0.0307  0.0960
 8157W        W27691   5.859   9.392   2.844  0.2156  0.0841 -0.0812
 8158W        W27692   4.319   3.355  13.579 -0.2957  0.0487  0.2815
 8159W        W27693  14.366  15.729   4.691 -0.1052  0.1544 -0.1886
 8160W        W27694   2.539   2.919  13.145 -0.0438  0.1077 -0.2220
 8161W        W27695  16.542  11.257   1.889  0.1281  0.2043  0.0029
 8162W        W27696   9.889  12.984  11.375 -0.0041 -0.1321 -0.0106
 8163W        W27697   6.984   7.423  14.201 -0.0179  0.0227 -0.0852
 8164W        W27698   1.326  12.770   3.259 -0.1910 -0.2268  0.1482
 8165W        W27699   9.604   2.822   0.436  0.0373  0.0630  0.2101
 8166W        W27700  16.791  17.781   2.511 -0.1991  0.1104  0.1675
 8167W        W27701   7.293   8.085   1.248 -0.2858 -0.0062 -0.1872
 8168W        W27702   3.570   3.380   9.642  0.0650  0.0004  0.3137
 8169W        W27703   9.816   4.999  13.319 -0.4197  0.0440 -0.2462
 8170W        W27704   7.989  18.426  13.419  0.2470 -0.2204  0.0808
 8171W        W27705  17.266   6.288  10.813  0.1744 -0.3136  0.1917
 8172W        W27706   0.578  14.737  13.331 -0.1543 -0.0095  0.2021
 8173W        W27707  16.489   9.129  11.841 -0.1236  0.0279 -0.1832
 8174W        W27708  18.001   8.978  12.231  0.2017 -0.3189 -0.2536
 8175W        W27709   6.250   2.079   2.560 -0.0918  0.0121  0.0429
 8176W        W27710   9.432   0.248   9.793 -0.0032 -0.0384  0.0423
 8177W        W27711  19.087   9.323   1.253  0.0558  0.1425  0.0419
 8178W        W27712  16.866  16.823   9.952 -0.2474 -0.1804  0.2320
 8179W        W27713   2.521  10.114  13.460 -0.0346  0.1196  0.0289
 8180W        W27714   3.276   2.183  13.086  0.1658 -0.0507 -0.1054
 8181W        W27715  15.119   1.165   2.780  0.0877  0.1138 -0.0454
 8182W        W27716   3.342  18.055  11.917 -0.1981  0.0585  0.2660
 8183W        W27717  10.533  14.340  11.512  0.0066  0.2473  0.2013
 8184W        W27718   8.518   5.762  14.049  0.1491  0.0662 -0.3952
 8185W        W27719   1.240   5.043   0.272 -0.2552  0.1071  0.1507
 8186W        W27720  10.512   2.484   2.950 -0.0235 -0.1351 -0.1316
 8187W        W27721  17.180  13.312  11.722  0.0112 -0.0260  0.2918
 8188W        W27722  13.142   1.027   2.327  0.3006 -0.1933  0.2644
 8189W        W27723   4.942   4.885  13.668  0.0431 -0.2602 -0.1587
 8190W        W27724   7.881   6.313  12.655 -0.5591 -0.2847 -0.0508
 8191W        W27725   0.488  14.192  11.823 -0.1198  0.0099  0.1194
 8192W        W27726   3.396  13.854   0.261 -0.0665 -0.0206 -0.2265
 8193W        W27727   9.399  14.899   0.941 -0.0046  0.2566 -0.0695
 8194W        W27728   6.254   7.750   1.083  0.0904 -0.2762  0.1613
 8195W        W27729   0.552  11.070   0.653 -0.0049  0.1175 -0.2170
 8196W        W27730  10.202   0.237  11.512 -0.0738  0.1038  0.1444
 8197W        W27731  12.439  18.318  11.588 -0.0474  0.0995  0.2807
 8198W        W27732  11.873  14.415   1.774  0.0074 -0.0401  0.1438
 8199W        W27733   7.562  12.620   0.261  0.0692 -0.0920  0.1750
 8200W        W27734  13.761   8.937   2.368  0.0864 -0.0712 -0.1981
 8201W        W27735   8.835   3.829   2.073 -0.0870  0.0762  0.2987
 8202W        W27736   3.689  18.994  13.165  0.0855  0.3184  0.0426
 8203W        W27737  15.358  13.247  10.682 -0.1149  0.0822 -0.2009
 8204W        W27738   5.588  17.105  10.726 -0.0344 -0.0859 -0.1839
 8205W        W27739  18.583  18.156  11.827 -0.1031  0.3944  0.0443
 8206W        W27740  18.569   4.367  11.619 -0.1970 -0.0607 -0.2831
 8207W        W27741   6.800   8.949   0.909  0.4617  0.1422 -0.1963
 8208W        W27742  19.026   3.912   2.433  0.2610  0.1845  0.1705
 8209W        W27743   5.058   7.997   1.038 -0.1604 -0.1723 -0.2889
 8210W        W27744  17.135   8.305  13.902  0.1819  0.0226  0.0559
 8211W        W27745   7.796  10.093  13.617  0.0566 -0.0557  0.0037
 8212W        W27746  15.406   9.563  12.708 -0.3115 -0.1406 -0.3938
 8213W        W27747   9.938   1.140  12.292  0.0230 -0.1631 -0.3213
 8214W        W27748   5.401   9.941   1.779 -0.1450 -0.0735  0.1394
 8215W        W27749  18.116  17.024   1.816 -0.0234 -0.2932  0.0443
 8216W        W27750   7.214  10.855  13.635 -0.0761  0.0848 -0.0790
 8217W        W27751  12.218  16.580  12.991  0.1505 -0.1288 -0.0457
 8218W        W27752  16.927  16.162   2.855  0.1881  0.2249  0.1382
 8219W        W27753   5.087  19.159   2.038 -0.0437  0.2200 -0.3852
 8220W        W27754   9.513   5.343   2.052  0.2322 -0.0375 -0.2970
 8221W        W27755  13.099  19.285  14.323  0.0611  0.2216  0.0457
 8222W        W27756   0.013  10.702  11.801  0.2111  0.1311 -0.0400
 8223W        W27757  12.017   0.786   3.220  0.0923  0.1159 -0.1181
 8224W        W27758  12.886   5.063  13.977 -0.1985 -0.0356  0.2808
 8225W        W27759  10.080   6.612  12.642 -0.2012  0.1932 -0.0832
 8226W        W27760   6.142  17.441  12.428  0.2784 -0.0857  0.3474
 8227W        W27761  18.425  13.045  11.608  0.2457  0.0132  0.0195
 8228W        W27762  16.633  18.282  12.399  0.0501  0.1894 -0.0293
 8229W        W27763   6.063  17.580  11.130 -0.0697  0.4247 -0.1949
 8230W        W27764  17.480   6.330  14.269  0.0796 -0.2420 -0.0902
 8231W        W27765   9.030   8.547   3.121  0.0518 -0.0581  0.1163
 8232W        W27766   5.385  12.201   0.899  0.3319 -0.0754  0.3250
 8233W        W27767   9.535   3.935  14.009  0.2285  0.2378 -0.2840
 8234W        W27768  13.247   0.274   0.215 -0.1596  0.1647  0.1984
 8235W        W27769   5.061  10.597   1.214 -0.2121  0.0576 -0.0560
 8236W        W27770  10.663  17.215  13.317 -0.0403  0.0953  0.0222
 8237W        W27771  10.011   0.641   2.564  0.0073  0.3073 -0.2539
 8238W        W27772   3.404  15.396  12.312  0.0777  0.0168  0.0685
 8239W        W27773  12.304  12.537   1.481 -0.0436  0.0591  0.1593
 8240W        W27774  11.417   2.243  11.842 -0.4428  0.1217 -0.1052
 8241W        W27775  18.968   3.211   0.292 -0.2583  0.0121 -0.0031
 8242W        W27776  15.394  10.842   1.870  0.0660  0.3416  0.2968
 8243W        W27777  13.568  15.260   3.599 -0.0532 -0.1386 -0.0510
 8244W        W27778  15.744   1.222  10.776 -0.2472  0.3505 -0.1132
 8245W        W27779  12.297   3.499  11.927  0.0105  0.0126 -0.0684
 8246W        W27780  17.631  15.564   3.233  0.0899  0.1458  0.0275
 8247W        W27781   1.462   2.199  13.048  0.0241  0.0031 -0.4343
 8248W        W27782   0.669   6.780  11.252 -0.0865  0.0059 -0.2605
 8249W        W27783  16.291  11.611   0.916  0.2995 -0.0988  0.0013
 8250W        W27784  18.488  13.542  11.543 -0.0884 -0.0793  0.1002
 8251W        W27785  10.079  15.859   0.198 -0.1404 -0.1636 -0.1581
 8252W        W27786  15.262  12.784   0.235  0.0066 -0.2045 -0.0031
 8253W        W27787  18.242   8.450   2.913  0.2109  0.0399 -0.2681
 8254W        W27788  19.106  12.686  11.121 -0.1796 -0.0040  0.3491
 8255W        W27789   8.475   8.683  13.059 -0.0212  0.0758  0.1814
 8256W        W27790   7.356  11.200   2.511 -0.1529  0.1487 -0.0891
 8257W        W27791   1.034  17.249  13.111 -0.0508  0.0770 -0.0241
 8258W        W27792  18.145  11.151   2.782  0.1287  0.1984 -0.0439
 8259W        W27793   6.366   9.907   3.895 -0.0546  0.0400 -0.0158
 8260W        W27794   1.812   6.395   1.884 -0.3394 -0.0647 -0.3018
 8261W        W27795   3.593  18.417   3.847  0.1506 -0.1518  0.1305
 8262W        W27796   3.497  19.388  11.643 -0.2281 -0.2530  0.1889
 8263W        W27797   0.136   3.185   2.346 -0.1208 -0.0523  0.3312
 8264W        W27798  10.756   2.915  10.391  0.1808 -0.1708  0.1241
 8265W        W27799  15.207   1.132   0.364 -0.2901  0.0980  0.0804
 8266W        W27800   5.050   8.536   3.809  0.1118 -0.0144  0.2329
 8267W        W27801   6.497   1.641  11.293 -0.2379 -0.1030 -0.0727
 8268W        W27802   6.233  10.794   2.426 -0.1502  0.0202 -0.1385
 8269W        W27803  16.254   0.058   2.304  0.0720  0.1460  0.3356
 8270W        W27804  12.548   3.735  11.121 -0.2141 -0.0274 -0.0771
 8271W        W27805  12.435  16.940  14.349 -0.1707 -0.0345  0.4608
 8272W        W27806   7.137  17.931  14.120  0.0889  0.1241 -0.0168
 8273W        W27807   0.418   4.029   2.945 -0.0446  0.1109 -0.1862
 8274W        W27808  13.912  13.963  13.748 -0.0857  0.0750  0.1582
 8275W        W27809  12.440  14.038  14.029  0.2475 -0.0908 -0.1480
 8276W        W27810   8.343  18.058  14.372 -0.2952  0.1588 -0.1296
 8277W        W27811  15.739   1.511  12.900 -0.2439 -0.6601 -0.2220
 8278W        W27812   7.296   3.214  13.780 -0.0546  0.0664 -0.2337
 8279W        W27813  14.361   3.550   3.435  0.3122 -0.1552  0.1533
 8280W        W27814  11.389  11.162   0.468 -0.2970  0.0799  0.2010
 8281W        W27815   5.748  12.593  13.326  0.0815  0.1753 -0.0717
 8282W        W27816   8.449  18.366   1.873 -0.0165 -0.0611 -0.0617
 8283W        W27817  12.937   9.558  11.156  0.1157  0.1203 -0.1829
 8284W        W27818   9.717  15.205  11.306  0.0966  0.1085  0.0857
 8285W        W27819  10.568   6.647  11.286  0.1340  0.1486  0.1308
 8286W        W27820   1.465  10.977  11.984  0.0466 -0.1516  0.1373
 8287W        W27821   1.060  12.762   0.002 -0.1278  0.0019  0.2257
 8288W        W27822   6.271   6.002   3.206 -0.3190  0.0836  0.3582
 8289W        W27823   9.415  12.214   1.555 -0.1952  0.1192  0.0845
 8290W        W27824  17.687  13.124   0.614  0.0010  0.1167 -0.1378
 8291W        W27825  14.934   6.153   3.689 -0.1660  0.2746  0.3165
 8292W        W27826  12.343  19.233  10.553 -0.1316  0.1678  0.1789
 8293W        W27827  19.439  17.240  10.318 -0.3343 -0.0209 -0.0499
 8294W        W27828   5.343   5.848  12.323 -0.4187  0.2256 -0.1474
 8295W        W27829  16.545  11.753   3.081  0.3903  0.1844  0.2186
 8296W        W27830  19.329   3.590   0.281 -0.1796  0.4769 -0.4729
 8297W        W27831   0.454  13.521  11.084 -0.0871  0.1455 -0.1232
 8298W        W27832  17.811  16.201   0.360 -0.2820 -0.1765  0.2078
 8299W        W27833  17.600  16.200   0.865 -0.2730  0.0426 -0.0998
 8300W        W27834   0.453  19.199  11.162 -0.2628  0.0796  0.0263
 8301W        W27835  13.022   0.554   9.865 -0.1350  0.2815 -0.1200
 8302W        W27836  19.374  18.338   3.424  0.1141 -0.2008 -0.1351
 8303W        W27837  13.448   4.057   9.297 -0.0900 -0.0050  0.0889
 8304W        W27838   1.511   5.418  12.528 -0.0933 -0.0830  0.0245
 8305W        W27839  16.408   5.001   3.164 -0.4433  0.0769  0.2959
 8306W        W27840   4.051  13.825   2.848 -0.1237  0.2424  0.0379
 8307W        W27841   7.698   9.348  11.914  0.1905  0.1070 -0.2401
 8308W        W27842   3.749   2.213   0.274  0.3592 -0.1300 -0.0190
 8309W        W27843  15.736  18.340   0.379 -0.1215  0.0727  0.0783
 8310W        W27844  14.873   8.082  11.192 -0.0746 -0.1928  0.0985
 8311W        W27845   9.474  13.191  10.458  0.0036  0.0135  0.3938
 8312W        W27846  15.485  17.108   0.294  0.1623 -0.0200  0.0581
 8313W        W27847   6.249   9.509   1.000 -0.0111 -0.2767  0.0923
 8314W        W27848  14.205   4.026  10.966 -0.3643 -0.2797 -0.1055
 8315W        W27849   9.653   8.611  14.036 -0.2029  0.1769  0.0128
 8316W        W27850  16.838  11.344  10.722 -0.1674 -0.0893  0.1762
 8317W        W27851  17.178  19.310   1.861 -0.4083  0.0210 -0.0101
 8318W        W27852  12.306  14.985  10.627 -0.1174  0.0194 -0.4295
 8319W        W27853  13.113  10.616  10.540  0.2430 -0.0712  0.0861
 8320W        W27854  11.467  15.349   2.766  0.1962 -0.0360 -0.0467
 8321W        W27855  10.070   8.842   2.776 -0.1860 -0.1342  0.1001
 8322W        W27856   8.961  15.611   1.296 -0.0815 -0.1262 -0.2870
 8323W        W27857  15.375  12.359   1.238 -0.1792 -0.0393 -0.1252
 8324W        W27858   2.305  15.901   0.606  0.1252  0.2345 -0.3863
 8325W        W27859   7.999  11.293  13.568  0.1048  0.1722 -0.0970
 8326W        W27860  11.209   9.252  12.858  0.0394  0.2647 -0.0731
 8327W        W27861  12.673  13.931   5.038  0.2084  0.0077  0.1101
 8328W        W27862  10.444   5.981  10.515 -0.2209 -0.1763  0.1746
 8329W        W27863  15.678   9.569  14.140 -0.0711 -0.2258  0.3390
 8330W        W27864   5.652  12.917   4.893 -0.3193  0.0204 -0.0434
 8331W        W27865  10.706   7.773  14.219 -0.0151  0.1737  0.0590
 8332W        W27866   5.104  18.660  12.055  0.0694 -0.0746  0.4713
 8333W        W27867  14.616  18.374   9.874 -0.1962 -0.1774  0.1856
 8334W        W27868  15.315   5.602   3.634 -0.0525  0.2401 -0.0922
 8335W        W27869  14.498  19.068  13.412 -0.0072  0.1088  0.2965
 8336W        W27870   3.331   2.985  12.835  0.0960 -0.2219 -0.1883
 8337W        W27871   7.481   4.827   2.796  0.1408 -0.0764  0.2519
 8338W        W27872  11.351  16.882   1.594 -0.2528 -0.1826  0.0757
 8339W        W27873   9.655   4.853  11.070  0.0066  0.0461 -0.4341
 8340W        W27874  15.225  13.914   1.771 -0.1425 -0.0817  0.0958
 8341W        W27875   1.376   0.044  11.868  0.0611  0.0289 -0.0840
 8342W        W27876  16.721   3.055  12.187  0.1153 -0.0855  0.0763
 8343W        W27877   6.343  14.048   1.290  0.1156 -0.0028  0.0550
 8344W        W27878   3.517  12.445  12.127  0.0689 -0.1986  0.0544
 8345W        W27879  19.484  15.846   3.351 -0.3805  0.1743  0.4560
 8346W        W27880   0.580  14.925  12.381  0.0864  0.3026 -0.0362
 8347W        W27881  12.090  11.240  13.732  0.2963  0.0318  0.1868
 8348W        W27882   3.372   5.277  11.914 -0.0889  0.0659  0.2585
 8349W        W27883   1.098   4.628   2.340 -0.0233  0.0419 -0.1735
 8350W        W27884   0.582  18.672  13.488  0.0066 -0.0550  0.2190
 8351W        W27885  15.794   8.991   3.232 -0.2525  0.0874  0.2495
 8352W        W27886   4.155  16.122   2.265  0.0538 -0.4491  0.1669
 8353W        W27887  15.175   6.757   3.801  0.0251  0.3583 -0.0480
 8354W        W27888   2.074  15.127  10.730  0.1389  0.0222  0.1489
 8355W        W27889  14.133  15.667   2.241 -0.0218  0.2648  0.1552
 8356W        W27890  11.271  11.929  14.322 -0.3311  0.2497 -0.2641
 8357W        W27891  15.709   4.160  14.269  0.3347 -0.2622 -0.0510
 8358W        W27892  14.816   6.879   2.674  0.0136 -0.1898 -0.0081
 8359W        W27893  13.843   5.860   3.392  0.1478 -0.3557  0.2226
 8360W        W27894   2.812  13.911   0.954  0.2460  0.2271  0.0604
 8361W        W27895   8.492   9.822   1.405  0.1878 -0.1591  0.1776
 8362W        W27896   1.000  10.431   1.357 -0.2151  0.0303  0.0204
 8363W        W27897   6.611   8.555  11.661  0.3445  0.3782 -0.3922
 8364W        W27898  11.891   4.508  13.699  0.0164  0.2798  0.4019
 8365W        W27899  15.572   9.180   1.483  0.1333 -0.0487  0.0754
 8366W        W27900   7.566   1.186  14.304  0.0319  0.1686 -0.2906
 8367W        W27901  18.531  11.124  12.193  0.3806  0.0570 -0.3541
 8368W        W27902   9.517  18.577  13.979 -0.0795  0.0401  0.2400
 8369W        W27903  13.056  11.124  13.778 -0.0504 -0.2103 -0.2629
 8370W        W27904   3.512  11.538   3.402  0.2742 -0.0846 -0.1889
 8371W        W27905  17.349   9.411  12.540 -0.0208 -0.1223  0.4934
 8372W        W27906   4.105  10.579  11.942 -0.1356  0.0803  0.1088
 8373W        W27907   3.667   4.473  11.480  0.0390  0.0160 -0.3131
 8374W        W27908  17.998  10.605  12.834  0.0847  0.0333  0.1628
 8375W        W27909   4.733  14.113   1.305  0.0833  0.0727  0.0042
 8376W        W27910  10.165   4.744  12.637 -0.3302 -0.0390  0.0087
 8377W        W27911   9.129  10.179   0.347  0.1419 -0.0919 -0.0342
 8378W        W27912   5.789   0.786   3.123  0.4525 -0.1297  0.0111
 8379W        W27913  12.903   7.902   5.059  0.2275 -0.2117 -0.0198
 8380W        W27914   8.150   1.426  10.326  0.1855  0.1561 -0.0047
 8381W        W27915  10.562   5.504  11.794 -0.1128  0.0551 -0.4040
 8382W        W27916   0.548  14.863  14.368 -0.4005 -0.2050  0.3054
 8383W        W27917   5.978  19.408   2.210  0.1210 -0.1001 -0.1069
 8384W        W27918  18.689   5.251   1.540  0.2059  0.2829  0.2153
 8385W        W27919   6.400   2.135   3.026  0.1146  0.0829 -0.2096
 8386W        W27920  12.265  10.104   0.181 -0.3873 -0.0938 -0.1826
 8387W        W27921  13.125  17.645  10.321  0.1154  0.5118  0.2138
 8388W        W27922   4.965  10.184   4.378 -0.0108  0.0821  0.2017
 8389W        W27923  11.256   4.983   1.012  0.0697  0.0830 -0.2589
 8390W        W27924  17.064  19.285  10.935 -0.0724 -0.0026  0.2076
 8391W        W27925  16.152  16.092  10.058  0.0114  0.0628 -0.0894
 8392W        W27926  11.200   0.194   3.309 -0.1274  0.1482 -0.3240
 8393W        W27927   9.183  15.340   3.918  0.3032  0.2133  0.2780
 8394W        W27928  17.285  15.166  13.161 -0.1083  0.0821  0.0060
 8395W        W27929   9.969  11.592  10.421  0.2348  0.0739  0.2125
 8396W        W27930  18.155  15.378  13.429  0.0974  0.1691  0.3512
 8397W        W27931   0.210  11.122   1.643 -0.0451  0.1985  0.0281
 8398W        W27932   6.345   3.780   1.267  0.1992  0.1882 -0.1439
 8399W        W27933  17.503   0.586   0.628 -0.2246  0.1022 -0.0887
 8400W        W27934   8.189  10.216   1.531  0.1838  0.0821  0.0195
 8401W        W27935   5.913  12.480   2.212 -0.6020 -0.2439 -0.1624
 8402W        W27936  17.234  13.852   0.767 -0.1810 -0.1053 -0.1909
 8403W        W27937  15.757   5.649  10.202 -0.2154 -0.0016  0.0908
 8404W        W27938   4.951   5.150   0.791 -0.0000 -0.0502  0.0310
 8405W        W27939   3.703  13.518   3.225 -0.1398 -0.2489 -0.0042
 8406W        W27940   2.123  18.524   3.568 -0.0584  0.2159 -0.1188
 8407W        W27941  10.322   2.952   2.780  0.0780 -0.1954  0.0148
 8408W        W27942   2.912  14.097  11.328  0.3022  0.0909  0.1799
 8409W        W27943  13.008   0.033  11.934  0.4150 -0.1765  0.0340
 8410W        W27944  17.654   0.610   2.014  0.2000 -0.0814 -0.0599
 8411W        W27945   3.746  16.041   2.756  0.3255  0.1180 -0.1159
 8412W        W27946  17.100   0.283   2.927 -0.3221 -0.0354 -0.0578
 8413W        W27947   8.488   4.262  13.208  0.0347 -0.1902  0.0507
 8414W        W27948  16.669  10.623  12.784  0.0387 -0.3191 -0.0044
 8415W        W27949  13.823   6.382   4.039 -0.0606 -0.3383 -0.0279
 8416W        W27950   3.257   0.459   0.948  0.0820 -0.2113  0.1229
 8417W        W27951   9.283  11.111   3.896  0.1806 -0.2451 -0.1122
 8418W        W27952  12.376   8.501   0.282  0.0536 -0.0020 -0.2508
 8419W        W27953   3.452  11.619  11.315  0.2279 -0.5559  0.0823
 8420W        W27954   7.482   4.392   3.726  0.1403  0.0686  0.0879
 8421W        W27955   2.093  14.031   2.999 -0.0227 -0.0344 -0.2075
 8422W        W27956   4.287   2.352  11.764  0.2272  0.2430 -0.1771
 8423W        W27957  19.241   2.548   3.306  0.0697  0.1825 -0.1879
 8424W        W27958   5.369   6.320   1.872  0.0309  0.0460 -0.0385
 8425W        W27959  11.022   5.866  14.363  0.2078  0.0301  0.1940
 8426W        W27960   1.505  18.945   2.822  0.1508  0.0326  0.3463
 8427W        W27961   2.428  18.625  13.370  0.1208  0.1160  0.1710
 8428W        W27962   2.750  10.600  13.574  0.1534 -0.1392 -0.0495
 8429W        W27963  15.952  13.248   3.232 -0.2285 -0.5159 -0.0069
 8430W        W27964  18.829   6.117   1.535 -0.0019  0.0195 -0.0192
 8431W        W27965  19.155  17.186  10.719  0.0444  0.0681 -0.0380
 8432W        W27966  16.596  13.185   0.601  0.0425 -0.2333  0.2756
 8433W        W27967  17.257   2.205   1.829  0.3053 -0.3357 -0.0117
 8434W        W27968   6.940   3.889  13.708 -0.1637  0.1000  0.0513
 8435W        W27969   1.692  17.991  11.612 -0.2559 -0.2289  0.1684
 8436W        W27970  19.044  17.837   0.291 -0.0475 -0.2186  0.0166
 8437W        W27971   2.683  16.575   3.897  0.1421  0.1501  0.1115
 8438W        W27972  17.759  13.581  12.810 -0.2686 -0.0451 -0.1194
 8439W        W27973  12.437  12.386   1.027 -0.1831 -0.0109  0.1926
 8440W        W27974  11.516   1.209  11.330 -0.0823  0.1388 -0.1892
 8441W        W27975   6.777   6.000   0.095 -0.0048  0.0097 -0.0019
 8442W        W27976   0.922   2.812   1.270  0.0815  0.2082  0.0533
 8443W        W27977   3.008  14.596  12.933 -0.0737 -0.1522 -0.0579
 8444W        W27978   2.781  18.834   4.011 -0.1838  0.2233 -0.1311
 8445W        W27979   2.622   5.783   3.020  0.0958  0.0280 -0.3024
 8446W        W27980  10.405   5.325   1.846 -0.1731 -0.2073 -0.0260
 8447W        W27981   8.766  11.708  10.786 -0.0611  0.0554  0.1575
 8448W        W27982   8.097   6.170  13.138  0.0376  0.1289 -0.1378
 8449W        W27983  18.014  10.532   1.945  0.1524  0.2408 -0.0607
 8450W        W27984  13.620   8.442  10.336 -0.0682  0.0133  0.3391
 8451W        W27985  13.927  11.479  12.369 -0.0640  0.1920 -0.2236
 8452W        W27986  10.625  10.928  14.206  0.2297  0.1525 -0.0045
 8453W        W27987   2.426   0.213  10.482 -0.4489  0.0409 -0.0822
 8454W        W27988   6.077  15.991   3.630 -0.1314  0.4153 -0.0319
 8455W        W27989  14.375   2.222  11.379 -0.3915  0.3070  0.3238
 8456W        W27990   5.608   8.839  11.971  0.1069  0.1012 -0.1635
 8457W        W27991  14.149  16.284  13.574  0.0758 -0.1188  0.1805
 8458W        W27992   7.297   7.668   0.150 -0.0044 -0.2191 -0.0790
 8459W        W27993   1.617   9.407   3.344 -0.2670  0.0317  0.3061
 8460W        W27994   4.793  18.779  12.647 -0.2365 -0.0768 -0.0902
 8461W        W27995   9.191   0.336   3.432 -0.1315  0.1652 -0.0634
 8462W        W27996  13.655   1.226  11.025 -0.0528  0.2539 -0.1462
 8463W        W27997  15.726  18.282   1.802  0.1229 -0.0659 -0.1331
 8464W        W27998  18.038   3.085  12.386  0.1331 -0.2002  0.0563
 8465W        W27999   3.884   4.344   0.137  0.1320 -0.0934 -0.0027
 8466W        W28000  15.272   7.712   2.903 -0.0521 -0.0420 -0.0992
 8467W        W28001   3.644   9.786  11.471  0.1197 -0.2360  0.1591
 8468W        W28002   3.397  12.321  10.140  0.2828  0.1003 -0.5857
 8469W        W28003   2.514   8.078   3.109  0.0858  0.0555  0.1254
 8470W        W28004   9.181  17.303   0.033 -0.1897  0.2568  0.1013
 8471W        W28005   7.749   1.530  12.140  0.1964  0.0833  0.0845
 8472W        W28006   1.148  11.367   5.379  0.3257 -0.0475  0.1287
 8473W        W28007   6.376   1.608  12.984  0.0416 -0.0493  0.3499
 8474W        W28008   1.442  15.084   0.198 -0.1583 -0.2210 -0.0342
 8475W        W28009  11.046   0.555   2.104 -0.3316  0.1111 -0.0323
 8476W        W28010   3.954   3.863   0.292  0.0482 -0.1597  0.2259
 8477W        W28011   6.080  17.582   4.235  0.0570  0.0094  0.0002
 8478W        W28012   8.985   1.051  11.157  0.3187 -0.0478 -0.0660
 8479W        W28013  10.673  19.051   1.382  0.0043 -0.2345  0.2340
 8480W        W28014  12.615  14.930  11.094  0.2184 -0.1578 -0.3460
 8481W        W28015   5.109  18.753   0.613  0.1376 -0.1528 -0.5178
 8482W        W28016   8.733  11.080   0.272  0.2187 -0.2757  0.1224
 8483W        W28017  13.071  16.443  12.037 -0.2743  0.2476 -0.0065
 8484W        W28018  15.758  13.998  13.919  0.2154 -0.1004  0.0553
 8485W        W28019   5.304  15.505  10.945  0.1009  0.0506 -0.0995
 8486W        W28020  12.596  10.461  10.603  0.0255  0.0346 -0.3014
 8487W        W28021   0.681   4.370   2.677 -0.0341  0.0335  0.1607
 8488W        W28022   3.031   1.860   0.827  0.3490  0.1131  0.2942
 8489W        W28023  16.014  17.758  12.440 -0.1135 -0.0215 -0.0480
 8490W        W28024   1.513  11.081   1.632 -0.1246 -0.2458  0.1180
 8491W        W28025   8.726   3.916   3.840  0.2402 -0.2616 -0.0430
 8492W        W28026   3.584  17.836   1.863 -0.0023  0.0282 -0.1138
 8493W        W28027   4.844   9.253   1.526 -0.0355  0.0378  0.0946
 8494W        W28028  12.884   0.976  12.210 -0.0251  0.0009 -0.1770
 8495W        W28029   4.870  19.169   0.789  0.1524 -0.3421  0.3713
 8496W        W28030   4.570  12.296   3.681 -0.0126 -0.3815 -0.1831
 8497W        W28031  16.780  18.802  14.222  0.0649  0.3524  0.0978
 8498W        W28032   0.872   5.064   2.079 -0.0917 -0.2598 -0.0758
 8499W        W28033   6.271   8.449   2.483  0.0606 -0.2889  0.1197
 8500W        W28034  11.115   8.552   1.011 -0.1096 -0.4143  0.1078
 8501W        W28035   2.488   1.269  14.106  0.0099 -0.1599 -0.2648
 8502W        W28036  15.888  12.690   1.070  0.2169 -0.2479  0.1319
 8503W        W28037   9.295  18.854  10.076  0.0432 -0.1333  0.1071
 8504W        W28038   2.496  14.849   3.335 -0.1048  0.1984 -0.3696
 8505W        W28039   7.002  15.022   0.789 -0.0432 -0.0809  0.0771
 8506W        W28040   2.616   6.545  10.244  0.0721 -0.2938 -0.3071
 8507W        W28041  18.897   3.734   1.682  0.2380 -0.0282 -0.1352
 8508W        W28042   3.915  12.080   2.926 -0.0057 -0.4036 -0.1229
 8509W        W28043   6.386  12.939  11.522  0.2431 -0.1748  0.1669
 8510W        W28044  13.362   5.831  11.903  0.1944  0.0939  0.0581
 8511W        W28045  17.577   1.314  12.996 -0.2094 -0.2760  0.0060
 8512W        W28046  17.514  14.589  11.417  0.0060  0.1015  0.2590
 8513W        W28047   2.689  19.247  12.984  0.3192 -0.1449 -0.0366
 8514W        W28048  19.110  17.641  13.432  0.2992 -0.0885 -0.0536
 8515W        W28049  14.116   7.361  14.128 -0.2191  0.0230 -0.0395
 8516W        W28050  14.204   9.520   1.694  0.2193  0.2442 -0.1390
 8517W        W28051  16.592  19.009  12.603 -0.1041  0.3010  0.2467
 8518W        W28052   2.145   2.794  12.469 -0.2655 -0.1941  0.0315
 8519W        W28053   1.664   6.713   1.501 -0.1406  0.1580 -0.0963
 8520W        W28054   7.450  13.003   1.072  0.1220  0.0925 -0.1492
 8521W        W28055  15.196   5.564   2.989 -0.0548  0.1933 -0.0279
 8522W        W28056  10.080   7.904   2.751  0.2337  0.4601 -0.0017
 8523W        W28057   1.548  16.279  11.715 -0.0053  0.1413  0.1278
 8524W        W28058  14.097   3.211  13.120  0.0640 -0.2145  0.0703
 8525W        W28059   0.964  16.740  13.938 -0.1290 -0.0657  0.0548
 8526W        W28060  15.103   2.879  11.610 -0.0793 -0.0096  0.0912
 8527W        W28061  11.590   0.575  13.463  0.3475  0.0384 -0.0484
 8528W        W28062   2.663   9.137   0.336  0.0948 -0.1990 -0.2230
 8529W        W28063   3.366  11.587   0.348  0.2218  0.0902  0.0702
 8530W        W28064   2.234   4.110  12.560 -0.0890  0.0234 -0.0620
 8531W        W28065   6.306  11.984   4.608 -0.2127  0.1178  0.0721
 8532W        W28066  14.495   8.321  10.807 -0.1780  0.0474 -0.0454
 8533W        W28067   7.547  17.864  11.019 -0.0471 -0.1173  0.0408
 8534W        W28068  18.079  12.582  13.439  0.1388  0.1405 -0.0903
 8535W        W28069  13.869   7.663  11.738  0.1875  0.0781 -0.0335
 8536W        W28070  18.207   4.034  11.961  0.0802  0.1535  0.3485
 8537W        W28071   2.921   9.494  10.526 -0.2726  0.2199 -0.2094
 8538W        W28072  16.740   0.735  10.873  0.1050 -0.1474  0.1158
 8539W        W28073   8.594  18.025   2.208 -0.0203 -0.1441 -0.0429
 8540W        W28074   5.168  10.439  13.313  0.1533  0.3004  0.0020
 8541W        W28075  17.616  11.238  13.505 -0.3029  0.2037 -0.2697
 8542W        W28076   8.736   6.198  13.927  0.3547 -0.3869  0.0372
 8543W        W28077   3.093   9.279  11.969 -0.0466 -0.0374 -0.4331
 8544W        W28078  15.538   5.097   3.608 -0.0311  0.0199  0.1998
 8545W        W28079   3.898  10.219  11.582 -0.1258  0.0070  0.0488
 8546W        W28080   6.779   6.283  13.201  0.2458  0.1572  0.2330
 8547W        W28081  16.189  14.438  13.822  0.0558  0.0433 -0.0069
 8548W        W28082  13.101  15.987  13.047  0.0315  0.0474 -0.4937
 8549W        W28083   1.531  17.607  12.777 -0.1130  0.0624 -0.0895
 8550W        W28084   7.148  13.038  13.334 -0.0024 -0.1259  0.0214
 8551W        W28085   8.548   9.324  12.532 -0.2316  0.2260 -0.2070
 8552W        W28086  16.306  18.009   1.594 -0.1094  0.1654 -0.0195
 8553W        W28087   3.780   0.787  11.314  0.1270  0.0233  0.3993
 8554W        W28088   9.485  10.697   3.639 -0.0786 -0.0636 -0.1473
 8555W        W28089   3.884  18.769  10.440  0.0675 -0.0836  0.0999
 8556W        W28090  13.435  17.655   2.513  0.0842 -0.0765  0.1107
 8557W        W28091   5.513   7.369  12.826  0.1768 -0.1469  0.2674
 8558W        W28092   8.106   6.255   2.623 -0.0207  0.1740  0.1299
 8559W        W28093  13.099  18.787  10.547 -0.0111  0.3105  0.1247
 8560W        W28094   1.965  16.452   9.534 -0.1647  0.1237  0.0974
 8561W        W28095  17.417  11.213   3.524 -0.1119  0.2973  0.0466
 8562W        W28096  16.138   7.852  13.175 -0.0494  0.0569 -0.0519
 8563W        W28097  12.254  10.487  13.158  0.3728  0.3140 -0.0989
 8564W        W28098   8.632   4.366  14.086  0.0464 -0.4420 -0.1642
 8565W        W28099   4.622  18.763   1.336 -0.0357  0.0787  0.1371
 8566W        W28100   7.133   5.008   2.016 -0.0600  0.0255  0.0861
 8567W        W28101   4.524   2.774   3.232 -0.1246  0.2311 -0.1261
 8568W        W28102   3.653  11.354  10.930  0.4199  0.1014 -0.0593
 8569W        W28103  13.450   4.393   0.981 -0.2350 -0.0072 -0.0251
 8570W        W28104   6.771   4.776  10.910 -0.0006  0.2520  0.1289
 8571W        W28105  12.674   4.532   2.004  0.1332 -0.0499 -0.2049
 8572W        W28106   8.667   7.518  14.047  0.1349 -0.0702  0.1945
 8573W        W28107  15.927   5.959  12.906  0.1874 -0.0419 -0.0419
 8574W        W28108   5.372  15.006   0.922  0.5004 -0.0391  0.1478
 8575W        W28109   1.475  16.689  14.182 -0.0683  0.0926 -0.2334
 8576W        W28110   3.734   7.200  12.031  0.1056 -0.3790 -0.1678
 8577W        W28111   7.759  11.784   1.196 -0.0625  0.0335 -0.0063
 8578W        W28112  12.294  15.102  11.433  0.1650 -0.0076  0.0796
 8579W        W28113  19.397   0.331  12.543 -0.0303 -0.1352  0.0578
 8580W        W28114  10.722   7.903   0.421  0.3052  0.1933 -0.0466
 8581W        W28115  12.839  16.938  11.812  0.0881  0.0256  0.0911
 8582W        W28116   3.065  18.379   1.491 -0.4954 -0.1427  0.1420
 8583W        W28117   9.215  10.010   3.022 -0.0606  0.1433  0.0549
 8584W        W28118  17.490  14.198   4.014 -0.1983 -0.1796 -0.1796
 8585W        W28119   0.113  10.018   4.070 -0.2263 -0.2258 -0.2779
 8586W        W28120   0.033  18.292   0.896 -0.1134  0.4071 -0.0088
 8587W        W28121  14.857   0.148  10.562  0.3018  0.1788 -0.0181
 8588W        W28122  11.532   0.885  11.722  0.1016 -0.1080 -0.1211
 8589W        W28123   3.300   2.663   1.475 -0.1723  0.0395  0.3990
 8590W        W28124   5.639   1.628  13.594  0.4272 -0.0951 -0.1965
 8591W        W28125  10.217   8.846   2.255 -0.0059 -0.0400  0.3541
 8592W        W28126   0.404  18.539   2.444  0.1383 -0.0569 -0.4910
 8593W        W28127  15.305   4.572   2.041 -0.0394  0.0748 -0.0353
 8594W        W28128  13.280   6.071  12.862 -0.2585  0.2132  0.0858
 8595W        W28129  15.132   4.214  12.772  0.0774 -0.2594  0.2139
 8596W        W28130   5.207   8.893   1.672 -0.0479  0.3581  0.0526
 8597W        W28131  12.795   6.069   3.080 -0.3669  0.1603  0.1032
 8598W        W28132  13.187   2.993  12.808 -0.0108 -0.1138  0.2972
 8599W        W28133  19.499   2.071  12.124  0.0148  0.2785 -0.1519
 8600W        W28134  18.233   5.807   3.336  0.0397  0.3615 -0.3411
 8601W        W28135  16.529   9.497   3.386  0.0543 -0.1831 -0.0491
 8602W        W28136  16.758   4.096  13.090 -0.0254 -0.0954 -0.0515
 8603W        W28137  18.117   3.475  12.811 -0.1482  0.2278  0.2665
 8604W        W28138   9.354  11.952   3.014 -0.1129 -0.4721 -0.2173
 8605W        W28139  17.839   1.618  12.615  0.3484 -0.0853  0.0861
 8606W        W28140  12.478  15.138   2.217 -0.1354  0.1213  0.0571
 8607W        W28141   5.693  14.716   2.765 -0.2526 -0.2570 -0.2223
 8608W        W28142  12.758  13.878  12.973 -0.2757 -0.3780  0.0542
 8609W        W28143  12.908   0.332   0.584 -0.0774  0.0341  0.0897
 8610W        W28144  14.716   6.038   2.405  0.0401  0.0382 -0.1621
 8611W        W28145   4.002   6.305  14.374  0.4165  0.3848  0.0828
 8612W        W28146   3.246   6.058  10.915  0.1026  0.1680 -0.0486
 8613W        W28147  15.388   4.426  12.336 -0.0308  0.0040 -0.2192
 8614W        W28148  13.109   0.125  11.281 -0.0581 -0.2489 -0.0356
 8615W        W28149   6.641   5.536  10.040  0.2242  0.0169  0.2155
 8616W        W28150   3.134   9.605  13.965 -0.1955 -0.1310  0.0016
 8617W        W28151   6.852  10.483   0.392  0.1033 -0.4092  0.0906
 8618W        W28152  14.356   7.917   1.146 -0.0342  0.2045  0.2560
 8619W        W28153   6.691  19.113  12.299  0.1132 -0.2933  0.3325
 8620W        W28154  10.100   1.092   1.905  0.1288 -0.0345 -0.0421
 8621W        W28155  10.005  15.380  13.546 -0.0351  0.2017 -0.2071
 8622W        W28156  10.947   1.792  11.077  0.0487  0.0520  0.0969
 8623W        W28157   1.815  14.643  12.304  0.0299 -0.1681 -0.0477
 8624W        W28158   8.198   3.519  14.287  0.1673 -0.0417 -0.0524
 8625W        W28159   6.733  16.696  10.994  0.3265  0.0083 -0.4291
 8626W        W28160  17.907  12.653   0.454  0.0730  0.1110 -0.1284
 8627W        W28161   0.034  16.364   3.304 -0.3530 -0.2578 -0.1723
 8628W        W28162   2.435   6.128   3.555  0.0133  0.4483 -0.0888
 8629W        W28163  14.945  10.648   1.892 -0.1770 -0.2305 -0.2341
 8630W        W28164  15.137  11.866  11.380  0.4610 -0.0057 -0.0223
 8631W        W28165  10.853  14.557   2.979  0.1991  0.1523 -0.1802
 8632W        W28166  17.012   3.812   1.289  0.1967  0.0510 -0.2321
 8633W        W28167   8.557   8.143   0.422  0.0382 -0.3325  0.0153
 8634W        W28168  18.754   8.190   2.162  0.1122 -0.0176  0.0362
 8635W        W28169   5.987  10.323   2.469  0.0213  0.0665 -0.0882
 8636W        W28170  11.076   2.797   1.562 -0.0388  0.2331 -0.2437
 8637W        W28171   9.162   9.230  11.195 -0.0630 -0.0630  0.0353
 8638W        W28172  12.947  16.938   4.464 -0.4684  0.2034  0.0290
 8639W        W28173  11.847   1.165   4.663  0.1101 -0.1891 -0.0627
 8640W        W28174  12.190  10.047   2.085  0.0653 -0.2481 -0.0124
 8641W        W28175   6.698   5.138  11.442 -0.1161 -0.0297 -0.2020
 8642W        W28176   3.963   4.338  10.037  0.0453 -0.1405  0.0398
 8643W        W28177  18.285   0.102  12.333 -0.1281 -0.4472  0.0606
 8644W        W28178   5.017   2.391   9.011 -0.0629  0.1156  0.1292
 8645W        W28179  19.039   9.132   3.303 -0.1102 -0.2519 -0.2502
 8646W        W28180   0.422   9.924  14.274  0.0526 -0.1949 -0.1920
 8647W        W28181  16.422  10.010  12.435 -0.3029  0.0531  0.1446
 8648W        W28182  13.727   1.206   0.866 -0.0632 -0.3077 -0.4019
 8649W        W28183  11.242   2.086   3.290  0.1305  0.1072 -0.2338
 8650W        W28184  18.155  15.236  10.822 -0.5285 -0.2445  0.1467
 8651W        W28185  16.791   1.152  12.586 -0.0582 -0.0693  0.1543
 8652W        W28186   1.601  19.072  12.381 -0.0467  0.0121  0.0764
 8653W        W28187   8.830  14.188   1.370 -0.0678 -0.2722  0.2336
 8654W        W28188  17.131  12.910  14.208 -0.3538  0.0321 -0.2510
 8655W        W28189   1.443  15.057   3.850 -0.3774  0.1931 -0.0121
 8656W        W28190  16.308   1.763  12.620 -0.2264 -0.0453 -0.1452
 8657W        W28191   2.559   9.626  13.319  0.0981  0.1241  0.2156
 8658W        W28192  12.872   8.429   3.965 -0.2664 -0.0229  0.1622
 8659W        W28193   9.340   0.008   3.843 -0.0657  0.1988 -0.2050
 8660W        W28194   3.129  11.363   3.734 -0.0615  0.0160  0.0417
 8661W        W28195   5.177  17.455   1.730 -0.5498 -0.2900  0.0780
 8662W        W28196   9.127  13.100   0.180  0.0184  0.0109  0.0340
 8663W        W28197  14.329   7.124   2.481 -0.0761  0.3815  0.2482
 8664W        W28198   6.850   4.828   0.243  0.0404 -0.0043  0.2362
 8665W        W28199   6.609  18.580  13.170  0.2316 -0.0745 -0.1948
 8666W        W28200   3.350  14.985   0.857 -0.0989 -0.2207  0.2125
 8667W        W28201   2.184   8.502   2.400  0.1342 -0.1689  0.0138
 8668W        W28202  14.233  14.332  12.067 -0.0216  0.3630  0.0763
 8669W        W28203  14.671   9.257  12.775  0.2639 -0.0760  0.0969
 8670W        W28204  15.335   5.583   1.300  0.0696 -0.0371 -0.0951
 8671W        W28205   7.503   6.951  11.922  0.2060 -0.0773 -0.3119
 8672W        W28206  11.472   2.922   2.255  0.1447  0.0908 -0.3738
 8673W        W28207  19.124   0.462  11.181 -0.2032  0.1443 -0.1500
 8674W        W28208  16.126  15.263   1.226 -0.2625  0.0103  0.0683
 8675W        W28209   5.246  10.124   2.813  0.0446  0.0930  0.3846
 8676W        W28210   9.743  12.751   0.852  0.0680  0.0944 -0.1690
 8677W        W28211  15.379   6.735  12.650  0.1429 -0.1774 -0.1310
 8678W        W28212  13.545   6.165   0.545  0.1695 -0.1753  0.2257
 8679W        W28213  16.657   3.160  12.679  0.1182  0.3277 -0.0457
 8680W        W28214  18.187   9.725  13.364  0.1834  0.3328 -0.0589
 8681W        W28215   3.650   9.116  13.712  0.1930  0.0959  0.1590
 8682W        W28216  18.018  18.590   2.433  0.3999 -0.0930 -0.3541
 8683W        W28217  16.398  14.287   5.023  0.0665 -0.2586 -0.1787
 8684W        W28218  12.415   5.790  13.067  0.0403  0.0087  0.1206
 8685W        W28219  15.340  16.444   2.937  0.1802 -0.0765 -0.1892
 8686W        W28220   9.267  12.621  10.658  0.1109 -0.2336  0.1670
 8687W        W28221   6.269  17.665  12.895  0.0294  0.3129 -0.1379
 8688W        W28222   1.357  10.253   2.126  0.1464  0.0840 -0.2327
 8689W        W28223   5.355  10.145   3.982 -0.3906 -0.1082 -0.2456
 8690W        W28224  10.839   4.040  12.602  0.2860  0.0655  0.1926
 8691W        W28225  15.646   1.087  11.253 -0.0074 -0.1194 -0.0322
 8692W        W28226  18.645  11.331   0.232 -0.2202  0.1318  0.1492
 8693W        W28227   9.616  14.358   3.965  0.0852  0.0099  0.0382
 8694W        W28228  13.083   4.727  13.678 -0.0062  0.0633  0.1212
 8695W        W28229   6.329  10.895   0.565  0.2043  0.1916 -0.0785
 8696W        W28230  14.633   8.365  13.158  0.0545  0.2787  0.0431
 8697W        W28231   8.376  18.968  12.040 -0.0142 -0.5117  0.1610
 8698W        W28232   8.100  14.823   0.496  0.2908 -0.0809 -0.1375
 8699W        W28233   6.765  12.003  12.499  0.0140 -0.3149 -0.0527
 8700W        W28234   1.045   3.604  12.229  0.1262  0.0349 -0.0586
 8701W        W28235   1.081  16.302  12.036  0.0153 -0.0209  0.2148
 8702W        W28236   0.538   0.335   0.938 -0.1146  0.1522 -0.1205
 8703W        W28237  10.247  14.885   1.585 -0.1019  0.0787 -0.2112
 8704W        W28238  13.339   9.265  12.617  0.3697 -0.3262 -0.0898
 8705W        W28239   6.888  17.440  10.386 -0.1773 -0.2060  0.1087
 8706W        W28240  15.141  18.497  10.013 -0.2590  0.1317 -0.3249
 8707W        W28241   3.078   6.290   0.465 -0.1906  0.0134 -0.0596
 8708W        W28242   1.451  14.716  10.802  0.5641  0.1470 -0.1307
 8709W        W28243   3.330   5.019   3.938  0.0819 -0.2570 -0.0315
 8710W        W28244  14.108   0.382  12.265 -0.1509 -0.0775  0.3388
 8711W        W28245  15.689  15.859  13.376  0.0497  0.0882  0.0861
 8712W        W28246  17.995   6.032  12.736 -0.3034 -0.3010  0.1272
 8713W        W28247  17.589  17.014   0.186 -0.0444  0.1482 -0.0179
 8714W        W28248  17.853  15.815   1.495  0.0937  0.3443 -0.2218
 8715W        W28249  13.805   6.074  12.783 -0.0299 -0.0691 -0.2131
 8716W        W28250   2.698  15.447  13.373 -0.0180  0.1946  0.4225
 8717W        W28251   1.038   1.681  14.344  0.2840 -0.1893 -0.1794
 8718W        W28252  14.325   7.921  13.189 -0.1280 -0.4957  0.0300
 8719W        W28253   6.270   4.110  11.117 -0.0848  0.0302 -0.2233
 8720W        W28254   8.516  15.758   1.329 -0.0619  0.3308  0.0506
 8721W        W28255   2.681   4.472   1.737  0.1788 -0.1476 -0.0067
 8722W        W28256   6.815  14.837   3.877  0.2703 -0.0296  0.0416
 8723W        W28257  16.652  13.511   2.869 -0.3946 -0.0744 -0.1126
 8724W        W28258   1.404   1.000  12.394  0.3294  0.2028  0.2259
 8725W        W28259   5.665  15.804  13.684  0.0509  0.4024 -0.1066
 8726W        W28260  12.291  10.642   2.170 -0.4040  0.0671  0.0718
 8727W        W28261   8.523  14.495   1.137 -0.0759  0.0940 -0.0347
 8728W        W28262   9.658   3.427  11.427  0.0880  0.0978  0.2705
 8729W        W28263   1.035  14.998  10.779 -0.1697 -0.1508  0.1023
 8730W        W28264   3.104   6.779  12.566  0.0301 -0.3762  0.1609
 8731W        W28265  18.422  15.890  14.224 -0.1936  0.0755 -0.2012
 8732W        W28266   7.049   3.224  12.497  0.0156  0.3895 -0.1947
 8733W        W28267   6.829  15.287  13.719 -0.3558 -0.3249  0.0095
 8734W        W28268  11.014   9.351   9.583  0.1158 -0.0194 -0.2425
 8735W        W28269  14.920   8.447  12.574  0.1088 -0.1976 -0.0683
 8736W        W28270  16.522   8.626  13.103 -0.2050 -0.3304  0.0073
 8737W        W28271  17.880  16.047  10.117  0.0643  0.0146 -0.1700
 8738W        W28272   0.758   7.379   0.929 -0.1883 -0.0552 -0.4111
 8739W        W28273  10.049  16.807   3.302  0.0055 -0.2725  0.1072
 8740W        W28274  16.866  17.276   1.570  0.2299  0.1937  0.1088
 8741W        W28275  18.127   0.907   3.750  0.2749  0.3962 -0.1739
 8742W        W28276   5.347   1.091   3.165 -0.2874  0.2454 -0.0794
 8743W        W28277   4.510   0.144  12.577  0.2551  0.2729 -0.1671
 8744W        W28278  19.348   7.539  12.445  0.0202 -0.4364  0.0885
 8745W        W28279  14.914   8.060  10.673  0.0763 -0.0125  0.0033
 8746W        W28280   4.143  14.153   3.253  0.1680 -0.1885 -0.1633
 8747W        W28281   3.234   4.064   2.848 -0.1518 -0.2431  0.0388
 8748W        W28282  17.075   5.940  11.170  0.1834  0.0717 -0.0464
 8749W        W28283   4.445   9.519   4.389  0.0643  0.1163 -0.0811
 8750W        W28284   4.428   9.738  12.743  0.1144  0.0898 -0.0625
 8751W        W28285  17.666   8.763  11.826  0.1192 -0.1959  0.1129
 8752W        W28286  10.881   6.259   0.351  0.0195 -0.1681  0.2434
 8753W        W28287   4.161  18.431  12.296 -0.2470 -0.0209 -0.6343
 8754W        W28288   1.048  13.450  13.398 -0.0055  0.1773  0.2843
 8755W        W28289  13.395   4.322   1.886 -0.0265  0.0063 -0.1796
 8756W        W28290   3.479   5.287  13.164  0.1770  0.2688 -0.1110
 8757W        W28291   5.156  17.476   4.458 -0.1190 -0.0704  0.1156
 8758W        W28292  18.298   1.470  12.379  0.0433 -0.0792  0.2243
 8759W        W28293  12.432   8.294   2.350  0.3093 -0.1054 -0.0632
 8760W        W28294   9.075  17.808   3.250  0.0208  0.2061  0.0995
 8761W        W28295  13.329   9.622  10.831 -0.0853  0.2777 -0.0670
 8762W        W28296   1.179   8.292  13.814 -0.1409 -0.0992  0.0696
 8763W        W28297  14.775  11.465  10.499 -0.2219 -0.0968  0.3430
 8764W        W28298  12.085  16.102   2.931 -0.0117 -0.0630 -0.0640
 8765W        W28299   8.247  17.651   3.934 -0.0275 -0.1414 -0.0278
 8766W        W28300   5.763  19.350   0.625  0.0321  0.0326 -0.3012
 8767W        W28301   4.860   1.351   0.028 -0.2332 -0.1720 -0.1015
 8768W        W28302  10.839  15.765  10.467 -0.4538 -0.0381 -0.0516
 8769W        W28303  10.494   7.783   3.730  0.1435  0.1147 -0.2149
 8770W        W28304   5.612   9.301   0.351 -0.1460  0.0506 -0.0455
 8771W        W28305  16.152   4.912   2.388 -0.1435 -0.0754 -0.1762
 8772W        W28306  11.047   4.960  11.215  0.1224  0.0407  0.0724
 8773W        W28307   7.423  17.052  12.582  0.1876  0.4426  0.2142
 8774W        W28308  14.594  12.928   2.983 -0.0669  0.1872  0.2561
 8775W        W28309   9.419   3.271  10.512 -0.3355 -0.4460  0.2159
 8776W        W28310  13.419  11.438   1.436  0.0148  0.0113  0.1124
 8777W        W28311  17.232   6.162  13.204 -0.1571  0.2373 -0.0257
 8778W        W28312   8.274   7.704  12.273 -0.1257  0.1234 -0.0306
 8779W        W28313   6.670   1.355  12.603  0.0972 -0.0198  0.1672
 8780W        W28314   4.052  17.093   2.254  0.0590 -0.2024  0.0123
 8781W        W28315  16.094  14.262   1.062 -0.0120  0.0860 -0.0600
 8782W        W28316   3.712   5.541  11.492 -0.2046  0.0721  0.1123
 8783W        W28317   6.299   6.826   0.504 -0.1932 -0.2826 -0.3863
 8784W        W28318   5.565  19.238   2.841 -0.0742  0.1607 -0.2702
 8785W        W28319   4.497   4.832   3.669  0.1034 -0.1082 -0.3672
 8786W        W28320  13.566  18.055   1.938 -0.0684  0.0869 -0.0212
 8787W        W28321   8.851   2.027  13.433  0.0753  0.1462 -0.1059
 8788W        W28322  12.706  13.966   4.499  0.0194  0.4167  0.0543
 8789W        W28323   4.642  16.362   0.092 -0.0596 -0.0988  0.2800
 8790W        W28324  17.594   0.302  10.419 -0.2261 -0.0417  0.1136
 8791W        W28325  15.658   3.092  10.358  0.2609 -0.0127  0.1804
 8792W        W28326   5.825   0.559   1.053  0.1179 -0.0201  0.2887
 8793W        W28327   4.693  18.635  11.103  0.0894 -0.1687  0.0901
 8794W        W28328  13.442  15.494   2.336  0.5275  0.0174  0.3623
 8795W        W28329   9.764   3.724   2.177 -0.1668  0.0708 -0.0746
 8796W        W28330  10.581  10.895  11.904  0.3286 -0.2421 -0.1591
 8797W        W28331  11.288   6.121  13.301  0.0627 -0.0007 -0.0254
 8798W        W28332   3.376   2.090  10.459  0.1040  0.0695  0.1221
 8799W        W28333  18.321  17.406   3.450  0.0418  0.1758  0.3227
 8800W        W28334   3.670   9.632   3.372  0.0778 -0.2862 -0.1023
 8801W        W28335   0.163  12.700   1.388 -0.2176 -0.0647  0.0194
 8802W        W28336  11.511  14.193   0.129 -0.1738  0.0688  0.2696
 8803W        W28337  10.418  17.048  12.918  0.0477 -0.1575 -0.0697
 8804W        W28338  11.032  17.308  11.663 -0.0183 -0.1099 -0.3740
 8805W        W28339   6.484   1.609   2.753  0.2209 -0.1834  0.3415
 8806W        W28340   8.956   2.776   3.508 -0.2255  0.2589 -0.3180
 8807W        W28341  19.031   7.562  13.042  0.0711  0.0398 -0.0138
 8808W        W28342  19.030  15.515   9.964  0.0589  0.1481  0.0096
 8809W        W28343  13.148  19.049   2.712 -0.2032  0.0618 -0.1987
 8810W        W28344  15.436   6.536  14.238 -0.0263 -0.2322 -0.3860
 8811W        W28345   6.157   2.369   0.834  0.1070  0.0020  0.0737
 8812W        W28346  14.480   7.389   1.198 -0.2216 -0.1106  0.2571
 8813W        W28347   7.099  12.304   2.723  0.0312 -0.1910 -0.0216
 8814W        W28348   1.029  17.236  11.624  0.3173  0.0009 -0.0573
 8815W        W28349  11.514   7.202   2.263 -0.3065  0.2790  0.1914
 8816W        W28350  17.377   5.075  10.124 -0.1261 -0.1547  0.0174
 8817W        W28351   0.205  19.439   0.023  0.0379  0.1525 -0.0372
 8818W        W28352   2.289  10.844   0.401 -0.0845 -0.0188  0.1355
 8819W        W28353  14.241  18.543  10.945 -0.4357 -0.1806 -0.2593
 8820W        W28354   7.113   7.006  13.264  0.0993 -0.0119 -0.1492
 8821W        W28355   9.306  13.646  13.557 -0.1234  0.3611 -0.1479
 8822W        W28356   6.749  14.541  14.323  0.0753  0.2260 -0.1768
 8823W        W28357  12.651   7.602   4.622 -0.0485  0.0396  0.3089
 8824W        W28358   6.834   8.561   0.396 -0.0759  0.3846  0.1389
 8825W        W28359   5.423   7.064   4.177 -0.2303 -0.0495  0.3041
 8826W        W28360   3.300   7.779   2.974  0.0102  0.0476  0.2237
 8827W        W28361  16.424   1.917   3.384  0.0003 -0.0565 -0.1325
 8828W        W28362  11.387  16.999  11.514  0.0696  0.3708 -0.0738
 8829W        W28363  12.623   6.119   0.597 -0.3177 -0.1349  0.1242
 8830W        W28364  10.580   0.479   1.685 -0.0528  0.1559 -0.0190
 8831W        W28365   9.957  12.425   9.992  0.2106 -0.0461 -0.2560
 8832W        W28366  15.718   5.765   0.694  0.4565  0.0051  0.3796
 8833W        W28367   1.930   1.041  12.333 -0.0140 -0.0010 -0.0307
 8834W        W28368  11.410   1.268   0.433 -0.3687  0.2224 -0.1425
 8835W        W28369   0.075  10.662   2.709 -0.2799 -0.1175  0.0027
 8836W        W28370  18.056   4.729   2.863 -0.1553  0.2039 -0.4546
 8837W        W28371   6.126  17.227  13.792 -0.0827  0.1529  0.2139
 8838W        W28372   0.949   9.197  13.904 -0.0686  0.1031  0.1188
 8839W        W28373   0.724   9.788   2.259 -0.0079  0.0002 -0.1959
 8840W        W28374  18.872  14.954   3.410  0.2515  0.4566  0.0224
 8841W        W28375  18.093   2.388   2.785  0.0161 -0.4000 -0.0308
 8842W        W28376   4.273   7.618   0.109 -0.1152 -0.0984 -0.1269
 8843W        W28377   3.765   3.959   2.793  0.1276  0.0682 -0.1130
 8844W        W28378  11.124  11.564   0.937  0.0227  0.0131 -0.0648
 8845W        W28379  15.071   3.798  11.267  0.0989 -0.2350 -0.0013
 8846W        W28380   2.687   9.611  11.423 -0.2734  0.0603  0.0862
 8847W        W28381  16.797  15.672  13.891  0.0173  0.0040 -0.0500
 8848W        W28382  13.094  19.264  13.350  0.1789  0.1820 -0.0187
 8849W        W28383  11.962  11.586   0.433  0.0567 -0.0017  0.1344
 8850W        W28384  16.488  17.642  10.286 -0.0421 -0.0572 -0.2849
 8851W        W28385   4.010   6.940  13.389 -0.1436 -0.0146  0.0460
 8852W        W28386  10.804   1.762   0.147  0.2062  0.2645 -0.1542
 8853W        W28387  16.229   3.349  13.827  0.1817 -0.2330 -0.1231
 8854W        W28388  15.579  13.602   3.072 -0.2682  0.3077 -0.1924
 8855W        W28389  11.055   5.042   1.456  0.0982  0.3845  0.0994
 8856W        W28390  15.604  16.387   1.232  0.0773  0.1974 -0.0762
 8857W        W28391  14.666  16.069   1.616 -0.1609 -0.1223 -0.0695
 8858W        W28392   6.045  13.327  10.732  0.0639  0.0733 -0.1632
 8859W        W28393  11.843   4.340  11.594  0.2833  0.1315 -0.3082
 8860W        W28394  12.427   3.888   2.006 -0.0004 -0.1441  0.0263
 8861W        W28395   1.658   3.487   2.196  0.0033 -0.1122  0.3749
 8862W        W28396   9.043   4.512  10.958 -0.0151 -0.1524  0.0996
 8863W        W28397   4.805  14.320   4.116  0.0164  0.0457  0.1633
 8864W        W28398  10.250  15.247   1.954 -0.0387  0.5677  0.0399
 8865W        W28399   3.530   6.169  13.750 -0.1345 -0.1198  0.1564
 8866W        W28400  11.211  17.308   9.958  0.0294  0.0818 -0.2635
 8867W        W28401  11.448  17.205   0.653 -0.1491  0.2903  0.0648
 8868W        W28402  10.230   5.301   5.099  0.1996 -0.1078 -0.0533
 8869W        W28403   8.687  10.271  11.008 -0.3096 -0.1206 -0.3078
 8870W        W28404   2.670  10.502   4.710 -0.1877  0.2964 -0.0298
 8871W        W28405   7.045  13.450  12.629 -0.0080  0.1199  0.2140
 8872W        W28406  11.144   4.531   4.054 -0.0520 -0.2626  0.0995
 8873W        W28407   7.448  11.082   1.437 -0.0313 -0.2129 -0.0798
 8874W        W28408   7.562   6.966  13.536 -0.1672  0.0304  0.3424
 8875W        W28409  18.256   9.805  10.465  0.1862 -0.0632 -0.0125
 8876W        W28410  18.423  10.760  11.347 -0.3004 -0.1336 -0.0593
 8877W        W28411  10.504  18.920  13.003  0.2455 -0.2297 -0.0733
 8878W        W28412  13.120   6.574  11.747 -0.3236  0.2593 -0.1802
 8879W        W28413  14.831   1.322  13.381  0.2204  0.0475  0.1585
 8880W        W28414   3.131   7.372  13.687 -0.2118 -0.1113 -0.1940
 8881W        W28415   6.475   3.395  12.296  0.1967  0.2218 -0.1300
 8882W        W28416  12.084  13.173   3.900 -0.2204  0.0733 -0.0429
 8883W        W28417  17.517   8.568  11.287 -0.2895 -0.1948  0.0896
 8884W        W28418  14.977  18.577  12.669 -0.2235 -0.0577 -0.1894
 8885W        W28419  12.635  16.689  13.333  0.2432  0.1429  0.1373
 8886W        W28420   5.535   5.083  14.365  0.2837 -0.3429 -0.0374
 8887W        W28421  18.129   1.036   2.647 -0.1934 -0.2458  0.0152
 8888W        W28422  15.059  14.185  11.664  0.1610 -0.0059  0.2932
 8889W        W28423   5.453  10.123   4.495  0.5057  0.0872 -0.1930
 8890W        W28424   7.584  10.005   1.444 -0.0407 -0.0412  0.1592
 8891W        W28425   0.529   6.846  13.774 -0.2108  0.0987  0.0466
 8892W        W28426  11.099   7.834  10.485  0.1222  0.2117  0.2475
 8893W        W28427   3.337  11.298  14.023 -0.0903 -0.0525 -0.0038
 8894W        W28428  15.048  19.128   3.222 -0.0021  0.0046 -0.0526
 8895W        W28429   5.831   8.645   2.695 -0.0048 -0.1005 -0.0885
 8896W        W28430   2.826   1.003  13.348 -0.0566 -0.2009  0.2432
 8897W        W28431   9.964   1.655   3.030 -0.1660 -0.2246 -0.0236
 8898W        W28432   9.992  18.683   4.583  0.0628 -0.0389 -0.1106
 8899W        W28433  12.309   3.389   1.980  0.3262 -0.1617 -0.2990
 8900W        W28434  13.299  14.937   2.407  0.2227 -0.1983 -0.2297
 8901W        W28435  17.972  10.622  11.370  0.2169  0.1041 -0.3118
 8902W        W28436  19.293   1.381  11.536  0.3015  0.0329 -0.2348
 8903W        W28437   4.974   7.551   2.408 -0.0205 -0.0269  0.1895
 8904W        W28438   7.591   7.210  13.951  0.3048  0.0803  0.0668
 8905W        W28439   6.958   2.159   1.137 -0.1574  0.2328  0.0803
 8906W        W28440  18.846   5.890   3.277  0.0600  0.3398 -0.2296
 8907W        W28441   8.955   3.551   2.914  0.3165  0.0975  0.0274
 8908W        W28442   2.550  15.476   0.829  0.1927  0.0344 -0.1801
 8909W        W28443   6.719   9.046  11.940  0.1799 -0.2801 -0.0391
 8910W        W28444  12.467   1.768   3.533  0.0522  0.2510  0.0057
 8911W        W28445   4.716   4.411   3.935  0.3012  0.1854 -0.2055
 8912W        W28446  16.862   3.356   3.099  0.0925 -0.1910  0.2207
 8913W        W28447  15.014   9.369   2.007 -0.2279  0.2524 -0.0945
 8914W        W28448   3.736   4.345  12.059  0.0862 -0.2669  0.1621
 8915W        W28449   9.229   2.470  11.124  0.0446  0.0090 -0.1139
 8916W        W28450  14.601  10.998   1.080 -0.0374  0.1250  0.0708
 8917W        W28451  18.431  13.545   4.073 -0.1757 -0.1877  0.4215
 8918W        W28452   5.100  17.932   4.184 -0.1629  0.1424  0.0908
 8919W        W28453   6.039   1.846  13.771  0.2468  0.1664  0.3174
 8920W        W28454   5.820  10.341   0.784 -0.1879  0.0828  0.0719
 8921W        W28455   7.172  18.369   2.201  0.0412  0.0130  0.0565
 8922W        W28456  17.109  13.796  10.310  0.1182 -0.0704  0.0709
 8923W        W28457  14.571  19.105   0.521 -0.1863  0.0451 -0.2726
 8924W        W28458  16.550  10.207   1.170 -0.1040 -0.1255 -0.3953
 8925W        W28459   2.768  12.670   0.675  0.2818 -0.0420  0.0150
 8926W        W28460   9.945   6.962   0.531 -0.1345 -0.2006  0.2616
 8927W        W28461  17.017  18.628   0.278 -0.3659  0.1483 -0.2289
 8928W        W28462   6.532   6.390  12.106 -0.0317 -0.1838 -0.1491
 8929W        W28463   2.990   4.380  10.599 -0.1640  0.1752  0.1492
 8930W        W28464   8.545   4.918  14.071 -0.0350  0.0086  0.1694
 8931W        W28465  12.016  17.111   2.843  0.1359  0.2866 -0.0084
 8932W        W28466   1.041   6.610  11.631  0.0922 -0.1643 -0.2075
 8933W        W28467  16.173   1.969  13.640  0.1192 -0.0339 -0.4791
 8934W        W28468  13.559  19.291   3.929 -0.2078  0.3297 -0.0303
 8935W        W28469  12.506   4.508   0.010  0.1263  0.2153  0.0484
 8936W        W28470   8.490   2.422  10.943  0.0582 -0.2960  0.2278
 8937W        W28471   1.021   7.725  12.574  0.3221  0.0800 -0.1978
 8938W        W28472   4.589   6.206   0.461 -0.1206 -0.0221 -0.1451
 8939W        W28473   4.169   0.836  13.753 -0.1853  0.1390 -0.0866
 8940W        W28474   2.792  19.383   0.387  0.0934 -0.0619  0.0009
 8941W        W28475   6.734  13.127  10.746  0.1631  0.0390 -0.3424
 8942W        W28476  16.402   4.046   1.996  0.1423 -0.1733  0.1417
 8943W        W28477   7.366  13.826  13.591  0.4167 -0.0010  0.0244
 8944W        W28478   3.907   1.687  10.373 -0.1109 -0.0886 -0.0528
 8945W        W28479   0.294  17.732  14.099  0.1786 -0.0217  0.3869
 8946W        W28480   6.057   7.774   4.162 -0.0879 -0.0552 -0.1618
 8947W        W28481   1.527  12.033  11.932 -0.1371  0.2674 -0.2490
 8948W        W28482   7.818   4.142  13.643 -0.1935 -0.2401 -0.1036
 8949W        W28483   3.533   6.489  13.306 -0.1903  0.2815  0.1431
 8950W        W28484  10.938  10.648  12.396 -0.1672  0.0429 -0.0449
 8951W        W28485  17.359   1.696   2.319  0.1407  0.1123 -0.0773
 8952W        W28486  11.830   7.543  11.499 -0.3139  0.1812 -0.1232
 8953W        W28487   1.099  17.434   1.184  0.1223 -0.0265 -0.0431
 8954W        W28488   0.374   3.998  13.273  0.1053  0.2948  0.3325
 8955W        W28489  12.987  17.888   2.339 -0.0584 -0.0326 -0.6063
 8956W        W28490   8.088   6.735   0.549  0.1259 -0.1355 -0.1283
 8957W        W28491  16.285  16.772  12.153  0.0814  0.1693 -0.3997
 8958W        W28492   1.483   8.055   3.772 -0.1179 -0.2106 -0.0089
 8959W        W28493   4.214  11.779   2.111 -0.3733  0.0919 -0.1656
 8960W        W28494   8.246   2.130   3.184  0.1658 -0.1795 -0.3122
 8961W        W28495   8.160   8.231   2.838  0.2193 -0.0245  0.3483
 8962W        W28496  11.715  10.651  12.994  0.0666 -0.2024 -0.3857
 8963W        W28497   8.526  12.457   1.228 -0.0842  0.2764 -0.2101
 8964W        W28498  13.545   5.614   0.542 -0.5160 -0.0917  0.1444
 8965W        W28499  10.682   5.319  14.028  0.2087  0.1176 -0.0795
 8966W        W28500   1.241   9.847   0.633  0.0436 -0.0276 -0.0285
 8967W        W28501  15.044   5.171   3.371 -0.0782  0.0388  0.0551
 8968W        W28502  13.939   1.335  13.565 -0.0793  0.0799 -0.1569
 8969W        W28503  12.243   1.065  10.731 -0.0484 -0.0905 -0.4392
 8970W        W28504   1.490  14.052  13.798 -0.0015 -0.2829  0.0562
 8971W        W28505  12.485   9.113   1.882 -0.2459  0.1306 -0.0303
 8972W        W28506  11.469   6.692   4.136 -0.1289 -0.0268 -0.2167
 8973W        W28507  11.167   5.193   3.220  0.2787 -0.3525  0.2420
 8974W        W28508   1.656   7.518  13.557 -0.0348 -0.0655  0.2109
 8975W        W28509   8.197   3.846  11.535 -0.0485  0.0030  0.1010
 8976W        W28510   4.371  14.888  11.192  0.0901  0.1335  0.2274
 8977W        W28511  14.186  19.117   1.911  0.1229 -0.0049 -0.2932
 8978W        W28512  11.731  11.729  12.947  0.0249  0.1382  0.1581
 8979W        W28513   7.052  11.230   1.169  0.0448  0.1415 -0.1429
 8980W        W28514  16.175   7.538  11.433 -0.1402  0.0012  0.1252
 8981W        W28515  14.332  12.297  10.575  0.1495  0.1484 -0.0495
 8982W        W28516   2.598  10.716   2.412  0.0519 -0.1134  0.1924
 8983W        W28517  11.228  15.008  11.942 -0.0317  0.4925 -0.1259
 8984W        W28518   3.298   2.340   0.962  0.0005 -0.2074  0.0939
 8985W        W28519  11.585   4.324   2.237  0.1951 -0.1872  0.0564
 8986W        W28520  10.899   4.075   1.700 -0.1783 -0.1127  0.1720
 8987W        W28521  10.330  19.054   0.038  0.0090 -0.2256  0.0605
 8988W        W28522  12.701  14.708   2.986 -0.2998 -0.2044 -0.0218
 8989W        W28523  14.589   7.336  13.368  0.0432  0.0547 -0.0520
 8990W        W28524  13.390   3.235   2.743  0.0968 -0.0070 -0.2048
 8991W        W28525   1.512  11.174   2.203 -0.1418 -0.0346 -0.0356
 8992W        W28526  18.539   8.024   0.438 -0.1463 -0.1971 -0.0779
 8993W        W28527  18.847   0.038   0.334  0.1995 -0.0063 -0.2214
 8994W        W28528  14.112   2.875   4.094 -0.0305 -0.2444  0.1698
 8995W        W28529  15.252   8.309   4.789  0.0860 -0.1670 -0.0151
 8996W        W28530   9.190   4.860   3.651 -0.1273 -0.2312 -0.1079
 8997W        W28531   1.419   0.489  12.612  0.2331 -0.3452  0.0867
 8998W        W28532  15.000   6.473  12.788  0.1254 -0.3527  0.0931
 8999W        W28533  12.742  10.585   0.717 -0.1622 -0.3453 -0.0544
 9000W        W28534   7.083   2.867   4.381 -0.1200 -0.0904 -0.0204
 9001W        W28535  11.318  12.986  13.004  0.1705  0.0841 -0.1463
 9002W        W28536  10.473  19.292  10.549 -0.1680 -0.1203  0.2913
 9003W        W28537  11.269  19.515   0.026 -0.0295  0.2396  0.3757
 9004W        W28538  16.075   0.389  14.365  0.1058 -0.0863  0.1641
 9005W        W28539  12.694  10.613  14.158 -0.0267 -0.4488  0.1408
 9006W        W28540  13.077   7.754   2.806  0.1167  0.2488 -0.0774
 9007W        W28541  14.857  14.388   2.132  0.0626 -0.1403 -0.0623
 9008W        W28542   0.946   1.098   3.490  0.2068 -0.2023 -0.0361
 9009W        W28543  19.490  15.012   2.252  0.2306  0.2858  0.3513
 9010W        W28544  10.354   7.436   1.196 -0.0459  0.0269 -0.2265
 9011W        W28545   7.086   1.081  11.598 -0.1662  0.5114 -0.0228
 9012W        W28546  15.320   9.370  13.619  0.2591  0.3005  0.1906
 9013W        W28547  17.308  13.293   4.307  0.2457  0.0175  0.0122
 9014W        W28548  18.540  10.388  14.288  0.1624  0.2671 -0.1504
 9015W        W28549  17.166   2.019   1.305 -0.3095 -0.1062 -0.3401
 9016W        W28550   4.877   8.836   1.309  0.0243  0.0125 -0.0420
 9017W        W28551   8.793   0.713  11.639  0.4243  0.1160 -0.0970
 9018W        W28552  15.475   1.338  12.478 -0.1723  0.1408 -0.1227
 9019W        W28553   5.167  15.740  12.394  0.3053  0.0802 -0.0639
 9020W        W28554  18.927   4.781   1.427  0.0424 -0.0821  0.1373
 9021W        W28555   2.249  14.389   2.179 -0.1388  0.0042 -0.1700
 9022W        W28556   5.209   4.550  10.348  0.0079  0.1967  0.1889
 9023W        W28557   2.332  11.489  12.118  0.1907 -0.0824  0.4123
 9024W        W28558   5.687  14.655   3.739  0.0113  0.1894  0.1692
 9025W        W28559   2.309   4.233  13.419 -0.0015 -0.0747 -0.1929
 9026W        W28560   3.923   2.655  13.989  0.2169  0.0126  0.1249
 9027W        W28561  12.612   3.754  11.599  0.0187  0.1656  0.0938
 9028W        W28562   7.912   9.602   1.992 -0.0108 -0.1566 -0.4008
 9029W        W28563   3.249  16.832  13.392  0.0447 -0.1184 -0.2694
 9030W        W28564   0.281   7.036  11.514 -0.0914 -0.3058 -0.0794
 9031W        W28565  15.556  15.657  12.445  0.0240  0.1050  0.1849
 9032W        W28566  11.545   0.095   0.468 -0.3004  0.2347 -0.0258
 9033W        W28567  16.746   6.580   4.381  0.1569  0.1227  0.1782
 9034W        W28568   9.597   8.459   3.221  0.2343 -0.1966  0.2320
 9035W        W28569  10.618   2.118   0.414 -0.0960  0.3553  0.0721
 9036W        W28570   2.262   5.354   3.057 -0.0276  0.2328  0.1710
 9037W        W28571   2.965   8.956   0.987 -0.1555 -0.0245 -0.4036
 9038W        W28572   5.815  12.006   4.422  0.1894 -0.1242 -0.1553
 9039W        W28573   5.165  11.063   0.335 -0.2127  0.0780  0.2051
 9040W        W28574   0.715   4.957  11.047 -0.1571  0.3057 -0.0160
 9041W        W28575   9.946   9.149   1.926 -0.1588  0.0489  0.0209
 9042W        W28576   5.414   9.076  10.923 -0.1829  0.0096  0.2991
 9043W        W28577   0.295  14.142   1.053  0.0485  0.1031  0.0535
 9044W        W28578   9.361   0.914   0.581  0.0820 -0.1306  0.2831
 9045W        W28579   8.504   0.975  11.338  0.1232 -0.2398  0.1761
 9046W        W28580  12.158  16.927   1.825  0.0710  0.0061  0.3384
 9047W        W28581  15.433  17.076  13.486 -0.0856  0.0550  0.1345
 9048W        W28582   9.168  13.154  13.611  0.0403 -0.1263 -0.1348
 9049W        W28583   5.591  15.945  11.010 -0.0087 -0.0692  0.0131
 9050W        W28584  16.819   4.595   0.088  0.2725  0.2781  0.2511
 9051W        W28585  18.570   4.450   2.864 -0.1498 -0.0784  0.0136
 9052W        W28586   0.535   8.471   3.970  0.1274 -0.2238 -0.1886
 9053W        W28587  18.746  10.193   1.150 -0.0997  0.0928  0.1551
 9054W        W28588  18.780  16.880  10.795 -0.5865 -0.1378  0.1486
 9055W        W28589  18.936   4.846   2.662 -0.4164 -0.0441  0.0385
 9056W        W28590  16.853   7.493   3.200 -0.2988  0.0049 -0.1243
 9057W        W28591   8.032  19.155   3.869  0.0013  0.3468  0.0593
 9058W        W28592   3.695   3.231   4.204  0.1615  0.1307 -0.1387
 9059W        W28593   0.850   3.030   0.387 -0.2052 -0.2628  0.1042
 9060W        W28594  11.951   7.723   1.551 -0.1274  0.1267  0.1660
 9061W        W28595   8.949  12.301   2.882  0.0753  0.1076 -0.1576
 9062W        W28596  10.224   3.144  12.903  0.6623  0.0188  0.1419
 9063W        W28597   2.283   3.256  10.071  0.2311 -0.1548  0.1360
 9064W        W28598   2.665   7.464   1.861  0.1442  0.2141 -0.0448
 9065W        W28599  14.090   4.853   0.585  0.0895 -0.1741  0.1417
 9066W        W28600   2.076   9.065  10.907 -0.4909  0.1995  0.1055
 9067W        W28601   9.161  14.450  11.832  0.0457 -0.1482  0.1102
 9068W        W28602   2.214   1.558  11.419  0.0462 -0.0485  0.5160
 9069W        W28603   7.234   6.363   0.865  0.0732 -0.3090  0.0081
 9070W        W28604  16.620  13.655  14.183  0.2763 -0.2442 -0.1500
 9071W        W28605  18.737  11.710  14.107 -0.2230  0.0226  0.0784
 9072W        W28606   8.383  17.161  10.595  0.2229  0.0727 -0.1215
 9073W        W28607  15.953  11.153  13.095 -0.2972 -0.4163 -0.4479
 9074W        W28608   1.275   3.203   2.960 -0.3009  0.1390 -0.4099
 9075W        W28609  18.469  16.306   2.041  0.0777 -0.2209 -0.1000
 9076W        W28610  19.288  18.340   1.781  0.0391 -0.2271 -0.5884
 9077W        W28611   0.045  17.947   3.009  0.3785 -0.1435 -0.3046
 9078W        W28612   5.773   8.168  10.531 -0.1800 -0.0827  0.0718
 9079W        W28613   5.840  16.160  12.342  0.3482  0.0598 -0.2974
 9080W        W28614  11.396  14.398   3.478  0.0169 -0.1518  0.1308
 9081W        W28615  14.964   3.477   9.315  0.1457  0.2246  0.0448
 9082W        W28616   1.257  14.940   3.404 -0.0994 -0.0680  0.1462
 9083W        W28617   0.412   3.097   0.677 -0.1056 -0.1380 -0.2138
 9084W        W28618   6.840  15.536  13.250 -0.1011  0.1060 -0.1900
 9085W        W28619  10.633  16.850   2.199 -0.0146  0.3408 -0.0339
 9086W        W28620  14.499  13.204  12.819 -0.1167  0.1382  0.3256
 9087W        W28621  19.407  10.868  12.797  0.1752  0.0330  0.0563
 9088W        W28622  18.707  17.574   3.257 -0.1173  0.3722 -0.1754
 9089W        W28623  13.806   3.113  10.244  0.2387 -0.2415 -0.0681
 9090W        W28624  18.082   4.733   2.049  0.0245  0.1095 -0.3509
 9091W        W28625   2.679   3.743  12.668  0.2462  0.2253  0.0527
 9092W        W28626  10.672  14.297   0.396 -0.1697  0.1148  0.2429
 9093W        W28627   9.416  17.480   0.458  0.0724  0.1351  0.4206
 9094W        W28628  15.740   5.158   2.508 -0.0868  0.0727  0.0403
 9095W        W28629  11.536   6.853  11.647  0.2468 -0.1514 -0.0125
 9096W        W28630   5.925  11.599   2.533 -0.0755 -0.0224  0.2381
 9097W        W28631  13.035  16.540  10.511  0.2264 -0.0495  0.1399
 9098W        W28632   4.442   2.645  10.523 -0.0363 -0.0878 -0.1091
 9099W        W28633   1.302   7.879   2.809 -0.1354  0.1515 -0.1002
 9100W        W28634  15.759   5.690   1.596 -0.0786 -0.2996 -0.1042
 9101W        W28635  19.053  17.517   3.630 -0.0185  0.0771  0.1098
 9102W        W28636   2.566  10.261  12.288  0.2890  0.0919 -0.3818
 9103W        W28637   5.637   9.605  12.544  0.0966 -0.2035  0.2027
 9104W        W28638   8.476   0.064  12.378  0.0357  0.1982 -0.0837
 9105W        W28639  17.039  16.585   4.634 -0.0454 -0.0363 -0.1436
 9106W        W28640   2.565  17.186   1.004 -0.1335 -0.0820  0.3088
 9107W        W28641  12.222  15.485  13.717 -0.1491 -0.2173  0.0192
 9108W        W28642  10.136  10.323   3.223  0.0580  0.0656  0.0009
 9109W        W28643   3.468  17.956   2.937  0.2638  0.2900  0.0066
 9110W        W28644   9.380  10.132   3.983  0.0001  0.2837  0.3175
 9111W        W28645   8.250   5.953   2.230  0.0041 -0.0913  0.1472
 9112W        W28646   0.757   4.381   3.133  0.0472 -0.0803 -0.1661
 9113W        W28647   5.840   7.163   2.875  0.0966  0.1124  0.0097
 9114W        W28648   4.537   4.059  13.864  0.1468 -0.0256  0.0125
 9115W        W28649  10.884   3.816   0.267 -0.5028 -0.0379 -0.1180
 9116W        W28650   2.574  10.668  12.570 -0.0664  0.1040 -0.1508
 9117W        W28651  11.515  14.786   3.227  0.3280 -0.0174 -0.1252
 9118W        W28652   2.327  11.872   0.377  0.0209  0.1286 -0.0125
 9119W        W28653   6.240   1.607  14.150  0.1465 -0.0492 -0.0157
 9120W        W28654  14.777   2.658  12.709 -0.1250  0.1851  0.1583
 9121W        W28655  15.464   7.237  13.065  0.0244  0.1240  0.1151
 9122W        W28656  13.501  10.290   1.918  0.1636  0.1167  0.0051
 9123W        W28657  17.405   2.330   3.872  0.2391  0.1497  0.1203
 9124W        W28658  10.217  14.986   2.901 -0.3014 -0.1423 -0.0564
 9125W        W28659  13.917  17.883   4.412  0.1881  0.3756 -0.1314
 9126W        W28660   0.727   2.635   3.660 -0.1373 -0.1232 -0.0663
 9127W        W28661   9.148   6.946  13.694  0.1400  0.0465  0.0046
 9128W        W28662  10.911  15.089   3.687  0.0720  0.3231 -0.1831
 9129W        W28663   2.728   0.986  10.443 -0.2940  0.0967  0.0026
 9130W        W28664   1.713   0.542   0.506  0.2605 -0.2043 -0.1072
 9131W        W28665   7.408  16.445   3.724 -0.2061 -0.2257 -0.3001
 9132W        W28666   9.044   8.890  13.262 -0.0572  0.3212 -0.2073
 9133W        W28667   3.722  12.723  13.278  0.0003 -0.0107  0.1879
 9134W        W28668   2.213  12.273   3.058  0.1242 -0.0071 -0.3546
 9135W        W28669   5.976   2.870   1.707 -0.0741  0.3339  0.0852
 9136W        W28670   2.835   2.234  10.374  0.2200 -0.1464 -0.2970
 9137W        W28671  11.895  13.187  10.440 -0.0755 -0.2118 -0.1818
 9138W        W28672   1.113  10.785  10.393  0.1940  0.0567  0.0945
 9139W        W28673   8.724  18.244  14.032  0.1475  0.0914  0.0016
 9140W        W28674   2.214   4.952   1.423  0.2335 -0.1386  0.0771
 9141W        W28675   7.357   2.881   2.340  0.0892 -0.0888 -0.0657
 9142W        W28676   1.165  16.500   0.111 -0.0538  0.1446  0.0235
 9143W        W28677  10.238   2.559   2.047  0.0169 -0.0722  0.5581
 9144W        W28678   3.943  19.191  10.945  0.2223 -0.0615 -0.0923
 9145W        W28679   9.924   6.856  13.022  0.0343  0.0434  0.1699
 9146W        W28680  10.604   8.871   0.200 -0.1097 -0.1961 -0.1305
 9147W        W28681   9.326  16.305   3.529  0.0127 -0.1419  0.1153
 9148W        W28682  10.672  10.014  11.600 -0.0463 -0.1698 -0.3461
 9149W        W28683   1.274  11.416  13.991  0.0736  0.2714  0.1384
 9150W        W28684   2.310   0.927  11.969 -0.1000 -0.2808 -0.1610
 9151W        W28685  12.553  17.891   3.050  0.1013 -0.0464 -0.0195
 9152W        W28686   7.042   4.185   3.599 -0.1710 -0.0207  0.4438
 9153W        W28687  12.101   9.815   0.661 -0.2058  0.4275 -0.2920
 9154W        W28688   6.785  19.153  13.868  0.2817 -0.0777 -0.2254
 9155W        W28689   1.793  16.225   3.763  0.0009  0.0860  0.4111
 9156W        W28690  15.542   2.800  14.086 -0.0704 -0.0516  0.2645
 9157W        W28691   1.887   1.264  13.209 -0.3315 -0.1305  0.0352
 9158W        W28692   5.462   6.815  10.980  0.1379  0.2720  0.1347
 9159W        W28693  15.939   1.943   4.216 -0.3548 -0.0949  0.2396
 9160W        W28694   6.417  10.548   3.275  0.1402  0.5193 -0.1854
 9161W        W28695  13.708  19.046  12.419  0.0808  0.1519  0.1302
 9162W        W28696   7.803  18.212   0.906  0.1474  0.2962 -0.0836
 9163W        W28697   2.135  11.315  13.406 -0.0129 -0.2301  0.1080
 9164W        W28698  11.447   1.709  13.731  0.0460 -0.0309 -0.0548
 9165W        W28699  14.104  18.638   1.789  0.0261 -0.3060  0.2367
 9166W        W28700  14.790  15.665  14.202  0.0980  0.1001  0.1924
 9167W        W28701  10.158   5.976   3.552  0.0120 -0.1651 -0.0103
 9168W        W28702   7.691  16.140  14.164  0.0564  0.1909 -0.2901
 9169W        W28703   7.200  12.312  13.618 -0.1912  0.1260 -0.2780
 9170W        W28704  12.200   1.238  13.202 -0.3182 -0.0467  0.1136
 9171W        W28705   2.058   8.271   4.812  0.0510 -0.1787 -0.0415
 9172W        W28706   9.262  12.605  12.096 -0.1187  0.2727 -0.3029
 9173W        W28707  12.768  11.514  13.137 -0.1444  0.4081  0.2717
 9174W        W28708  16.656  15.338  11.569  0.0388 -0.0361 -0.1690
 9175W        W28709  13.487   5.111  12.586 -0.0133  0.2829  0.2277
 9176W        W28710  11.934  13.302   1.821  0.1118 -0.2291 -0.3768
 9177W        W28711  11.526   9.294  11.047  0.1426 -0.1832 -0.2100
 9178W        W28712   3.657  14.137   1.454  0.1716 -0.3913 -0.1816
 9179W        W28713  19.108  15.195  10.956  0.1199 -0.0709  0.2325
 9180W        W28714   4.934   5.411  13.680  0.1874 -0.1852 -0.3788
 9181W        W28715   6.103  18.408  13.075 -0.0610  0.1583 -0.1628
 9182W        W28716  12.917   7.083  12.758 -0.0333  0.2468 -0.1073
 9183W        W28717   9.514   6.709   0.528  0.0310 -0.4163 -0.0345
 9184W        W28718   9.313  11.229   2.667  0.1553 -0.0297  0.1465
 9185W        W28719   2.964  19.187  14.302  0.3002  0.1249 -0.0220
 9186W        W28720   3.012  11.941   2.808  0.1322 -0.1634 -0.1405
 9187W        W28721   9.020  15.466  14.322 -0.1584 -0.1285  0.0987
 9188W        W28722   5.404   6.162  12.725 -0.0268 -0.0509  0.0258
 9189W        W28723   7.253   2.408  13.205 -0.0525 -0.1630  0.2157
 9190W        W28724   0.611   1.394  13.332 -0.0694  0.2211  0.1691
 9191W        W28725   6.194   5.460   3.117 -0.3030 -0.1208 -0.1473
 9192W        W28726   5.142  13.938   4.073 -0.2864  0.0596 -0.0043
 9193W        W28727   9.804  16.985   2.910 -0.0510 -0.0143 -0.2250
 9194W        W28728  17.566  12.537  12.641  0.2185 -0.3127 -0.3426
 9195W        W28729  13.868  16.393  11.043  0.0760  0.0516 -0.2327
 9196W        W28730  14.654  14.052  12.876  0.4053 -0.0153 -0.0538
 9197W        W28731   4.949   9.212  11.014 -0.1309 -0.1241  0.2315
 9198W        W28732   2.210   9.248  11.723 -0.0864 -0.1095 -0.0912
 9199W        W28733   9.083  15.573  10.311  0.2042 -0.0814 -0.1660
 9200W        W28734   6.456   0.410  11.573 -0.0611  0.1301 -0.1432
 9201W        W28735   1.088  16.715  11.769 -0.1682 -0.0949 -0.0453
 9202W        W28736  19.309   3.995  12.577  0.1383 -0.0674 -0.0381
 9203W        W28737   8.777  18.284   0.273  0.1567  0.1540 -0.0394
 9204W        W28738   0.774   6.332   4.119 -0.0063 -0.1069 -0.1183
 9205W        W28739  11.239   9.754  12.075  0.3738 -0.0442  0.1063
 9206W        W28740   4.420   7.833  12.748 -0.1156  0.1140 -0.0171
 9207W        W28741   2.833  16.119   3.953 -0.0056 -0.0725 -0.3870
 9208W        W28742   8.461  16.147  10.477  0.1304 -0.0211  0.2572
 9209W        W28743  13.856   2.304  10.663 -0.0598  0.0726 -0.2980
 9210W        W28744   6.106  15.082  11.180 -0.0886 -0.0386  0.0974
 9211W        W28745   4.343  13.595   4.332 -0.1630 -0.0475 -0.0123
 9212W        W28746   4.430  12.986   0.135 -0.0305  0.0253 -0.2640
 9213W        W28747   0.815   6.353   3.608  0.0345  0.1955  0.3308
 9214W        W28748  10.676  10.406   3.198 -0.2154 -0.1840 -0.0468
 9215W        W28749  15.899  18.493  10.683  0.0564 -0.1074  0.0088
 9216W        W28750  18.942   1.841  12.856 -0.0224  0.0077 -0.1660
 9217W        W28751  17.161  16.641   2.188  0.0503  0.2849  0.0575
 9218W        W28752  16.182  15.126  11.581 -0.0114 -0.3058  0.1696
 9219W        W28753   8.635   5.748   0.314 -0.0065  0.0397  0.2881
 9220W        W28754  15.820   9.793   2.392 -0.0087 -0.0204  0.1101
 9221W        W28755  18.344   9.740   1.802  0.1955  0.2202  0.1450
 9222W        W28756  18.495   9.373   3.781  0.0862 -0.1133  0.1504
 9223W        W28757  19.212  19.457  13.324  0.1267  0.1499  0.6050
 9224W        W28758   6.944   0.427  12.225  0.2767  0.0486  0.3022
 9225W        W28759   0.462   0.398  12.638  0.0275  0.4123 -0.0315
 9226W        W28760   0.208  11.035  13.121  0.2298 -0.2093  0.0268
 9227W        W28761  13.933  10.304   0.022  0.0908 -0.1917  0.0516
 9228W        W28762   6.644  18.151   3.239  0.0291  0.1341  0.1227
 9229W        W28763   7.914   8.569   3.183  0.0809  0.1940  0.2668
 9230W        W28764  11.784  18.640  13.268  0.1472 -0.0712  0.3633
 9231W        W28765  14.716   7.690   0.708  0.1656  0.0384  0.0168
 9232W        W28766   1.321  10.523  10.811 -0.0345 -0.0164 -0.0057
 9233W        W28767   7.724  11.147  12.600  0.2028  0.0435  0.1433
 9234W        W28768  10.908   6.665   1.371 -0.1043 -0.1998 -0.1731
 9235W        W28769   9.646   2.951   3.992  0.0465  0.3735 -0.1097
 9236W        W28770  15.701   0.159  13.935  0.0301  0.1034  0.0530
 9237W        W28771   9.641  15.761  10.254 -0.0524  0.1338  0.2703
 9238W        W28772  14.958   4.663  12.407 -0.1529 -0.0168  0.1109
 9239W        W28773   5.983   9.048   2.292  0.0982 -0.1455  0.0896
 9240W        W28774   2.286   0.820   4.116  0.0096 -0.2670 -0.0499
 9241W        W28775  19.018   4.760   0.681 -0.3283  0.1629 -0.1012
 9242W        W28776   5.239  15.178  11.689  0.5516  0.0434 -0.1090
 9243W        W28777   4.045  11.088  11.772 -0.1836 -0.1341  0.0283
 9244W        W28778   4.226  15.987   1.300  0.1206  0.1930  0.0912
 9245W        W28779  15.220  12.619   1.673  0.3180  0.0040 -0.1391
 9246W        W28780  15.935   2.830  11.138 -0.0769 -0.0319  0.5449
 9247W        W28781  17.353   4.480   4.570  0.2966 -0.2050  0.1723
 9248W        W28782   8.041  13.767   3.000 -0.0138 -0.3497  0.0643
 9249W        W28783  14.884   9.366   1.017  0.1974 -0.0562  0.1059
 9250W        W28784  10.954  17.671   2.419  0.0576 -0.1634 -0.1495
 9251W        W28785  12.561   3.124  12.895  0.1450 -0.0288 -0.0156
 9252W        W28786   1.579   3.723   2.954 -0.0157  0.3460 -0.4854
 9253W        W28787  10.088  12.971   0.116 -0.0150 -0.1845  0.2710
 9254W        W28788  14.244   6.019   2.610  0.0040  0.0302  0.2448
 9255W        W28789   5.313  14.082   2.587  0.1107  0.0227  0.3616
 9256W        W28790   5.754   9.357   3.486  0.1047  0.1442 -0.2062
 9257W        W28791   5.875  19.124  14.018  0.3275 -0.2261  0.1354
 9258W        W28792   4.736   6.064   3.203  0.3741  0.0505 -0.0963
 9259W        W28793  18.785   5.676   1.227  0.2642  0.2340  0.0129
 9260W        W28794  13.060   2.071  10.883  0.1838  0.0693  0.1268
 9261W        W28795  17.388  18.254   0.348 -0.1305 -0.0985 -0.1204
 9262W        W28796   0.418   3.556  11.898  0.0068 -0.1437 -0.0264
 9263W        W28797  14.607  10.597  13.513 -0.1617  0.0412  0.1507
 9264W        W28798  12.439  18.052  12.781 -0.0493  0.0591  0.0713
 9265W        W28799   0.403   3.269  12.289  0.1389 -0.1245  0.0513
 9266W        W28800  13.592  15.218   1.462 -0.0440 -0.0679 -0.0524
 9267W        W28801  16.005   9.446   0.235 -0.1041 -0.0938  0.2247
 9268W        W28802   6.449   2.325   3.991 -0.2224  0.0258 -0.4270
 9269W        W28803  16.896   4.621  13.873  0.0841  0.0585  0.0580
 9270W        W28804  18.686  14.406   2.832 -0.0417  0.1706 -0.1732
 9271W        W28805   0.422  10.152   2.016 -0.1413 -0.2263  0.1632
 9272W        W28806  18.773  14.228   1.361 -0.2535  0.0544 -0.0555
 9273W        W28807   6.344  13.271   2.216  0.1549 -0.1101 -0.3753
 9274W        W28808   6.861   2.368   5.353  0.2296 -0.1767  0.0688
 9275W        W28809   4.410  18.667   2.250 -0.0093 -0.1065 -0.2549
 9276W        W28810   0.903   1.602  12.258  0.0941 -0.1041  0.0038
 9277W        W28811   8.645  16.776   1.331 -0.1779  0.2734 -0.0644
 9278W        W28812   2.193  14.175   1.154  0.1582  0.1079  0.4755
 9279W        W28813  16.871   4.473   3.843  0.0525 -0.0214 -0.0223
 9280W        W28814  18.180   2.513   3.920 -0.0549  0.0043  0.0374
 9281W        W28815  18.397   8.044   0.962  0.1622  0.0708  0.5127
 9282W        W28816   5.267   6.764  10.546 -0.1065 -0.1500  0.0046
 9283W        W28817  16.650   6.737   3.889  0.2428 -0.3304  0.0796
 9284W        W28818  10.731  10.455   0.033  0.1620  0.2802 -0.3532
 9285W        W28819  11.867   6.887  10.755  0.0032  0.0169 -0.0812
 9286W        W28820   8.479   0.663  13.326  0.3269  0.2004 -0.1987
 9287W        W28821  17.822   6.945  13.051  0.0604 -0.1164  0.2899
 9288W        W28822  17.971  11.602   0.411  0.2291 -0.2355  0.2356
 9289W        W28823   5.830   6.513  13.421 -0.0546  0.2580  0.2354
 9290W        W28824   3.732  13.254  12.884 -0.0679 -0.1090 -0.1754
 9291W        W28825   2.953   4.461   9.129  0.2091 -0.0447 -0.1081
 9292W        W28826   4.132   5.583   1.919  0.0070 -0.4222  0.3801
 9293W        W28827  10.938   0.632   0.839  0.2576  0.0514 -0.4030
 9294W        W28828  12.194   1.273  11.402  0.3659 -0.0236  0.0762
 9295W        W28829   2.212   3.536   2.040  0.3288 -0.0772  0.2778
 9296W        W28830  12.609  16.719   1.720  0.1264 -0.0068 -0.0297
 9297W        W28831   3.529   4.877  10.655 -0.1587 -0.2996  0.2090
 9298W        W28832   6.828  16.413   3.158 -0.3096  0.1514 -0.1138
 9299W        W28833  14.225  12.825  14.326 -0.1700 -0.3176 -0.1148
 9300W        W28834   1.734   5.891   1.864 -0.0483 -0.2646 -0.0437
 9301W        W28835   0.957  15.059  11.282 -0.1347  0.2543 -0.0691
 9302W        W28836  18.973  18.020   3.576  0.0307  0.0256  0.1253
 9303W        W28837   3.894   1.745  12.914  0.2663  0.0410  0.3914
 9304W        W28838  14.387   1.325  12.851  0.1282 -0.0188  0.1167
 9305W        W28839   2.767   5.603  13.476  0.2978 -0.1328 -0.0438
 9306W        W28840  18.042   0.446  12.666  0.0319  0.0773  0.0144
 9307W        W28841  15.753   8.098  10.732  0.0504 -0.2075  0.0123
 9308W        W28842  17.381   3.717   9.583  0.2300 -0.3046  0.0163
 9309W        W28843   7.023  14.839   1.636  0.0089  0.1159 -0.2229
 9310W        W28844  11.939   2.753   3.722  0.1826  0.0991  0.1987
 9311W        W28845  11.224   9.562   1.894 -0.3866  0.0444  0.0284
 9312W        W28846  15.012   0.176   0.123 -0.0475 -0.1304  0.2306
 9313W        W28847   2.057  11.859   3.296 -0.0646  0.1547 -0.1060
 9314W        W28848   3.435  18.116  12.757  0.5455  0.1024 -0.2159
 9315W        W28849   8.612   3.478  13.072  0.0071 -0.1618 -0.0202
 9316W        W28850   0.085  18.599   3.824  0.0353  0.0744 -0.1092
 9317W        W28851   2.630   1.799  10.075  0.1271 -0.1020  0.2175
 9318W        W28852   4.909   3.615  12.504  0.0319 -0.0942  0.1471
 9319W        W28853   0.659  12.072  10.404 -0.2755  0.1289  0.1427
 9320W        W28854   0.833   8.418   4.742 -0.4959 -0.0744 -0.1001
 9321W        W28855  13.961  13.636  14.136  0.2200 -0.0191 -0.0620
 9322W        W28856   1.593  11.978   3.099 -0.1649  0.3265  0.0724
 9323W        W28857   1.612  16.634   2.533 -0.5294 -0.0413 -0.0261
 9324W        W28858   3.538  14.841   3.357  0.2004  0.0161  0.0684
 9325W        W28859  16.594  11.110   0.923  0.3226  0.2148 -0.4710
 9326W        W28860  16.026  19.124  10.290 -0.4065 -0.0203  0.2077
 9327W        W28861  17.686   4.185   0.012  0.2029 -0.2038 -0.0703
 9328W        W28862  17.029  17.247  11.782 -0.2702 -0.2985 -0.1885
 9329W        W28863   5.518  14.286   1.674 -0.1390 -0.2126  0.0783
 9330W        W28864   5.834   7.912   0.435  0.2162  0.0000  0.0449
 9331W        W28865  18.066   8.425  12.125 -0.4088  0.1131 -0.0564
 9332W        W28866   4.479  14.240  12.841  0.0467  0.0063 -0.1953
 9333W        W28867  14.460  18.506   0.746 -0.1584 -0.3217 -0.1276
 9334W        W28868   7.991  18.360  10.723 -0.0004  0.0729 -0.2616
 9335W        W28869   6.118  14.280   3.620  0.0296  0.2037  0.0096
 9336W        W28870   3.563  16.443   4.322  0.1731 -0.1497 -0.2425
 9337W        W28871  13.102   9.000   2.332  0.4653  0.1459  0.5014
 9338W        W28872   7.276  12.272  11.624 -0.0174  0.0707 -0.1233
 9339W        W28873   8.579  13.874  12.106  0.0403  0.2701 -0.0618
 9340W        W28874  17.664  11.161  12.489 -0.1738  0.4425  0.3014
 9341W        W28875  18.591   1.052  14.366  0.1684 -0.0818  0.1513
 9342W        W28876  14.933   3.067   2.960  0.1828 -0.0897 -0.0108
 9343W        W28877  10.455   0.123   3.771  0.0935 -0.0156  0.2701
 9344W        W28878  17.834  14.921  12.091 -0.3648 -0.0166 -0.0555
 9345W        W28879   0.858   0.109   2.574  0.1259  0.0127  0.1413
 9346W        W28880  13.900   4.413  10.532  0.0062 -0.1184 -0.2403
 9347W        W28881   0.962   3.022  10.787 -0.1550  0.0832  0.0899
 9348W        W28882   4.221  14.064   1.497 -0.0852  0.1639  0.1041
 9349W        W28883   4.638   1.627  13.468  0.2317 -0.3347  0.4200
 9350W        W28884  14.474  19.509   0.193  0.0320  0.0928 -0.3658
 9351W        W28885   3.745  18.016   9.306  0.0001 -0.3228  0.1002
 9352W        W28886  11.434   6.857  13.548  0.3280 -0.0119  0.1739
 9353W        W28887   4.471  14.977   3.138 -0.1946  0.1393  0.1839
 9354W        W28888  17.530   6.624  11.121 -0.1845  0.1636 -0.0847
 9355W        W28889   3.389   7.107  14.378 -0.2043  0.0385 -0.1292
 9356W        W28890  18.694  18.747  11.720 -0.0938  0.0958 -0.0664
 9357W        W28891  17.918   3.450  11.061 -0.1762  0.0561  0.0547
 9358W        W28892   1.272  19.220   0.545 -0.0033 -0.0574  0.0090
 9359W        W28893   8.456  11.558   3.873  0.2123 -0.0905  0.1824
 9360W        W28894  15.449   1.042  14.234 -0.1868 -0.1805  0.2285
 9361W        W28895  10.429  14.364   3.321  0.4186  0.2018 -0.0236
 9362W        W28896  14.311   8.251   3.133 -0.1095 -0.0952 -0.0579
 9363W        W28897   3.431  14.473   2.113  0.0554  0.0898  0.2214
 9364W        W28898   0.593   6.927   2.074  0.0403  0.0799  0.0217
 9365W        W28899   3.941  14.323  12.908  0.2777  0.0775 -0.3218
 9366W        W28900  15.545  12.984   2.086 -0.3093 -0.2421  0.1183
 9367W        W28901  14.830  17.256   3.451 -0.3407  0.2406 -0.0788
 9368W        W28902  18.982  16.189  13.803  0.2775  0.3230  0.1279
 9369W        W28903  15.015  16.184  14.080  0.1578  0.1262 -0.0443
 9370W        W28904   2.441   5.183  12.208 -0.0096  0.0349  0.0501
 9371W        W28905   8.753  17.864  13.715  0.0517 -0.2535  0.0596
 9372W        W28906  11.158   3.183   1.870 -0.0497  0.0421  0.0005
 9373W        W28907   9.524  10.159   1.104  0.2514 -0.2535  0.1532
 9374W        W28908  15.730  18.856   1.270  0.2937 -0.1754  0.1397
 9375W        W28909   1.707  16.685   1.541 -0.0645  0.1143  0.1501
 9376W        W28910  16.154  12.573  11.160  0.1779 -0.2225 -0.2790
 9377W        W28911  17.708  16.293   1.523 -0.2374 -0.2357  0.2003
 9378W        W28912  10.208  10.518  11.191 -0.0869 -0.4606  0.1190
 9379W        W28913   8.641   9.248  13.136 -0.0463 -0.0534  0.1319
 9380W        W28914  17.600   9.599   5.449 -0.2490 -0.3884 -0.0986
 9381W        W28915   8.847  15.264   3.117 -0.2388 -0.0172  0.4047
 9382W        W28916   6.156   5.171   1.867 -0.0134 -0.0346  0.2142
 9383W        W28917   6.953   3.968  12.400 -0.0134 -0.0494 -0.2155
 9384W        W28918   5.315   3.409  13.373 -0.0302 -0.0454  0.1570
 9385W        W28919  16.701  14.573   1.793  0.3937  0.1535 -0.0661
 9386W        W28920  18.629  11.160  12.982  0.1357 -0.1454  0.5176
 9387W        W28921  10.884   9.167  10.381 -0.1853 -0.0574  0.1679
 9388W        W28922   7.446  13.585   3.784 -0.1212 -0.1250  0.1684
 9389W        W28923   5.468   0.871   1.571 -0.0663  0.0101 -0.1712
 9390W        W28924  19.097  11.370   2.883 -0.0181 -0.1222  0.2090
 9391W        W28925  15.514  17.769  11.675 -0.4905  0.2239 -0.1438
 9392W        W28926   6.133   1.958  11.815  0.3601  0.2497 -0.0534
 9393W        W28927  14.465   2.950   1.923 -0.2791 -0.3365  0.0959
 9394W        W28928   1.231   4.621   2.857  0.2612 -0.1890 -0.2133
 9395W        W28929   0.257  12.538  12.346 -0.0307 -0.1614  0.3079
 9396W        W28930   2.044  10.928   1.692 -0.1739  0.1659  0.0166
 9397W        W28931  14.359  17.640  14.135  0.0067  0.3130  0.2176
 9398W        W28932   9.696  12.311  13.931 -0.2117  0.0115 -0.0626
 9399W        W28933  18.891   2.623   0.383 -0.0818 -0.0468 -0.2821
 9400W        W28934  11.360  16.354   2.231 -0.4060 -0.0506 -0.0025
 9401W        W28935   1.337  16.452  11.289 -0.0164 -0.2630  0.1994
 9402W        W28936   7.744   7.139   2.768 -0.2921  0.1364 -0.0756
 9403W        W28937  18.812  13.836  13.285  0.2099  0.2359  0.0633
 9404W        W28938  16.093  14.412  10.630 -0.1853 -0.0686 -0.2276
 9405W        W28939  15.796   3.221  13.068  0.1014  0.2390 -0.1330
 9406W        W28940   7.806  17.163  11.443 -0.0136 -0.2033 -0.0537
 9407W        W28941  16.223   2.816   4.077 -0.0802 -0.0073 -0.2183
 9408W        W28942   0.214  18.316  10.745 -0.1485  0.4959  0.0471
 9409W        W28943   8.254  12.965  12.011 -0.2443 -0.0495 -0.1183
 9410W        W28944  18.335  11.747   1.987 -0.0112  0.0781 -0.2795
 9411W        W28945   8.363   1.109  10.728  0.1553  0.0783  0.2543
 9412W        W28946  18.722  12.537  10.694 -0.2619 -0.1461 -0.0313
 9413W        W28947   9.828  13.778  12.650  0.0885  0.0938 -0.3116
 9414W        W28948   7.264  12.535   3.687 -0.1998  0.4181 -0.0272
 9415W        W28949   4.871   2.052   3.897  0.1307  0.2575 -0.2887
 9416W        W28950   1.099  18.539  14.291 -0.2444 -0.3063 -0.0439
 9417W        W28951   9.147  13.182   2.611 -0.1386 -0.1990 -0.1141
 9418W        W28952  16.195   7.733   2.560 -0.4104  0.1942  0.3276
 9419W        W28953   8.795   7.281  12.747 -0.1286 -0.0334 -0.0243
 9420W        W28954   6.040   2.923   1.035  0.1998  0.2304  0.0436
 9421W        W28955  14.465  12.146   3.822  0.1559  0.2296  0.0369
 9422W        W28956  15.696  13.729   0.215  0.0683 -0.0516 -0.4985
 9423W        W28957  12.989  11.529   1.010 -0.2655 -0.1043  0.1141
 9424W        W28958   2.194  13.827  13.629 -0.2122 -0.0992 -0.0475
 9425W        W28959  17.889  14.850  14.178  0.2445 -0.0541  0.0909
 9426W        W28960  11.124   4.668   2.319  0.3296 -0.0321 -0.3589
 9427W        W28961   3.418   2.772   2.107 -0.0389 -0.1391 -0.0079
 9428W        W28962  12.809   7.174  10.660  0.4757 -0.0979  0.1673
 9429W        W28963  11.098   8.662   0.349  0.2632 -0.0883 -0.0795
 9430W        W28964  10.798   5.889   1.099 -0.3236  0.3326  0.0828
 9431W        W28965  10.773   0.065  10.241  0.0082 -0.0048  0.1403
 9432W        W28966   3.486  10.182  12.887 -0.0599  0.0326  0.0383
 9433W        W28967  16.945  13.101   2.343 -0.0972 -0.0920 -0.0073
 9434W        W28968  14.116  17.735   0.147  0.1889 -0.0804  0.2623
 9435W        W28969  16.810  13.326  10.444 -0.0866 -0.4308  0.0247
 9436W        W28970  16.637   6.475   1.818 -0.0443  0.0043 -0.1154
 9437W        W28971   0.300  11.392  12.180  0.0979 -0.0247 -0.0180
 9438W        W28972   2.850  14.459   0.213  0.0448  0.1639 -0.3118
 9439W        W28973   8.053   1.761  11.741  0.2626 -0.0275  0.0848
 9440W        W28974   6.662   7.429  11.140 -0.0215  0.0318 -0.1422
 9441W        W28975  11.425   2.935   0.334 -0.3746  0.0120 -0.1501
 9442W        W28976  18.046   9.313   2.293  0.4445  0.0243  0.0447
 9443W        W28977  12.490   7.962   0.304 -0.0360 -0.1943 -0.2044
 9444W        W28978  11.759  13.561  11.379 -0.2991 -0.0509  0.1666
 9445W        W28979   2.660  19.386   3.897  0.3817  0.0005  0.4100
 9446W        W28980  12.715   3.200   3.250 -0.3877  0.1543  0.1549
 9447W        W28981  10.975  13.078   3.442  0.0048 -0.1333 -0.5159
 9448W        W28982   0.983   6.694   0.337 -0.0127  0.0775 -0.0035
 9449W        W28983   1.260   4.239   3.264 -0.0144  0.1284  0.1327
 9450W        W28984   4.412   2.161   0.422 -0.0754  0.1689  0.2081
 9451W        W28985   0.637  12.583  12.059  0.0876 -0.2891  0.1083
 9452W        W28986  12.718   1.312   3.670 -0.0376 -0.1428  0.0706
 9453W        W28987   4.791  18.391   0.413 -0.4165  0.2441 -0.0412
 9454W        W28988   4.723   1.160  13.964 -0.1486  0.2342 -0.1683
 9455W        W28989  17.857   8.268  12.527  0.3500  0.3517 -0.2489
 9456W        W28990  19.083  13.214  12.371 -0.5250  0.1582  0.1789
 9457W        W28991  13.798  18.524   0.242 -0.2968  0.1027  0.3298
 9458W        W28992   4.696   6.738   0.255  0.1391 -0.2875 -0.2280
 9459W        W28993  15.100   9.405  13.157  0.0434  0.3537 -0.2150
 9460W        W28994   4.814   9.452  12.084  0.0287  0.0996 -0.0802
 9461W        W28995   6.456  14.664   9.433 -0.0366  0.1214 -0.2923
 9462W        W28996   2.148  14.493   3.256  0.1296  0.1158 -0.3692
 9463W        W28997   5.325   0.310   4.060 -0.2249  0.1532  0.0680
 9464W        W28998   9.034  13.074  10.831  0.1419 -0.0697 -0.3401
 9465W        W28999  17.243  10.648  14.063  0.1661  0.0434 -0.1872
 9466W        W29000   8.356  18.726  13.113  0.1462 -0.0743 -0.0530
 9467W        W29001   1.215  15.849  13.795 -0.0069 -0.2378 -0.2808
 9468W        W29002  14.707   3.771   3.706  0.0440 -0.0612 -0.1106
 9469W        W29003   5.906  10.616   0.348  0.0995  0.3377  0.0102
 9470W        W29004  12.880   4.773  11.250  0.0839 -0.0337  0.0363
 9471W        W29005  10.165  10.624  14.161 -0.2624 -0.2829 -0.0346
 9472W        W29006  17.199  17.833   3.358  0.0292 -0.2981  0.1463
 9473W        W29007  13.992   9.056   1.468  0.0429  0.2931  0.2643
 9474W        W29008  16.137   6.403   3.068 -0.3444  0.0476  0.0936
 9475W        W29009  15.408   1.007   3.353  0.1419 -0.4699 -0.0251
 9476W        W29010   4.354   9.467  14.286 -0.0526  0.0350 -0.0085
 9477W        W29011  17.683  18.732   2.115 -0.1101 -0.2102  0.2498
 9478W        W29012   2.515   2.185   3.544  0.2053  0.0545  0.1376
 9479W        W29013   0.570   2.004  12.646 -0.0407  0.1284 -0.0513
 9480W        W29014   6.248   9.067   3.610  0.0961 -0.0812  0.2803
 9481W        W29015  18.988   1.375  11.144 -0.1745  0.0989 -0.0777
 9482W        W29016  16.448  16.301   2.051 -0.3161  0.1899  0.1171
 9483W        W29017   2.250  15.497  12.624 -0.2116  0.0225  0.0683
 9484W        W29018   9.771  17.677   1.625  0.3027  0.2445  0.0131
 9485W        W29019  10.316   3.153   1.756  0.2311  0.1361 -0.0128
 9486W        W29020  15.801  10.605  10.517  0.1042  0.1150  0.2217
 9487W        W29021  13.102  11.911   0.458 -0.1380  0.3801 -0.1962
 9488W        W29022  10.062  12.668  14.065 -0.3747 -0.0541 -0.2181
 9489W        W29023  13.134  15.297  14.101  0.2112  0.2022  0.1828
 9490W        W29024  14.139  15.038  11.447  0.3236 -0.2981 -0.0692
 9491W        W29025   2.567  10.413   0.643 -0.1712 -0.1555  0.0549
 9492W        W29026   2.445   2.986   2.074  0.2783  0.1943 -0.3311
 9493W        W29027  19.239   4.896   0.251 -0.1149 -0.1570 -0.2542
 9494W        W29028  10.962  12.964   1.634  0.0098 -0.0696  0.1358
 9495W        W29029  16.355  17.028   0.420 -0.2266 -0.4346  0.2543
 9496W        W29030   6.869   9.819   1.685  0.0984 -0.1670  0.2584
 9497W        W29031  11.021  18.928   4.536 -0.1150 -0.0631  0.1819
 9498W        W29032  11.287  10.295   4.093  0.0503  0.2570  0.4415
 9499W        W29033   1.861   5.130  13.461  0.0370  0.3532  0.3698
 9500W        W29034  17.264  11.329  11.123  0.0168  0.2101 -0.2090
 9501W        W29035   6.926  16.805   0.306 -0.0910  0.0410 -0.0276
 9502W        W29036   2.063  14.608   9.461 -0.0369  0.0994 -0.1860
 9503W        W29037  14.829  18.004  12.635 -0.0703 -0.0883 -0.0135
 9504W        W29038   3.923   5.538  13.093 -0.2128 -0.0312 -0.4068
 9505W        W29039   4.311   3.533  10.894 -0.0327 -0.1830 -0.1331
 9506W        W29040  16.902   0.939   0.110 -0.1419  0.1155  0.1665
 9507W        W29041  17.437  12.586  10.484 -0.3771 -0.0225 -0.3275
 9508W        W29042   0.134   9.095   0.649 -0.3586  0.0522  0.0665
 9509W        W29043   0.044   9.394   3.337  0.5103  0.3305 -0.0917
 9510W        W29044  17.493  14.535  12.362 -0.2386  0.0379  0.3887
 9511W        W29045   3.781  14.179  14.154 -0.0596  0.0993 -0.0847
 9512W        W29046   6.878  17.776  12.951  0.0210 -0.1299  0.0374
 9513W        W29047   0.729  18.558   1.143 -0.0739 -0.0295  0.2032
 9514W        W29048   1.510   8.582  10.748  0.0452 -0.0214 -0.0023
 9515W        W29049   2.263   4.079   3.553 -0.1310  0.1073  0.0033
 9516W        W29050  16.167  18.962  10.746  0.0348 -0.1979 -0.0567
 9517W        W29051  19.249   0.732  13.806 -0.0129  0.0350  0.0969
 9518W        W29052  16.278  17.559   3.357  0.0805  0.0678  0.2149
 9519W        W29053  11.119   4.541   3.216  0.0256  0.1044  0.1705
 9520W        W29054   5.048   0.381  13.153  0.0744  0.0536  0.1070
 9521W        W29055   8.312   3.526   3.656 -0.4790 -0.1081  0.1117
 9522W        W29056  10.123  10.024   0.658 -0.1691  0.1098  0.1957
 9523W        W29057   9.806  11.847  13.784 -0.0894 -0.2194  0.1964
 9524W        W29058  12.278   1.186   1.684 -0.1884  0.3521  0.0562
 9525W        W29059   1.585   8.275  13.138 -0.2443  0.0057  0.0936
 9526W        W29060   5.397   8.300   0.753 -0.2463 -0.1078 -0.2200
 9527W        W29061   4.915   2.041   3.357 -0.0861  0.0614  0.0692
 9528W        W29062  11.085  13.151   2.882  0.2139 -0.3338 -0.2521
 9529W        W29063   6.031   2.504   2.643  0.2392  0.2938 -0.0430
 9530W        W29064   3.446  10.593  13.497 -0.2279  0.1055  0.1261
 9531W        W29065  12.832  14.965  11.557  0.1088 -0.0369 -0.1621
 9532W        W29066  15.987  19.513   1.777  0.1842 -0.2059 -0.0502
 9533W        W29067  13.371  16.868  13.594  0.0015  0.0503  0.1528
 9534W        W29068  10.342  10.071  12.160 -0.0061 -0.2291 -0.1993
 9535W        W29069  11.262   4.921   2.839  0.1396  0.0427  0.0697
 9536W        W29070  19.059   0.057   3.207 -0.0777  0.0717  0.0352
 9537W        W29071  13.323   5.102  14.291  0.0013  0.3025  0.3665
 9538W        W29072  10.108   2.191   3.387  0.0407 -0.1214 -0.2051
 9539W        W29073   6.303  11.652   0.035  0.2955  0.0608 -0.0305
 9540W        W29074   5.282   4.282   3.400  0.1618 -0.0019 -0.0329
 9541W        W29075   3.284  12.152  11.445  0.0762  0.1550  0.3665
 9542W        W29076  19.285   4.843  10.810 -0.0348  0.2237  0.2571
 9543W        W29077   9.668   0.114   3.276  0.0513 -0.1551 -0.0486
 9544W        W29078  11.647   4.724   0.223  0.1073  0.4116 -0.1190
 9545W        W29079  15.387   2.591  12.456  0.0255  0.2445  0.4567
 9546W        W29080  17.016   3.729  13.398 -0.1885  0.2392 -0.0383
 9547W        W29081  18.252   6.310   4.569  0.1466 -0.0894  0.1058
 9548W        W29082  11.854  15.208  10.665  0.1659  0.3996 -0.2332
 9549W        W29083  12.013   8.907   1.968  0.2679 -0.1027  0.0718
 9550W        W29084  14.013  12.294   1.126 -0.3259 -0.0471 -0.1805
 9551W        W29085  16.053   3.301   3.875  0.0420 -0.1153  0.0647
 9552W        W29086  15.881  14.927  14.268 -0.0498  0.1748 -0.1299
 9553W        W29087  10.688  12.739  13.252  0.0612  0.1436  0.0313
 9554W        W29088   4.974   2.603   1.567 -0.2722  0.0221 -0.2309
 9555W        W29089  11.112   2.035  13.047 -0.0886 -0.0338 -0.1372
 9556W        W29090   4.035  14.331   0.824  0.0774  0.0212  0.1554
 9557W        W29091  13.394  10.620   3.381 -0.1743 -0.1349 -0.1382
 9558W        W29092  18.693  13.094   0.143 -0.0128  0.0880 -0.0366
 9559W        W29093  11.502   1.457  11.808 -0.1674 -0.1529 -0.1124
 9560W        W29094  17.843   6.960  10.960 -0.4225 -0.2224  0.1084
 9561W        W29095   3.314  16.673   2.059 -0.4198  0.3284  0.1720
 9562W        W29096   5.643   8.140   2.792  0.1260 -0.2230 -0.3988
 9563W        W29097   9.622  13.634   1.399  0.1959  0.4790  0.1624
 9564W        W29098  18.284  12.184   1.714  0.1671 -0.4661 -0.1825
 9565W        W29099  11.920   1.031   3.650 -0.1745  0.2500  0.0006
 9566W        W29100  14.744   9.902  10.511  0.2240  0.1866 -0.1271
 9567W        W29101  14.484  14.533  12.922 -0.0709 -0.1320  0.0655
 9568W        W29102   8.152  16.954  10.118  0.0771 -0.0139 -0.0650
 9569W        W29103   2.275   6.318   1.100  0.2032  0.3355  0.0391
 9570W        W29104   4.787   1.916  11.064  0.0248 -0.3161  0.1742
 9571W        W29105   4.399   9.452  11.761  0.1603 -0.3210 -0.2006
 9572W        W29106   8.649  10.810   3.290 -0.0711 -0.2085  0.1798
 9573W        W29107  14.023   3.217   1.105 -0.0444  0.0591 -0.0494
 9574W        W29108   0.714  13.918   3.346 -0.1249 -0.3152  0.0388
 9575W        W29109   0.057  15.126   2.768  0.0672  0.2393 -0.0268
 9576W        W29110  14.026  14.377   0.575 -0.2383 -0.1261  0.0045
 9577W        W29111  11.524  12.406   0.933  0.0066 -0.0528 -0.1455
 9578W        W29112   8.736  17.165  12.664 -0.2395 -0.1742  0.0184
 9579W        W29113   9.316   1.432  14.098 -0.2861  0.1494  0.0476
 9580W        W29114   8.777  16.038   3.630 -0.0141  0.1393 -0.0380
 9581W        W29115  10.044  18.525  10.821  0.3395 -0.3978 -0.2626
 9582W        W29116  13.791   9.561   1.420  0.0540 -0.0701  0.0510
 9583W        W29117   3.460  16.526  11.470 -0.0553  0.1032  0.1191
 9584W        W29118  13.454  13.009   3.495  0.1250  0.0434 -0.3477
 9585W        W29119   2.578   6.644  12.395 -0.4149  0.0674  0.0630
 9586W        W29120  15.459  11.922  13.326  0.0218 -0.2636 -0.0520
 9587W        W29121   2.434  18.740  11.727 -0.2341  0.0065 -0.2220
 9588W        W29122  13.956  13.515   1.483  0.2097 -0.1864  0.1346
 9589W        W29123  13.402  14.344  11.103  0.2000  0.0383 -0.0957
 9590W        W29124  11.027   8.113   1.983  0.0273  0.1685  0.0972
 9591W        W29125   0.748  19.254   4.312 -0.1483  0.1059 -0.1729
 9592W        W29126  12.433   8.723   2.804 -0.0177 -0.1693  0.2313
 9593W        W29127   2.666   2.041   1.628 -0.2197  0.1413  0.4380
 9594W        W29128  12.771  13.618  13.391  0.0703 -0.1867 -0.0955
 9595W        W29129   2.667   3.419  13.125 -0.1535 -0.3511 -0.0430
 9596W        W29130  11.153   1.061   3.122 -0.1603 -0.0807 -0.2388
 9597W        W29131   9.403   6.176   2.579  0.0706  0.2107 -0.1770
 9598W        W29132  10.278  18.050  10.718  0.1333  0.1266 -0.1918
 9599W        W29133   0.031   9.663   1.329 -0.3116  0.0757  0.0906
 9600W        W29134  15.381  11.979  10.948  0.2356 -0.2065 -0.2108
 9601W        W29135   2.238   7.322  11.221  0.0718 -0.0031  0.2196
 9602W        W29136  13.123  16.322   2.914 -0.0363 -0.1178 -0.2237
 9603W        W29137  17.189  17.786  12.552 -0.0999  0.4267  0.0213
 9604W        W29138  10.615  16.593   2.620  0.1402 -0.5479  0.0860
 9605W        W29139  16.061  12.155   0.192 -0.0220  0.0570  0.0650
 9606W        W29140  15.562  13.687   1.481  0.2863  0.0825  0.1473
 9607W        W29141   5.610   6.852  13.785  0.0622  0.0376 -0.0480
 9608W        W29142   2.760  18.953   9.911  0.0602  0.0593 -0.2757
 9609W        W29143   3.052  18.548   2.336  0.1293 -0.1228 -0.0072
 9610W        W29144   1.938  15.686  13.032 -0.2903  0.2165  0.2063
 9611W        W29145  12.823  19.478   9.976 -0.1533 -0.1116  0.1895
 9612W        W29146   0.724  10.504  12.437  0.2099  0.1800 -0.1729
 9613W        W29147   0.801  11.701   3.123  0.0727  0.0816  0.1079
 9614W        W29148   9.402  13.527  12.422  0.0471  0.1044 -0.2026
 9615W        W29149   7.319   3.202  10.749 -0.1041 -0.1250 -0.2892
 9616W        W29150   1.145   2.136   1.134  0.0565 -0.0074  0.0072
 9617W        W29151  11.970   4.212   3.720  0.1594 -0.1131  0.1117
 9618W        W29152  17.608  11.715   1.504  0.0849 -0.2896  0.1058
 9619W        W29153  17.686  14.405   2.067  0.0707  0.0908  0.0280
 9620W        W29154   4.359  12.460   1.003  0.4101 -0.2375  0.0018
 9621W        W29155  16.889  11.456  14.030  0.1445  0.1668 -0.2093
 9622W        W29156   5.091   4.120   1.468 -0.1765  0.0120 -0.1375
 9623W        W29157  17.039  12.262  10.580  0.1624 -0.3055  0.2383
 9624W        W29158  10.778  15.502  12.181  0.0984 -0.3274 -0.0081
 9625W        W29159  13.946   9.601   3.080  0.0192  0.0978 -0.1417
 9626W        W29160   5.677  15.178   1.876  0.1826  0.2371  0.0782
 9627W        W29161   6.788   8.520  11.239  0.0680 -0.1288 -0.1369
 9628W        W29162  17.930   0.846  14.186 -0.1862  0.0172 -0.1811
 9629W        W29163   6.744  13.223  12.946 -0.1589 -0.0894  0.3013
 9630W        W29164  19.033  16.064  14.352  0.0372 -0.3045  0.0282
 9631W        W29165   7.434   7.626  12.464 -0.0634  0.4032  0.0855
 9632W        W29166  14.819  17.473  14.185 -0.1905 -0.3063  0.2148
 9633W        W29167   3.958  12.398  13.611 -0.1028  0.1797  0.0019
 9634W        W29168  18.558   1.365  10.802 -0.1824 -0.1461 -0.2737
 9635W        W29169   6.827   5.444   1.304  0.1902 -0.2373  0.1501
 9636W        W29170  10.780  17.479  12.163 -0.0154 -0.0503 -0.1244
 9637W        W29171  12.207  14.904   1.189  0.2231 -0.0527 -0.0344
 9638W        W29172  11.496  10.395  10.941  0.3223 -0.0826  0.2814
 9639W        W29173   5.779   3.215   9.334 -0.0692  0.1963 -0.1708
 9640W        W29174   3.888  12.915   3.770  0.4039 -0.0497 -0.0052
 9641W        W29175   1.139   2.120  10.666 -0.3274  0.0056 -0.2232
 9642W        W29176   7.412  15.198  12.075 -0.0673  0.3593 -0.0927
 9643W        W29177  14.296  16.163  10.931 -0.0307  0.4261  0.0477
 9644W        W29178  13.782  15.308  13.157  0.0865  0.0786 -0.0107
 9645W        W29179   7.619  17.679  10.233 -0.1613 -0.1587 -0.4454
 9646W        W29180  17.415  14.417   9.189  0.0415  0.0248 -0.5675
 9647W        W29181   3.490  13.417  11.582 -0.1952 -0.0101 -0.2523
 9648W        W29182  17.435   0.756  13.115  0.1038 -0.1045 -0.0513
 9649W        W29183  13.073   7.966   3.716 -0.0712 -0.0056  0.2653
 9650W        W29184  12.905  16.962   3.295  0.2445  0.2060 -0.1163
 9651W        W29185   0.053   3.567  12.497 -0.1024  0.0296 -0.0845
 9652W        W29186   7.955  17.215   0.603 -0.2202 -0.3852 -0.3317
 9653W        W29187  18.965  13.768   1.219  0.0400 -0.1672  0.0689
 9654W        W29188  10.643   0.608   3.765 -0.0117 -0.3608 -0.2121
 9655W        W29189  14.127  15.608  12.268  0.0062 -0.0761  0.1151
 9656W        W29190  12.659   9.622  13.343 -0.2932 -0.2274  0.2793
 9657W        W29191   9.889  16.740   0.643  0.1320 -0.0715 -0.0902
 9658W        W29192   4.888  14.283  10.108 -0.1154  0.3547  0.0764
 9659W        W29193   0.899   7.317   2.896 -0.1397  0.0046  0.1500
 9660W        W29194  17.368   1.814  12.962  0.1800  0.0765  0.1799
 9661W        W29195   9.559  10.093   2.049  0.1238  0.2350 -0.1048
 9662W        W29196  12.131   3.881  10.551  0.0993 -0.0084  0.0697
 9663W        W29197   3.910  17.524  12.218  0.0395  0.2552  0.2076
 9664W        W29198   9.528   2.775   4.924  0.1741 -0.0590 -0.2377
 9665W        W29199   8.784   8.279   3.597 -0.1480  0.1771 -0.1322
 9666W        W29200  18.049  10.070  10.933  0.3093 -0.1565  0.0399
 9667W        W29201   9.955  15.259   1.021 -0.0912 -0.3397 -0.0621
 9668W        W29202  16.640   5.023  14.234  0.0646 -0.1040  0.2078
 9669W        W29203  12.112  18.841  10.341  0.0286 -0.2623  0.1048
 9670W        W29204  12.030  11.389   9.941  0.2567 -0.1364 -0.2759
 9671W        W29205  13.786  11.213   1.132 -0.1223  0.0537 -0.0559
 9672W        W29206  14.998   0.242   2.678  0.1498 -0.0843 -0.2075
 9673W        W29207   3.154   4.738  13.694  0.1436  0.0770  0.0049
 9674W        W29208   5.389  14.453   3.162 -0.3016  0.1220 -0.1752
 9675W        W29209   9.386  13.849   1.007 -0.0320  0.0219 -0.0197
 9676W        W29210   2.266   5.605  11.983 -0.1889 -0.0407  0.3145
 9677W        W29211  17.429  12.829   4.007 -0.3725  0.1049  0.0736
 9678W        W29212  10.388   9.847  10.737  0.3134 -0.2449 -0.0129
 9679W        W29213   7.263  14.132   9.462 -0.0218 -0.1572  0.0699
 9680W        W29214  13.295  14.884  11.777 -0.1043 -0.1003 -0.2170
 9681W        W29215  18.250   7.533   4.255  0.1012 -0.1467  0.3315
 9682W        W29216   4.182   6.862   1.220  0.4143  0.1122 -0.2484
 9683W        W29217   6.387   7.228   0.285 -0.4439  0.0215  0.3728
 9684W        W29218   1.681   4.219   0.507 -0.4023 -0.0160  0.3596
 9685W        W29219   0.398  16.093   0.426 -0.1628  0.1418  0.0815
 9686W        W29220  14.760   8.706   0.479  0.1053  0.3268  0.1188
 9687W        W29221   5.289   1.959   0.739  0.2767 -0.0740 -0.2804
 9688W        W29222   2.398  15.138  12.989 -0.1802  0.0151  0.0213
 9689W        W29223   4.393  11.111   0.689  0.1711  0.1884  0.3331
 9690W        W29224  12.432  11.050   2.353  0.1673 -0.3021 -0.0486
 9691W        W29225   3.911   3.505  13.364  0.1045  0.3022  0.0659
 9692W        W29226   6.899  10.005  11.164  0.2672  0.0664 -0.0735
 9693W        W29227   3.029   6.963  13.451  0.2400 -0.1754 -0.3049
 9694W        W29228   0.506  14.514  11.373  0.1881  0.0179 -0.2013
 9695W        W29229  18.373   7.285   1.750  0.0338  0.0206  0.2068
 9696W        W29230  16.628   0.416  13.053  0.0898  0.1832 -0.1003
 9697W        W29231   9.113  16.355   1.056  0.1635  0.1145  0.2073
 9698W        W29232   4.238  11.288   2.583  0.3210 -0.1415 -0.1149
 9699W        W29233   6.730   2.637   0.120 -0.0744 -0.3518 -0.2393
 9700W        W29234   8.565   1.868   2.459  0.0124  0.2270 -0.2693
 9701W        W29235  19.148   4.447   1.122  0.2357  0.0303  0.0566
 9702W        W29236  14.672   2.025  12.299  0.0239 -0.0453 -0.2899
 9703W        W29237   4.610  14.134   3.442  0.0269  0.0203 -0.0507
 9704W        W29238   7.844   3.297   3.624  0.1577  0.0646  0.0058
 9705W        W29239   2.953  15.349   3.994  0.0385 -0.2822 -0.0226
 9706W        W29240   9.063  13.605   0.099 -0.3538  0.0970 -0.1262
 9707W        W29241  10.357  18.229  13.501 -0.2064  0.0153 -0.0413
 9708W        W29242   3.655   2.470  13.413  0.3967  0.2500 -0.0492
 9709W        W29243  14.120   1.848   0.461  0.2205  0.2521 -0.2417
 9710W        W29244  13.908   2.034  11.131  0.0707 -0.3946  0.3169
 9711W        W29245   0.976  17.859   3.360 -0.0276 -0.1978  0.3502
 9712W        W29246  15.752  13.330  10.994  0.0344 -0.0293 -0.1049
 9713W        W29247  16.776   0.575   1.769  0.0319  0.0120 -0.3528
 9714W        W29248  14.406  10.487  12.959  0.2803  0.1286  0.0741
 9715W        W29249  15.160   7.617  13.636  0.0123 -0.0302 -0.0530
 9716W        W29250   6.158   8.290  12.408  0.5084 -0.1036 -0.1525
 9717W        W29251   0.125   5.629   2.323 -0.0141 -0.2076 -0.0677
 9718W        W29252  18.273  15.705  11.205  0.2571  0.1389  0.1313
 9719W        W29253   9.454  19.035   3.759 -0.0322 -0.0108 -0.0430
 9720W        W29254  15.562  16.857   1.939  0.3736 -0.0975 -0.3157
 9721W        W29255   2.671  11.710  11.861 -0.0653  0.0603 -0.0542
 9722W        W29256   4.990  12.156  13.452 -0.0980 -0.4950 -0.0642
 9723W        W29257   1.736   4.411  11.351  0.3042 -0.0580  0.2373
 9724W        W29258  14.641   1.280  12.271 -0.2048  0.1716 -0.0769
 9725W        W29259   4.929   6.524   1.034 -0.2542  0.0139 -0.4065
 9726W        W29260  14.848  11.791   2.367  0.1618  0.0709  0.2437
 9727W        W29261  14.136  14.054  13.302  0.1631  0.1442 -0.0293
 9728W        W29262  16.121   3.376   1.273  0.0207 -0.3597  0.0530
 9729W        W29263  12.223  14.572  12.748 -0.0743 -0.0500  0.1936
 9730W        W29264   1.516   7.985   2.328 -0.0028 -0.0503  0.0091
 9731W        W29265   2.529  14.014   0.329  0.1662  0.0945 -0.4059
 9732W        W29266   7.132   5.041   3.128  0.1248 -0.1176 -0.1409
 9733W        W29267  12.544  10.982  11.431  0.2344  0.1559  0.0314
 9734W        W29268   4.871   4.521   1.310 -0.0832  0.1536  0.2937
 9735W        W29269  15.036   1.233  13.775  0.0227  0.2937 -0.1654
 9736W        W29270   1.429  13.446  13.038 -0.0776  0.2117 -0.2247
 9737W        W29271  11.210  10.572   3.595  0.2029 -0.3328  0.3565
 9738W        W29272  14.022   7.306   0.337 -0.0508 -0.2395 -0.2008
 9739W        W29273  11.103  14.118   3.747  0.0539 -0.0239  0.0012
 9740W        W29274  11.056   0.564  11.593 -0.2196  0.1147 -0.0442
 9741W        W29275   3.817   6.152  12.726  0.0395  0.0734  0.1592
 9742W        W29276   0.128  11.785   0.028  0.3326 -0.1489  0.1930
 9743W        W29277  19.012   8.561   2.300  0.1790 -0.2295 -0.1860
 9744W        W29278   4.795  18.744   1.812 -0.2053  0.2100  0.3087
 9745W        W29279   0.231   3.210  11.494  0.3083 -0.3148 -0.0591
 9746W        W29280   4.752  19.117  11.352  0.2547  0.0109 -0.2513
 9747W        W29281  17.065   1.296  13.576  0.0260  0.2182  0.2042
 9748W        W29282  15.410   9.340   0.953  0.1387 -0.1106  0.3905
 9749W        W29283   2.968  10.943  12.722 -0.0327 -0.2006 -0.2081
 9750W        W29284   2.107  10.340  11.130  0.2436 -0.2683 -0.1547
 9751W        W29285  13.633  13.337  12.933 -0.0318  0.0558 -0.2202
 9752W        W29286   9.227   3.926  12.291  0.2404  0.2599 -0.1018
 9753W        W29287  12.326  15.762  13.289  0.2054 -0.2283 -0.5324
 9754W        W29288   6.825   0.078  11.803 -0.2022 -0.1119  0.1209
 9755W        W29289  11.683   3.047  14.242 -0.2487 -0.0886 -0.0523
 9756W        W29290  13.379  13.391  14.112 -0.1108 -0.0606 -0.1117
 9757W        W29291  12.178  14.743  13.337 -0.0429 -0.0817  0.1721
 9758W        W29292   6.072   1.539   1.921  0.0983  0.2842  0.3603
 9759W        W29293   8.167   0.436  12.627 -0.0176 -0.0490 -0.2948
 9760W        W29294  18.056   2.663   1.296 -0.2934  0.1417  0.0240
 9761W        W29295   0.550   6.562   3.022 -0.0541 -0.0063  0.2619
 9762W        W29296  12.336   5.086   3.644 -0.1995 -0.1621  0.3166
 9763W        W29297   5.695   1.571  14.238 -0.2758 -0.2227 -0.5425
 9764W        W29298   2.836  10.910   3.732 -0.0547  0.2081  0.1407
 9765W        W29299  18.499  14.970   8.891 -0.0373 -0.0459 -0.1382
 9766W        W29300   3.811   5.389   1.537  0.0908 -0.3233  0.1284
 9767W        W29301   2.662  12.564  13.437 -0.3047  0.3066 -0.1195
 9768W        W29302   0.419  12.452  13.664  0.1534  0.4812  0.2821
 9769W        W29303   8.869   4.232  13.587  0.1340  0.0135  0.0898
 9770W        W29304   2.804   4.794   2.107 -0.0444  0.1133  0.0638
 9771W        W29305  19.224  11.806  13.018  0.1476 -0.2504 -0.1113
 9772W        W29306   0.376  10.843  12.633  0.0528 -0.0028 -0.1729
 9773W        W29307  17.500   0.007   2.719 -0.1260 -0.3699 -0.0993
 9774W        W29308  11.993   0.796   1.952  0.0717 -0.3113  0.1190
 9775W        W29309  19.143  10.576  14.356 -0.1621 -0.2491  0.0630
 9776W        W29310  13.121   8.332  10.629  0.0761  0.2171  0.3301
 9777W        W29311  16.297  13.434  10.318 -0.0117 -0.1168  0.2251
 9778W        W29312   9.233  11.849   1.807  0.2103  0.3108 -0.1302
 9779W        W29313   4.446  15.498   1.549 -0.2317  0.1270 -0.2531
 9780W        W29314   9.484   6.537  10.823  0.1031 -0.2106 -0.0512
 9781W        W29315  11.667  10.532   3.896 -0.0617  0.1738 -0.0846
 9782W        W29316  15.308  13.462   3.543 -0.1630 -0.0156  0.2146
 9783W        W29317  16.839   5.334   1.170  0.2732  0.1313  0.2313
 9784W        W29318  17.159   8.388  12.347  0.1873  0.1791  0.2580
 9785W        W29319  17.624  16.009  12.225 -0.3189  0.1449  0.0349
 9786W        W29320   2.731  19.184   1.530  0.0918 -0.2324  0.0187
 9787W        W29321  10.229   5.697   1.499 -0.1288 -0.4604 -0.0441
 9788W        W29322  16.622   2.912  10.424  0.1735  0.1264  0.2676
 9789W        W29323   1.078   7.683   1.392  0.0751 -0.4239 -0.2168
 9790W        W29324   1.998  19.029   9.788  0.0308  0.0752  0.1393
 9791W        W29325   7.361  18.837  11.138  0.1530 -0.3502  0.0070
 9792W        W29326   9.421   8.114  14.268  0.3787  0.1420  0.1588
 9793W        W29327   2.388  15.960  11.835  0.0220 -0.2538  0.0557
 9794W        W29328  10.643   7.407   0.283 -0.0917 -0.1957 -0.1703
 9795W        W29329   2.255   6.066   9.925  0.1118 -0.2169 -0.2037
 9796W        W29330  19.072   8.615   3.309 -0.0127 -0.0254  0.2416
 9797W        W29331  13.885  13.045  10.918  0.2946  0.2726  0.0224
 9798W        W29332   7.527   9.360   2.172 -0.2132  0.0230  0.0148
 9799W        W29333  16.528  13.524  12.905  0.1344 -0.1490  0.1761
 9800W        W29334  10.523  18.805  10.627  0.0301 -0.0187  0.1331
 9801W        W29335   1.968   2.154   2.296 -0.0939 -0.0289  0.2308
 9802W        W29336  19.255   9.624   5.340  0.1361  0.3450  0.2885
 9803W        W29337   0.800  10.867  11.589 -0.2324  0.0002  0.0616
 9804W        W29338  17.596  17.597   3.293  0.1261  0.3585 -0.2832
 9805W        W29339  11.801  19.511  11.621  0.2486  0.0548  0.1197
 9806W        W29340  15.899   6.641  12.259 -0.1286 -0.0507 -0.0259
 9807W        W29341   3.756   6.572  14.028 -0.1584  0.0528  0.1271
 9808W        W29342  18.170  19.454   2.247 -0.0799  0.3802 -0.2231
 9809W        W29343  17.812   5.052   3.848  0.3774 -0.2374 -0.1174
 9810W        W29344   4.062  19.384  12.470 -0.1380 -0.1305 -0.1413
 9811W        W29345   8.733   5.789   2.587 -0.1362  0.0658  0.2245
 9812W        W29346   8.038   7.625  13.178  0.0288 -0.0562  0.0085
 9813W        W29347   5.339  11.968  10.722  0.1032  0.0280 -0.2059
 9814W        W29348   3.461   7.265   2.843 -0.2223 -0.3166  0.1898
 9815W        W29349   0.696  11.850   2.063 -0.1709 -0.0147  0.1918
 9816W        W29350   9.868  16.838  14.235  0.0404 -0.0193  0.0673
 9817W        W29351   7.028  11.526   9.872 -0.0100  0.2026  0.1432
 9818W        W29352   0.052  17.003  12.817 -0.0074  0.0209 -0.0130
 9819W        W29353  13.274   4.899  11.010  0.0096  0.0615  0.0637
 9820W        W29354  17.575   5.743  13.005 -0.3133 -0.4537  0.0672
 9821W        W29355   0.051  13.524   0.131 -0.0549 -0.3462  0.0158
 9822W        W29356   1.859  15.827  12.506 -0.4020 -0.2117  0.2719
 9823W        W29357  14.490  14.390   1.603  0.0225  0.0571  0.2042
 9824W        W29358  18.232   8.323   2.239 -0.3750 -0.2430  0.1907
 9825W        W29359  13.800   6.475  13.910  0.0741 -0.1911 -0.0546
 9826W        W29360   1.381   5.036   2.140  0.1259 -0.2800 -0.5156
 9827W        W29361   3.482  17.509  11.901 -0.0215 -0.2575 -0.1761
 9828W        W29362   0.506  14.670   3.534  0.0566 -0.1398  0.4402
 9829W        W29363   9.945  14.868  12.523 -0.1080 -0.1598 -0.1238
 9830W        W29364   7.502   7.471  11.610  0.0928  0.0425  0.0604
 9831W        W29365  17.705  10.864   2.734 -0.1411 -0.0957  0.0192
 9832W        W29366  11.981   3.236   4.042  0.3443  0.2040  0.1274
 9833W        W29367  14.356  17.755   0.596 -0.2479  0.1179 -0.1227
 9834W        W29368  17.879   0.351   3.641  0.2438  0.0910  0.1100
 9835W        W29369  16.022  13.193   2.203 -0.2521 -0.1932  0.0191
 9836W        W29370   4.495  18.316   3.804  0.1505 -0.1286 -0.2256
 9837W        W29371   9.841  12.460   0.229  0.2567  0.0689 -0.2799
 9838W        W29372  18.016  18.543   3.990  0.2077  0.0206 -0.1601
 9839W        W29373  15.736   2.422   2.896  0.1961  0.1686  0.1950
 9840W        W29374  14.943   3.803  12.501 -0.0723  0.1811 -0.1571
 9841W        W29375  10.234  18.773   1.236  0.1261  0.1149 -0.0862
 9842W        W29376  16.349  19.249   3.551  0.1477  0.0707  0.1846
 9843W        W29377   6.261   8.731  12.841 -0.1782  0.0369  0.0770
 9844W        W29378   7.014   0.492   9.466  0.1678  0.1224 -0.0613
 9845W        W29379   4.547   6.538   1.343 -0.0497 -0.1893  0.2137
 9846W        W29380  14.766   3.144   0.031 -0.2532  0.1171  0.3310
 9847W        W29381   1.569  18.411  10.225 -0.0374 -0.1886 -0.2335
 9848W        W29382  12.814  12.016   1.011 -0.4032  0.2071  0.2161
 9849W        W29383   5.064  12.575  13.065  0.1702 -0.2661  0.1488
 9850W        W29384   3.835  17.103  11.841 -0.0745  0.0824  0.0564
 9851W        W29385   1.834  13.055  13.099 -0.1950 -0.0200 -0.3186
 9852W        W29386   2.124  14.612  14.288 -0.0350 -0.0749 -0.2282
 9853W        W29387  13.577  10.359  11.361 -0.0322 -0.0131  0.1324
 9854W        W29388   5.786  12.076   3.102  0.1519  0.1513 -0.0061
 9855W        W29389  12.991   5.601  10.637  0.2532 -0.1037 -0.3268
 9856W        W29390   7.305   6.398  11.153 -0.0087 -0.2882 -0.1227
 9857W        W29391  18.832   9.973   2.066  0.0044  0.4269 -0.2602
 9858W        W29392   6.935  18.226  11.824  0.1130 -0.1795  0.0626
 9859W        W29393  17.358  13.774  10.763  0.2873  0.1533 -0.0146
 9860W        W29394  14.976   5.978  12.881 -0.0408 -0.0912  0.0357
 9861W        W29395  19.305  11.393  12.345 -0.0605  0.1147  0.0049
 9862W        W29396   5.099   6.459   2.657 -0.0264 -0.1102 -0.0122
 9863W        W29397   1.708  18.196   3.720 -0.1328 -0.0020  0.0637
 9864W        W29398  16.920   5.267   0.168 -0.0023  0.1921  0.1204
 9865W        W29399  11.395   6.398  13.789 -0.2192 -0.1329  0.0649
 9866W        W29400   5.626   3.853  11.503  0.0259 -0.0255 -0.0748
 9867W        W29401  13.180   1.049  10.951 -0.2769  0.1008  0.0198
 9868W        W29402   7.486   4.929   0.834 -0.1541  0.2282 -0.2344
 9869W        W29403   1.100  11.836  10.612  0.0831 -0.2208  0.1101
 9870W        W29404  18.014  19.185  10.486 -0.4118  0.0828 -0.3146
 9871W        W29405   6.182   4.360   2.971  0.0662  0.1193 -0.0467
 9872W        W29406   9.806  16.610   1.640 -0.1532 -0.2789 -0.1445
 9873W        W29407  17.094  16.152  13.624 -0.1366 -0.1756 -0.1243
 9874W        W29408  10.500  10.931   2.518 -0.0526 -0.1239  0.0218
 9875W        W29409   8.368   7.049  12.012  0.1499 -0.4165 -0.0967
 9876W        W29410  14.972  14.124  10.779  0.0618  0.0141  0.1537
 9877W        W29411   2.014  12.331  12.863 -0.0237  0.2216 -0.1751
 9878W        W29412  18.129  14.877   0.240 -0.1603 -0.0009  0.0436
 9879W        W29413  13.505  10.962   3.739 -0.0420  0.1179  0.0960
 9880W        W29414  17.478  12.264   2.236 -0.0175  0.0998 -0.0647
 9881W        W29415  17.598   9.431   0.216 -0.0604 -0.3732  0.1843
 9882W        W29416  16.567   0.669  13.526  0.1660 -0.0169 -0.1032
 9883W        W29417   7.436   6.327   1.755 -0.0077 -0.0786  0.2905
 9884W        W29418  16.477  14.012   1.709 -0.0189 -0.1136  0.1291
 9885W        W29419  14.294  14.665  13.812  0.2396 -0.1927 -0.1257
 9886W        W29420   3.265   4.864  11.454 -0.2597  0.0602  0.1450
 9887W        W29421  16.252   3.036   1.687 -0.2626 -0.1546  0.1817
 9888W        W29422  11.848   7.489  12.299  0.4212 -0.0755  0.2385
 9889W        W29423  19.429   0.187   3.636  0.2460 -0.2911  0.3948
 9890W        W29424   8.217  18.588  11.107  0.1150  0.0051 -0.1169
 9891W        W29425   2.841  14.523   3.478 -0.1974  0.2046 -0.0120
 9892W        W29426  11.210  14.412  14.078 -0.1553  0.0143 -0.0321
 9893W        W29427  16.950   9.062  13.594  0.0155  0.2161  0.1882
 9894W        W29428  10.274   7.540  14.265  0.0442  0.0348 -0.0573
 9895W        W29429   8.871  19.040  11.475 -0.0533 -0.1395  0.1267
 9896W        W29430  12.985   8.240  11.496 -0.3301  0.4258  0.0096
 9897W        W29431   5.365   4.533  12.871 -0.3358  0.2563  0.1685
 9898W        W29432   8.880   9.270   0.133  0.2540  0.4950  0.0487
 9899W        W29433  11.769  19.359   2.553 -0.1669  0.1192  0.0202
 9900W        W29434  17.936   5.033  10.631  0.1651 -0.1080 -0.1653
 9901W        W29435  19.432  19.243  10.946 -0.1738 -0.1530  0.2427
 9902W        W29436   7.153  17.968  12.553  0.0517  0.1469  0.0350
 9903W        W29437   7.841  12.873  12.674 -0.2775 -0.2115  0.2708
 9904W        W29438   6.695  10.621   2.270  0.1613  0.0778  0.1700
 9905W        W29439   2.511   3.212   3.306  0.1914 -0.0486  0.0344
 9906W        W29440   5.762   7.763  10.878  0.2100  0.0064 -0.2015
 9907W        W29441   2.538  15.711  12.274  0.1138 -0.2396  0.0533
 9908W        W29442   1.193   1.882  13.290 -0.2211 -0.2801 -0.0602
 9909W        W29443  11.876   5.639  12.587  0.4216 -0.2540 -0.0019
 9910W        W29444   0.926  14.645  11.587 -0.0842 -0.3293 -0.0877
 9911W        W29445   5.552  14.824   0.497 -0.0384  0.1440 -0.5039
 9912W        W29446   9.563   5.439   9.769  0.0231  0.0686  0.0083
 9913W        W29447   1.430   3.189   3.959  0.2418  0.1070  0.3575
 9914W        W29448   9.908   8.881   3.232 -0.1558  0.0276 -0.1912
 9915W        W29449   7.777   0.263   2.136 -0.2621  0.5040  0.1643
 9916W        W29450  14.141  13.250   2.330  0.4618 -0.0167 -0.0910
 9917W        W29451  19.200   6.959   4.103  0.4312 -0.1649 -0.0121
 9918W        W29452  11.079   8.298   3.705  0.1363  0.2600 -0.1995
 9919W        W29453  18.064  14.373  11.408 -0.0848 -0.2398 -0.2694
 9920W        W29454   8.940   2.594   3.054  0.0050 -0.1563  0.1201
 9921W        W29455   1.618  15.886   2.853  0.0239 -0.2244 -0.0662
 9922W        W29456   3.462  18.026   3.461 -0.1125 -0.2351  0.1618
 9923W        W29457  12.445  16.050   2.411 -0.0155  0.0669 -0.3372
 9924W        W29458  11.801  10.967   0.734  0.0578 -0.0535  0.1317
 9925W        W29459  13.678   7.691  10.921  0.2639  0.1430 -0.2261
 9926W        W29460  18.137   2.627  10.549  0.0569 -0.2095  0.0456
 9927W        W29461  13.847   4.222   1.889 -0.0665  0.0128 -0.0795
 9928W        W29462  11.159   2.090   0.252  0.1480 -0.0952 -0.3203
 9929W        W29463   6.409  10.740   4.468  0.0522 -0.0216  0.0465
 9930W        W29464   0.544  10.174  11.132  0.0516  0.2020 -0.0057
 9931W        W29465   0.315  16.027   3.630  0.1393 -0.1240  0.0573
 9932W        W29466   0.933   1.161  12.421  0.3611  0.1929 -0.0842
 9933W        W29467  17.731  15.023   0.944 -0.0115  0.0367 -0.1085
 9934W        W29468  10.938  19.106   9.873  0.2435 -0.2028 -0.1136
 9935W        W29469   6.638   6.145   2.874  0.2812  0.2651  0.2006
 9936W        W29470   5.713  11.347   0.915  0.0179 -0.0468  0.1423
 9937W        W29471  10.376   1.124  10.794  0.1760 -0.2128 -0.0918
 9938W        W29472  11.154   5.033   3.728  0.0507 -0.2202 -0.0313
 9939W        W29473   5.724   0.570   3.932  0.1373  0.0594 -0.1572
 9940W        W29474   4.994   6.582   2.128  0.1534 -0.3410  0.0181
 9941W        W29475  18.708   3.974  11.982  0.0937  0.2218 -0.0903
 9942W        W29476   9.754   9.778   2.352  0.4084  0.0558 -0.4153
 9943W        W29477   5.368   6.771   1.309  0.0784  0.3265  0.1094
 9944W        W29478  10.135   5.377   2.685 -0.2308  0.0403 -0.2111
 9945W        W29479   4.529   7.062  13.838 -0.3172  0.1395 -0.2159
 9946W        W29480  10.259  11.204  10.704 -0.0289 -0.1072  0.2561
 9947W        W29481  11.666   9.575  10.654 -0.2138  0.0219 -0.0247
 9948W        W29482   3.559   8.855  12.344  0.2954  0.3047  0.0848
 9949W        W29483  12.016  12.416  12.399  0.0837  0.1951  0.0208
 9950W        W29484  13.765  11.386  10.515 -0.0656 -0.1056  0.2489
 9951W        W29485   1.518   8.298  11.721  0.0812 -0.0081  0.4453
 9952W        W29486  17.969  15.246   0.537 -0.0595  0.3477 -0.0259
 9953W        W29487  16.461  18.574  13.955 -0.2947 -0.5045 -0.0333
 9954W        W29488  13.215   6.336   2.928  0.2537  0.2701  0.1785
 9955W        W29489  16.477  19.413  12.270  0.1083 -0.1648  0.1852
 9956W        W29490   2.552   7.235  13.841  0.1678 -0.0104  0.0297
 9957W        W29491   5.763  15.720   2.681  0.0057 -0.1087 -0.0020
 9958W        W29492   6.834  17.325   3.903  0.2240 -0.0533 -0.1000
 9959W        W29493  18.136   2.220   4.911 -0.0548 -0.2158  0.2126
 9960W        W29494  12.264   6.817   1.108 -0.0559 -0.1848 -0.1867
 9961W        W29495  17.712   0.281  12.134 -0.1160  0.2005  0.1226
 9962W        W29496  12.582  14.757   0.869  0.0882  0.2292 -0.1982
 9963W        W29497   6.980   5.092   4.131  0.1287 -0.0701  0.2606
 9964W        W29498   1.303   8.455  11.259 -0.2545 -0.3042  0.2181
 9965W        W29499  14.159   4.398  12.779 -0.0955  0.3252 -0.2668
 9966W        W29500   7.705  17.494   3.939  0.1616  0.3683 -0.3023
 9967W        W29501   4.035  12.869  12.899 -0.0659  0.1342  0.0358
 9968W        W29502  15.309  10.764   3.711  0.2455 -0.0886 -0.0358
 9969W        W29503  14.420  11.028  13.911 -0.0933  0.1904  0.1359
 9970W        W29504   5.498  17.998   3.809 -0.0627 -0.1114  0.0986
 9971W        W29505  10.632   9.168   0.900  0.1676 -0.0801 -0.2438
 9972W        W29506  15.880   3.267   3.315 -0.1494 -0.2188  0.0101
 9973W        W29507   7.211   3.351  13.148  0.0111 -0.0604 -0.1124
 9974W        W29508  17.637  10.587  13.182 -0.1666  0.3168  0.2159
 9975W        W29509  17.786  10.842   3.256  0.4665 -0.1515  0.3658
 9976W        W29510  10.570  12.763   4.441  0.2635  0.0446 -0.0671
 9977W        W29511   5.458  11.617  14.102  0.2478  0.0776  0.1821
 9978W        W29512  12.738  15.298   3.012 -0.0443 -0.0752 -0.0222
 9979W        W29513  15.532  15.815   1.115 -0.4175 -0.2085  0.0696
 9980W        W29514  12.491   7.065   2.189  0.0961  0.1493 -0.2183
 9981W        W29515   0.095  17.868  13.565  0.0149 -0.0991  0.0279
 9982W        W29516   2.695  10.562  11.800 -0.1169  0.0467  0.1341
 9983W        W29517   5.024  13.644   1.337  0.1391  0.0145  0.0485
 9984W        W29518   8.710   0.757  10.866  0.0231  0.1416  0.0474
 9985W        W29519  18.368  12.978   1.037  0.1911 -0.0180  0.0484
 9986W        W29520  17.646   0.069   3.201 -0.0463 -0.0281 -0.0224
 9987W        W29521   0.641  11.352   2.275 -0.3542  0.0913  0.3587
 9988W        W29522  15.658   6.734   2.210 -0.0233 -0.0553 -0.2958
 9989W        W29523   4.726   2.128  13.282  0.0524 -0.2677 -0.0696
 9990W        W29524  18.107  14.562   1.777  0.0107 -0.2485 -0.0403
 9991W        W29525  18.608   1.521  12.844  0.0521  0.2340  0.2248
 9992W        W29526  11.478   4.114  11.972 -0.2903  0.0622 -0.1815
 9993W        W29527  11.070   4.488  11.112 -0.0675  0.3430 -0.0981
 9994W        W29528   6.846   9.068  13.585 -0.1989  0.0251 -0.2843
 9995W        W29529   4.355   5.437   0.578  0.1413 -0.1762 -0.2363
 9996W        W29530   6.339  18.812   1.662 -0.2076  0.0804  0.0659
 9997W        W29531   7.534  10.740   2.817  0.1769  0.2306  0.0315
 9998W        W29532   9.167  12.930  13.078 -0.2939  0.0700  0.0470
 9999W        W29533  10.459   8.325  10.040  0.0505  0.0129  0.0672
10000W        W29534   1.302  15.511   2.119 -0.2958  0.2232 -0.2725
10001W        W29535  12.047   7.564   0.480 -0.1088 -0.3105  0.0851
10002W        W29536  14.726  12.005   0.045 -0.0244 -0.1399 -0.2234
10003W        W29537  17.080  14.308   0.236 -0.1357  0.0480  0.1507
10004W        W29538  15.994  13.562   2.696  0.0193 -0.0118  0.2608
10005W        W29539  14.554   1.931   5.159  0.1698 -0.0606 -0.1488
10006W        W29540  10.447  14.903  11.522  0.1296 -0.1644  0.1195
10007W        W29541   5.584   0.848  10.603  0.2922 -0.1490 -0.1070
10008W        W29542   7.094  18.502   3.081  0.1887  0.0418 -0.1460
10009W        W29543  17.116   1.944   3.914 -0.0116  0.0144  0.1900
10010W        W29544  14.956  11.962   9.944 -0.0045  0.0116  0.1627
10011W        W29545  11.338   5.786  12.424 -0.0550 -0.2858 -0.0240
10012W        W29546   8.146   7.141   2.297 -0.1051 -0.2862  0.1569
10013W        W29547  16.732  19.352   0.739  0.2224  0.2251  0.4818
10014W        W29548   2.315   6.692   0.181  0.0527  0.1049 -0.2821
10015W        W29549   7.829   2.544  13.891  0.1442  0.3943 -0.1144
10016W        W29550   8.820  10.042  11.928  0.0513 -0.0819  0.1077
10017W        W29551  11.272  14.850   2.797  0.0381  0.1131  0.3744
10018W        W29552   3.641  12.942   3.346  0.1865 -0.0627 -0.3128
10019W        W29553  19.455  18.017   2.139 -0.2544  0.3174 -0.1582
10020W        W29554   9.807  15.906   3.769 -0.0642  0.1892 -0.4328
10021W        W29555  14.877  14.838   3.016  0.2558 -0.0135  0.0125
10022W        W29556  18.199  10.020   9.981 -0.2049  0.5262  0.3767
10023W        W29557   1.638  18.127  12.121  0.3744  0.2963 -0.1717
10024W        W29558  13.248   2.023  12.312  0.0235  0.1608 -0.2524
10025W        W29559   6.709  16.512   0.727 -0.0915  0.0328 -0.1381
10026W        W29560  18.109  17.153  12.470 -0.3102 -0.0812  0.0211
10027W        W29561  11.926   3.461  11.534 -0.0757  0.0669 -0.0687
10028W        W29562   8.367   0.603  10.565 -0.3332 -0.0759 -0.2268
10029W        W29563  15.452  11.278  11.875  0.0568  0.0845  0.5091
10030W        W29564  18.175  18.236  13.071  0.0019 -0.3824 -0.5991
10031W        W29565  13.707  16.191   2.722  0.1843 -0.2007  0.0083
10032W        W29566   4.849  13.313   3.125 -0.1030  0.6677 -0.1668
10033W        W29567   9.594   4.837   1.737 -0.0976 -0.1186  0.1519
10034W        W29568  18.986  18.005  13.755  0.3165 -0.1311 -0.0531
10035W        W29569  18.744   7.684   3.234  0.5283 -0.0385  0.0236
10036W        W29570   2.245  12.896   1.522  0.2603  0.0948 -0.0815
10037W        W29571   7.553   5.979   0.871 -0.0094 -0.1504 -0.0042
10038W        W29572  15.816   6.400   3.697 -0.0602 -0.3252 -0.0253
10039W        W29573  18.401  13.534  12.067 -0.0637 -0.1900 -0.1772
10040W        W29574   7.842  14.091  13.461  0.1055 -0.0254 -0.1282
10041W        W29575  15.355  14.825  14.188 -0.0699 -0.6082  0.0520
10042W        W29576  12.158  18.351   2.033  0.2658 -0.1182  0.1415
10043W        W29577   9.839  13.263  11.868 -0.0459 -0.0113  0.0503
10044W        W29578   6.127  16.371   1.878 -0.0607 -0.2111 -0.1432
10045W        W29579   2.656   9.546   3.318 -0.3683  0.2078  0.0032
10046W        W29580   2.880  19.045   2.433 -0.2693  0.2899  0.2457
10047W        W29581   3.905  14.165  12.053 -0.1953 -0.0188  0.0288
10048W        W29582   9.477   6.565  11.760  0.3120 -0.1320 -0.0889
10049W        W29583  13.219   9.364   1.284  0.3301 -0.0901  0.0144
10050W        W29584  16.321   9.088   2.636 -0.1179  0.3823  0.1579
10051W        W29585   9.535   9.821  12.767 -0.1167  0.1891 -0.3883
10052W        W29586   6.811   2.046  11.211 -0.0350 -0.1676 -0.0029
10053W        W29587  18.709  12.590   1.622  0.0632 -0.1094  0.2589
10054W        W29588  12.229  11.256  11.783 -0.3725  0.3200 -0.0446
10055W        W29589  13.156  10.257  12.495 -0.0721  0.0614  0.0076
10056W        W29590  12.376   6.262   3.318 -0.1317 -0.0264 -0.1327
10057W        W29591  13.847   2.519  11.125 -0.1452  0.0005  0.0951
10058W        W29592   0.777   9.998  12.704  0.0083  0.0191  0.1483
10059W        W29593  13.255   1.476  10.623 -0.3201  0.1052 -0.1178
10060W        W29594   4.253   6.875  10.972 -0.1640 -0.2334 -0.5094
10061W        W29595  17.295  11.803   1.983  0.3837  0.2228  0.0112
10062W        W29596  12.077  11.743  13.633  0.3649  0.0739 -0.1624
10063W        W29597  16.395  14.385   3.809 -0.0537  0.2091  0.0588
10064W        W29598   5.812  13.107  13.442 -0.0787 -0.1280 -0.0472
10065W        W29599  12.748  11.871  13.629  0.2543 -0.0163 -0.1009
10066W        W29600   4.768  15.856   1.697 -0.1068  0.1755  0.0351
10067W        W29601  18.236   9.112   0.885  0.0326  0.0084  0.0909
10068W        W29602   5.565   1.923   0.299 -0.0274  0.2170 -0.2810
10069W        W29603   2.211   0.369   3.848 -0.3814 -0.2921  0.2058
10070W        W29604  10.474  19.286  11.102 -0.1273  0.0202  0.0284
10071W        W29605  13.821  18.063  14.305 -0.1342  0.0752  0.4142
10072W        W29606   1.043   6.067   3.165 -0.1052  0.0437  0.0690
10073W        W29607  16.693  16.135  13.352 -0.1487  0.0820  0.1461
10074W        W29608  15.827  12.110   5.021  0.1166 -0.1122  0.1632
10075W        W29609   5.771   6.238   2.222 -0.1375 -0.2401 -0.3443
10076W        W29610   9.724   8.411   0.707 -0.0150  0.1767 -0.0364
10077W        W29611   6.420  14.788  12.895  0.0716  0.0006 -0.0709
10078W        W29612   5.638   6.504   3.761 -0.1284 -0.0272 -0.2078
10079W        W29613   5.369   8.364   4.475 -0.0414  0.2201  0.2136
10080W        W29614   5.670   2.307  10.500 -0.2183  0.1737  0.0044
10081W        W29615  13.811  10.789   2.485  0.3374 -0.0076 -0.0613
10082W        W29616  13.562   1.700   1.580  0.0663 -0.0362 -0.1921
10083W        W29617  10.192   8.384   2.439 -0.0966 -0.0926  0.0878
10084W        W29618   0.199   0.650   3.456  0.4070 -0.1296 -0.3445
10085W        W29619  16.929   2.529  13.256 -0.0160  0.1572 -0.5469
10086W        W29620   0.308  17.431  13.730  0.1083  0.5405 -0.1573
10087W        W29621   1.377   7.798   0.663  0.1752 -0.1461  0.2416
10088W        W29622   5.451   5.072   4.750  0.1154 -0.2059  0.1145
10089W        W29623  13.317   9.907  14.132 -0.1628  0.0566 -0.2095
10090W        W29624   6.782   6.083   0.650  0.0089  0.0982  0.1873
10091W        W29625   9.057  15.158   1.189 -0.1876  0.1821  0.0461
10092W        W29626  17.359  19.409  12.774  0.0012 -0.0308  0.1132
10093W        W29627   6.674  10.443  11.388 -0.1853 -0.2525 -0.0259
10094W        W29628  16.209   6.939  12.538 -0.1546  0.2534 -0.1387
10095W        W29629  17.700  19.429  10.127  0.1855  0.0273  0.1130
10096W        W29630   4.119   9.140   2.800  0.3354 -0.0458 -0.1368
10097W        W29631   7.352  12.580  14.108  0.3459  0.0206 -0.2673
10098W        W29632  10.146  18.866  11.221 -0.2461  0.3353  0.4356
10099W        W29633   8.672   9.373  10.225 -0.1946 -0.1361  0.0445
10100W        W29634  12.266   4.527   2.589  0.1699  0.0083  0.1993
10101W        W29635   1.161  15.415   3.541 -0.2652  0.3304 -0.4293
10102W        W29636  18.086  17.066  13.388 -0.1405 -0.2472  0.1428
10103W        W29637  12.946   9.081  11.127  0.3370 -0.0625 -0.3378
10104W        W29638  14.880  16.401   0.786  0.0456 -0.3559  0.0083
10105W        W29639   5.808  10.137  12.398 -0.0349 -0.2868 -0.2957
10106W        W29640   1.074   3.381   2.052  0.0932 -0.1906  0.2608
10107W        W29641  14.696   1.691  12.913 -0.0471 -0.4164 -0.2171
10108W        W29642   0.318  19.336  11.625 -0.0497  0.0079 -0.1305
10109W        W29643  19.222  18.639   0.761 -0.1234  0.0128 -0.0638
10110W        W29644   9.404  15.148   0.128  0.5529  0.0699 -0.0749
10111W        W29645  12.444  18.458   1.555  0.1882  0.0765  0.3162
10112W        W29646  13.822  14.011  10.585 -0.1916 -0.0993 -0.2160
10113W        W29647   3.708  13.393   1.320 -0.2092 -0.2906 -0.2875
10114W        W29648   3.141  12.007  10.380 -0.1356  0.2126 -0.0313
10115W        W29649  10.340  10.610   0.799 -0.0574 -0.1156  0.3280
10116W        W29650   2.739   2.694   0.280  0.1190  0.0821  0.1905
10117W        W29651   5.623  11.525   3.932 -0.1657 -0.2349  0.0169
10118W        W29652  14.108   3.753   3.032  0.2587 -0.3309 -0.0354
10119W        W29653  16.679  15.983  10.380  0.0287 -0.1559  0.1644
10120W        W29654  11.276   0.556   0.424 -0.1174 -0.3951 -0.1872
10121W        W29655   5.722   3.033  11.191  0.0660  0.1526  0.2168
10122W        W29656   8.749  18.690  10.688  0.1505 -0.1777  0.1101
10123W        W29657  17.162   3.325   1.246  0.1256 -0.0064 -0.2266
10124W        W29658  14.716  16.778  10.471  0.0522 -0.0991 -0.3003
10125W        W29659   0.451   4.901   1.167  0.2282  0.0793 -0.1115
10126W        W29660   7.608  12.356  10.730  0.5005 -0.1090  0.1805
10127W        W29661   2.283  17.205  11.310 -0.0861 -0.0677 -0.2230
10128W        W29662   2.030   9.680  13.115 -0.2652  0.1357  0.2784
10129W        W29663  17.688  17.810  12.349 -0.0564  0.1665  0.1705
10130W        W29664  14.955  15.178   1.410  0.3431 -0.0332 -0.0371
10131W        W29665  12.904   4.818  12.231  0.2412  0.3730  0.0524
10132W        W29666  18.998   5.269  10.731  0.1149  0.2672  0.4029
10133W        W29667   3.386   7.761   2.408 -0.0982  0.2787 -0.1312
10134W        W29668   8.682   3.354   4.987 -0.0295  0.0162 -0.0152
10135W        W29669   9.436   1.126  10.997 -0.1616 -0.0227 -0.2726
10136W        W29670  18.981  14.259  13.530  0.2463 -0.1586 -0.1841
10137W        W29671   8.089   6.131   1.774  0.2845 -0.0199  0.0855
10138W        W29672  17.913  11.924  14.129  0.2217  0.1212 -0.1656
10139W        W29673  15.582  10.276   4.724  0.1905 -0.0189  0.0797
10140W        W29674   2.970  17.491  11.894  0.1064 -0.0012  0.0594
10141W        W29675   9.092   8.308   9.643 -0.0057  0.1838  0.1098
10142W        W29676   8.566  16.003   0.505  0.0923 -0.1621  0.1528
10143W        W29677  10.166   1.290   0.524 -0.2201  0.0312 -0.0064
10144W        W29678  11.489  12.839  11.548  0.3664  0.0561  0.0001
10145W        W29679  12.850  18.640   0.937 -0.0141 -0.0890  0.0070
10146W        W29680  17.253   2.648   1.592  0.2963 -0.2073 -0.0741
10147W        W29681   1.171  14.769   0.505 -0.2274 -0.1611 -0.0353
10148W        W29682  18.972  15.833   2.480  0.1783 -0.1928  0.0830
10149W        W29683  14.928  12.641   3.344  0.3677 -0.2526 -0.3490
10150W        W29684   3.801  13.036  13.732  0.1967  0.1501  0.0733
10151W        W29685  16.060   8.333  12.925 -0.1079 -0.2283 -0.1511
10152W        W29686  11.380   3.521  10.287  0.2933 -0.1946  0.3618
10153W        W29687  17.301  18.830  10.968  0.0798  0.1428  0.0987
10154W        W29688  18.925  15.620  11.975 -0.0685  0.0538  0.0641
10155W        W29689   7.314  10.796   0.246  0.1617  0.2719  0.0263
10156W        W29690   2.860   4.871  14.061 -0.3247 -0.0922  0.3864
10157W        W29691  15.531   7.343  12.019  0.0063 -0.1006  0.1975
10158W        W29692  13.586  10.493  10.593 -0.2892 -0.2622  0.3980
10159W        W29693  15.791   8.084  11.268 -0.5159  0.0229  0.0781
10160W        W29694  19.276  16.253  10.631 -0.2706 -0.1100  0.1070
10161W        W29695   2.731  14.562  13.410  0.0228  0.1337 -0.0082
10162W        W29696   2.888   7.737  13.933  0.1791 -0.0830  0.0572
10163W        W29697  13.958   0.968   0.012  0.1307 -0.2657  0.0146
10164W        W29698  13.597  13.906   1.429  0.2041 -0.4791  0.0998
10165W        W29699   6.619   2.631  11.405  0.2461  0.4361  0.1942
10166W        W29700  13.125  19.211  10.956  0.2956  0.0443 -0.1618
10167W        W29701   7.505  10.879   0.996 -0.0135  0.0791 -0.0255
10168W        W29702   3.251   5.562   3.129 -0.2962 -0.1128 -0.1097
10169W        W29703  12.812   0.410  10.273 -0.1319 -0.0055  0.1093
10170W        W29704  13.873  15.241   3.144 -0.0608  0.2056 -0.0751
10171W        W29705  15.011   4.239  11.561  0.1514 -0.0759 -0.3509
10172W        W29706  10.252  12.776   1.052 -0.0362  0.1303 -0.1465
10173W        W29707  13.336   8.389  13.008  0.0454  0.0755 -0.0988
10174W        W29708  12.032  11.378   4.382  0.1296 -0.0977 -0.0614
10175W        W29709  17.070   5.433   4.093  0.0496  0.0030  0.0981
10176W        W29710  10.578   2.657  10.808 -0.2423 -0.2137  0.0958
10177W        W29711   6.786   7.342   2.525  0.3427  0.1626  0.2547
10178W        W29712  10.691   8.158  12.117 -0.2317  0.1599  0.0860
10179W        W29713  17.963  17.781   2.899 -0.0019 -0.0037  0.2994
10180W        W29714   5.652  13.059   2.490 -0.1041  0.0342 -0.1056
10181W        W29715  17.674  14.010  13.130  0.0890 -0.1391 -0.1848
10182W        W29716  18.912  13.587  10.506 -0.1147 -0.1662 -0.4366
10183W        W29717  16.608   3.250   0.414 -0.3430  0.0646 -0.1517
10184W        W29718   6.646  13.040  13.426  0.1296 -0.1152  0.1059
10185W        W29719  19.072   9.945   9.662 -0.2069 -0.1591 -0.0583
10186W        W29720  18.556  10.825   3.490 -0.3325  0.1985  0.1346
10187W        W29721   3.554  13.290   4.224  0.0959 -0.4044 -0.0945
10188W        W29722   0.057  18.259  12.248 -0.0833 -0.4149  0.0824
10189W        W29723  16.089   9.225   9.556 -0.2072  0.1649  0.0173
10190W        W29724  13.800  19.287  13.898 -0.0422 -0.1718  0.1520
10191W        W29725   5.444  12.439   3.054 -0.0959  0.5629  0.0860
10192W        W29726   9.838  15.346  12.351  0.0830  0.1054  0.0617
10193W        W29727  14.765   8.572   1.734 -0.0005  0.1512 -0.1212
10194W        W29728   9.294  10.283   1.630 -0.1785 -0.3928 -0.0229
10195W        W29729  14.250  11.576  14.096  0.0066  0.1036 -0.3005
10196W        W29730   7.794  16.483   1.373 -0.1366 -0.3425  0.0066
10197W        W29731   1.837  14.254   1.542  0.1404  0.0292 -0.0729
10198W        W29732   1.283  19.169  13.425 -0.3476 -0.2325 -0.0681
10199W        W29733  14.841   7.508   3.349 -0.3057  0.0496  0.1376
10200W        W29734  13.666   0.047   9.932  0.1627  0.1219  0.1311
10201W        W29735  10.045  12.117  14.291  0.1597 -0.1232 -0.0350
10202W        W29736  10.349   8.228  11.748  0.2740 -0.2470  0.2113
10203W        W29737  11.500   4.786  10.370 -0.3131  0.2203 -0.5877
10204W        W29738  13.872  12.409   9.335 -0.1023  0.1944  0.0753
10205W        W29739   9.028   9.101  12.767 -0.0068  0.0958 -0.1137
10206W        W29740  10.862   4.146   3.876  0.0474 -0.0423  0.1094
10207W        W29741  10.046  16.233   0.571 -0.1876 -0.1071 -0.2508
10208W        W29742   6.059  15.460  12.771  0.0848 -0.0041 -0.1196
10209W        W29743   7.617   9.004   2.807  0.0967 -0.2157 -0.0627
10210W        W29744  15.832   5.881  11.521 -0.3273 -0.3743 -0.1509
10211W        W29745  17.859   1.006  10.629 -0.0051  0.1981 -0.5232
10212W        W29746   7.282  18.723   1.778  0.0862  0.0041  0.0759
10213W        W29747   6.441   3.184  13.171 -0.0544  0.0721  0.0581
10214W        W29748   4.089   6.384   1.442  0.1386  0.1725  0.0772
10215W        W29749   7.515  14.993   3.376 -0.1192  0.0781 -0.0948
10216W        W29750   4.334   8.877   3.187 -0.1691 -0.1096  0.0583
10217W        W29751   9.143  11.903   0.907  0.0278  0.2983  0.2214
10218W        W29752   8.981  13.287   0.934  0.0624 -0.1324 -0.1171
10219W        W29753  18.416  16.197  12.530  0.1159  0.1719  0.3661
10220W        W29754  14.505   0.082  12.344 -0.0629 -0.2620 -0.1650
10221W        W29755   4.458   1.485  12.162  0.1004 -0.0700 -0.0743
10222W        W29756  14.275  17.339   4.469  0.2979 -0.2031 -0.0579
10223W        W29757   0.888   7.742   4.189 -0.2014 -0.0775  0.2271
10224W        W29758  11.913  17.269  13.716 -0.3245  0.2894  0.0233
10225W        W29759   6.861   2.304  11.680  0.0731 -0.0301  0.1515
10226W        W29760   0.509  18.071   0.001  0.0016  0.1055 -0.0280
10227W        W29761   0.578   2.706  14.049 -0.0569 -0.1755  0.2476
10228W        W29762  10.358   1.759  14.129 -0.0956  0.0112  0.1287
10229W        W29763   3.090  17.026   2.589  0.0507 -0.0811  0.3722
10230W        W29764   4.959  14.155   0.857  0.1330  0.1233  0.1201
10231W        W29765  15.422   3.914  11.618 -0.0136  0.1714  0.1895
10232W        W29766   2.964  18.467  12.609 -0.1439  0.1003  0.1088
10233W        W29767   0.115   3.651   3.786 -0.0307  0.1742 -0.0378
10234W        W29768  14.380   2.149  11.910  0.0085  0.2188 -0.2618
10235W        W29769  12.892   3.662   3.924 -0.0425 -0.1528 -0.1219
10236W        W29770  14.091  16.212   2.006  0.1559 -0.0414 -0.0595
10237W        W29771   3.152   1.632  12.569  0.0108  0.3031 -0.0764
10238W        W29772   9.411   6.460   4.211  0.1507  0.1971  0.0192
10239W        W29773  12.369  11.818   0.203 -0.0269 -0.3383 -0.1613
10240W        W29774   4.051  19.430   2.923  0.2603  0.1283  0.1517
10241W        W29775   8.955  12.188   1.273 -0.0764 -0.0416  0.1020
10242W        W29776   6.143   6.630   3.990 -0.0704 -0.1230 -0.2275
10243W        W29777  17.048  13.481  10.973  0.2455 -0.0904  0.0117
10244W        W29778   0.948  15.048  12.706  0.0524  0.1557 -0.0186
10245W        W29779   2.194   8.280   3.996 -0.0893 -0.0288 -0.0305
10246W        W29780  16.663  10.692   2.311 -0.1772 -0.2322  0.1607
10247W        W29781   8.834  14.794   3.858 -0.4726  0.1596 -0.0556
10248W        W29782   5.484   3.799   3.260  0.0715  0.0144  0.4823
10249W        W29783   6.858   5.008  14.180 -0.1709 -0.1628  0.2062
10250W        W29784   4.288  15.388   3.311  0.2853  0.1181 -0.2559
10251W        W29785  11.786  12.417  11.483  0.1907 -0.0433 -0.1095
10252W        W29786   0.045   8.089   2.871 -0.1026 -0.3458  0.0490
10253W        W29787   1.991  15.990   2.078  0.3916 -0.0266  0.2789
10254W        W29788   1.058   3.908   0.179 -0.2661 -0.3483 -0.2810
10255W        W29789   4.829  14.429  12.101  0.2298 -0.1670  0.1731
10256W        W29790   1.412  10.965  11.108 -0.0726 -0.2247  0.2201
10257W        W29791   5.410  16.548   2.382  0.1376 -0.0071  0.0833
10258W        W29792  11.021   1.237   2.680  0.0429 -0.1624  0.1232
10259W        W29793  14.014  10.755   0.827 -0.1470 -0.1047 -0.1654
10260W        W29794   3.272   7.825  13.595 -0.0738  0.1043  0.0471
10261W        W29795  18.901  17.575  10.383  0.1660  0.0116 -0.0009
10262W        W29796  16.854   6.854  13.961 -0.1678 -0.0891  0.2291
10263W        W29797  13.102   7.329   1.422  0.0581  0.3059 -0.1883
10264W        W29798  18.722  15.745  10.285  0.0958  0.1437  0.1471
10265W        W29799  18.880  10.452   4.118  0.1494  0.0694 -0.0884
10266W        W29800  12.662   3.260  11.652 -0.2745  0.0611 -0.0181
10267W        W29801   2.555   2.785  14.063 -0.1308  0.0536 -0.2811
10268W        W29802  10.601  15.344  12.704 -0.1277 -0.0330  0.4333
10269W        W29803   9.054  17.465  12.125 -0.1621  0.0354 -0.4005
10270W        W29804  13.586  11.282   1.954 -0.2032 -0.1257 -0.0969
10271W        W29805   9.737  16.470  13.851 -0.1811  0.1468 -0.0817
10272W        W29806  11.601   5.667   2.157 -0.2236 -0.0953  0.3273
10273W        W29807   4.925  13.368   1.819 -0.1354 -0.2053  0.5320
10274W        W29808  12.060   0.932  10.018 -0.3283 -0.2039 -0.2025
10275W        W29809  17.588   2.599   1.959  0.2020 -0.0960 -0.0280
10276W        W29810  11.024  16.015  12.092 -0.2303  0.2221  0.1545
10277W        W29811   9.065  12.985  10.288 -0.3343 -0.0892 -0.0820
10278W        W29812  11.283  15.374  13.604  0.3307 -0.1671  0.0466
10279W        W29813   0.242  11.061   3.884 -0.0084 -0.1352  0.1270
10280W        W29814   7.428   4.126  12.508  0.1309 -0.0164  0.1286
10281W        W29815  19.271  15.350   0.453  0.0629 -0.0029 -0.3716
10282W        W29816  13.687   9.969  12.217 -0.1496  0.0539 -0.2561
10283W        W29817   6.977  18.153   2.610 -0.1071 -0.0866 -0.3400
10284W        W29818   9.305  15.119  14.016 -0.0570  0.1424  0.0798
10285W        W29819   7.860   8.993  12.580  0.2547  0.0261 -0.1186
10286W        W29820   0.641  17.191   0.200 -0.1811  0.3774  0.3234
10287W        W29821   0.295   9.720   0.575  0.0346  0.3780  0.2047
10288W        W29822   4.895   1.685  12.995  0.2242 -0.1699  0.0470
10289W        W29823   8.348  16.394   1.911 -0.0567  0.2848  0.0384
10290W        W29824   2.895   3.186  12.733  0.0083 -0.0257  0.3010
10291W        W29825  11.608  18.073   2.791  0.0293 -0.0532 -0.0156
10292W        W29826   6.686   6.767  13.019 -0.1899 -0.1090 -0.1567
10293W        W29827  11.556  13.379  14.306  0.2235  0.0158  0.1891
10294W        W29828  17.731   5.077   2.814  0.1128  0.4450 -0.1583
10295W        W29829   5.208   2.161   1.684  0.0870  0.0224 -0.0606
10296W        W29830   7.367  14.537  10.543  0.0973  0.0587  0.1879
10297W        W29831  16.331  16.662  12.721  0.0169 -0.1388  0.1008
10298W        W29832   4.639   2.080   1.748 -0.1092 -0.2713 -0.0928
10299W        W29833  18.042   9.499  11.993 -0.1877  0.3205  0.1151
10300W        W29834  10.299   5.329  10.914  0.0898 -0.0555  0.0921
10301W        W29835  12.776  12.400  11.551 -0.2228  0.2568  0.0405
10302W        W29836  15.655  14.694  13.511  0.0193 -0.0026  0.0038
10303W        W29837   5.620  19.506  11.309 -0.0496  0.2585  0.1178
10304W        W29838  15.798  10.754  11.721 -0.0479 -0.1375  0.1090
10305W        W29839   3.384  10.006  12.444 -0.4137  0.2155 -0.1068
10306W        W29840  15.528  18.572   4.429 -0.0583  0.0865 -0.1970
10307W        W29841   4.340   8.975  14.358 -0.1918  0.1665 -0.2074
10308W        W29842  10.631   7.313  10.382  0.0233  0.0550  0.0651
10309W        W29843  14.380   1.690  10.131  0.0128  0.2624 -0.1983
10310W        W29844   0.045   8.645  13.405 -0.2142 -0.3544 -0.1476
10311W        W29845  14.859  14.666   3.873 -0.0298 -0.2086 -0.0805
10312W        W29846   3.129  14.344   0.972 -0.1981  0.1158  0.0753
10313W        W29847   1.771   6.151   2.447 -0.0408 -0.2535 -0.0080
10314W        W29848  17.160  19.338   3.167 -0.2124 -0.1256 -0.1450
10315W        W29849  15.340  18.958   4.224  0.0963 -0.1410 -0.0446
10316W        W29850  17.850  12.490  14.348 -0.0555  0.0255 -0.1439
10317W        W29851   1.491   3.165  10.370  0.0769 -0.1496  0.1230
10318W        W29852   0.227   5.257   1.524  0.1407 -0.0267 -0.0194
10319W        W29853   8.787  15.610   9.386 -0.0083  0.1238 -0.0047
10320W        W29854   8.080   2.725   2.997 -0.2647 -0.2338  0.0806
10321W        W29855   5.073   6.564  12.710  0.0069 -0.2213 -0.0161
10322W        W29856  13.394   5.700  13.201  0.0403 -0.0002 -0.0914
10323W        W29857  13.802   6.667  12.483  0.1257 -0.0973 -0.0054
10324W        W29858  19.400  13.621   2.404  0.1045  0.4773  0.1681
10325W        W29859  14.097   5.718  12.516 -0.0151  0.4409  0.4104
10326W        W29860   5.185   9.440   3.552  0.1146 -0.1522  0.2793
10327W        W29861   5.649   8.607   1.693 -0.1869  0.2329 -0.0431
10328W        W29862  17.859  15.307   9.497 -0.0104 -0.0218 -0.0451
10329W        W29863   7.601  13.959  12.446  0.1936 -0.2305  0.1850
10330W        W29864   9.443   9.099   1.872 -0.1499  0.1628 -0.3938
10331W        W29865   9.772   4.093  10.802 -0.0016 -0.0221 -0.4121
10332W        W29866   9.545   6.093  12.093  0.0271  0.0745 -0.1878
10333W        W29867  10.496  11.531   0.817  0.2283 -0.0061 -0.1154
10334W        W29868  14.376  16.244   0.990  0.2863  0.0127  0.0710
10335W        W29869   7.005  18.726  12.341  0.0694 -0.5603 -0.1180
10336W        W29870  14.424   3.055   2.854  0.3013  0.1043 -0.1727
10337W        W29871  12.767  14.489   4.356  0.1888  0.2091  0.1014
10338W        W29872   4.371   2.998   9.891  0.0972 -0.1437  0.2582
10339W        W29873  16.783  14.984  12.847  0.0889 -0.1705  0.1102
10340W        W29874   2.216   1.507   2.967 -0.1484 -0.2596 -0.1611
10341W        W29875   0.295   5.600  10.576 -0.1942  0.1291 -0.1685
10342W        W29876   9.542   8.758   2.850 -0.1000  0.0383  0.1212
10343W        W29877   7.611  10.530  11.775 -0.0605 -0.0216  0.2906
10344W        W29878   4.649   9.866   4.704  0.3041 -0.3323  0.1690
10345W        W29879   8.934  16.922   3.805  0.0267 -0.2223 -0.1998
10346W        W29880  10.355   9.611  14.148 -0.1559 -0.2790 -0.0723
10347W        W29881  12.311   6.849   1.731  0.1957  0.1812 -0.3243
10348W        W29882   9.264   6.757  12.175 -0.1860 -0.2282  0.0140
10349W        W29883  12.037  12.988   0.536 -0.1467 -0.0521  0.4356
10350W        W29884  16.789   0.137  10.457  0.0628  0.0519 -0.5472
10351W        W29885   8.602   8.221  12.767  0.1527  0.2715  0.2418
10352W        W29886  13.224  17.220   2.932 -0.2634  0.3740  0.2143
10353W        W29887   7.337   9.253  13.670  0.1482 -0.0703 -0.0836
10354W        W29888   0.564   8.749   1.335  0.1100 -0.1439  0.0066
10355W        W29889  14.607   9.584  13.129  0.1559 -0.2588 -0.0377
10356W        W29890   4.148  15.407   4.466 -0.1600 -0.2036  0.1520
10357W        W29891  14.627   1.919   0.579  0.1794 -0.3072 -0.3466
10358W        W29892   4.964   5.828   2.622  0.2015  0.1499 -0.1930
10359W        W29893   1.868  17.625   0.027 -0.1199  0.0954 -0.0364
10360W        W29894   7.434  19.140  14.167  0.4206  0.1714 -0.0749
10361W        W29895   3.231  13.619   3.488 -0.1523 -0.2009  0.1643
10362W        W29896  12.646   5.968  13.545 -0.1876  0.1688  0.4263
10363W        W29897   6.878   1.595  10.899 -0.0838 -0.1587  0.0022
10364W        W29898  15.196   9.669   2.326 -0.0522  0.3367 -0.4388
10365W        W29899  16.134  11.288  14.309  0.2473 -0.0903 -0.2139
10366W        W29900  16.761  14.293   2.245 -0.0087 -0.0959 -0.1473
10367W        W29901   6.607   4.671   1.221 -0.4980  0.0517  0.0932
10368W        W29902   7.186   3.726  12.826 -0.1076 -0.1565  0.1418
10369W        W29903   2.647  10.791  14.024  0.2746 -0.0454  0.0663
10370W        W29904  11.541  19.162   0.271 -0.1193 -0.3465  0.0345
10371W        W29905   2.481   5.305  10.739  0.0927 -0.0895  0.0054
10372W        W29906   1.488   5.920  12.440 -0.0150 -0.1007  0.0782
10373W        W29907   8.422  11.595  13.785  0.2573 -0.0928 -0.0564
10374W        W29908  10.256   1.993  13.276  0.1918 -0.0926  0.0567
10375W        W29909  19.144   9.833   3.985 -0.2396 -0.0991  0.0544
10376W        W29910   0.997  12.797   2.276  0.0554  0.4864 -0.0264
10377W        W29911  10.294  17.686   1.628 -0.0737  0.0863 -0.2529
10378W        W29912  18.150   5.967   3.824 -0.0699  0.0225  0.2261
10379W        W29913  18.421   2.784  12.222 -0.0100 -0.2722  0.0764
10380W        W29914   3.379  16.024   2.115 -0.3644 -0.1462 -0.1783
10381W        W29915  13.527   3.864   1.129 -0.2257  0.3355 -0.0223
10382W        W29916   1.485  13.442  11.187 -0.1664  0.0852  0.0005
10383W        W29917  15.178   9.037  10.565  0.0115 -0.1478  0.0976
10384W        W29918  19.458  19.020  14.249  0.0497  0.1239  0.0398
10385W        W29919  12.491  17.765   0.698 -0.0698  0.0035 -0.1966
10386W        W29920  15.906   2.721  11.676 -0.2635  0.0516 -0.1622
10387W        W29921   1.571   7.375  11.096  0.2336 -0.2821 -0.1424
10388W        W29922  11.923   1.839   2.827 -0.0724  0.2655  0.0559
10389W        W29923   6.456  14.139   4.036  0.1312  0.1119  0.1601
10390W        W29924   6.767  18.214   0.775 -0.0566 -0.0100 -0.1322
10391W        W29925   4.790   8.001  13.818 -0.0611 -0.2188  0.2223
10392W        W29926  18.480  18.515   1.661  0.3013 -0.0993  0.0496
10393W        W29927  10.897  13.360  14.173 -0.0965 -0.1995 -0.1233
10394W        W29928  12.785   9.352   3.546 -0.1423  0.1459 -0.1865
10395W        W29929   0.794  16.823   3.981 -0.3184 -0.1330  0.2277
10396W        W29930  16.873   7.234   2.712  0.4563  0.0223 -0.0552
10397W        W29931   8.827  16.158   2.079  0.1342 -0.3929 -0.1841
10398W        W29932   8.721   4.734   0.397 -0.1227 -0.0044 -0.2015
10399W        W29933   3.108  11.186   4.225  0.1617 -0.0138 -0.1532
10400W        W29934  18.834   6.677   9.959  0.3291 -0.2749  0.0344
10401W        W29935  14.942   9.790  13.572  0.1565  0.0808 -0.0237
10402W        W29936  10.754  11.378  10.446  0.0614 -0.0058 -0.0661
10403W        W29937   7.959   2.297  12.509  0.1115  0.1551 -0.3051
10404W        W29938   2.026  17.895   2.486 -0.1094  0.3183  0.1459
10405W        W29939   4.219  10.334  12.419  0.1055 -0.2340  0.1528
10406W        W29940   1.466  15.698  10.742 -0.2498 -0.2624  0.0932
10407W        W29941   5.519   0.990  14.325  0.2660 -0.1680 -0.1114
10408W        W29942   4.181   3.727  13.813  0.3741  0.0920 -0.3007
10409W        W29943  18.068  12.202   3.666  0.0142 -0.0840 -0.0248
10410W        W29944   9.466   9.672   3.726 -0.2647  0.0592  0.1446
10411W        W29945  15.653   0.959   0.617 -0.0867  0.2243  0.2822
10412W        W29946   0.943  17.782   1.454 -0.2469 -0.2185 -0.0157
10413W        W29947   9.908   7.050  12.444 -0.2204 -0.0356 -0.1586
10414W        W29948  15.980   7.852   3.387  0.2226  0.2835  0.0064
10415W        W29949   5.672   9.098   1.843  0.3164  0.0512  0.2707
10416W        W29950   6.861  18.582  11.452  0.0493  0.4932  0.3422
10417W        W29951  13.789  14.656   2.853  0.0351 -0.2049  0.0482
10418W        W29952  15.163   3.651  13.015  0.0789  0.2218 -0.1202
10419W        W29953  11.535   4.382  12.395  0.1620 -0.0994 -0.2833
10420W        W29954   1.326   9.394   0.282 -0.2236  0.0889  0.0740
10421W        W29955   7.277  18.972   1.292  0.0306 -0.0552 -0.5442
10422W        W29956  14.702  16.936   2.569  0.1408  0.3133 -0.0030
10423W        W29957   9.181   1.431  12.461 -0.0607 -0.1216 -0.1728
10424W        W29958   8.995  14.215   0.879  0.1166 -0.0162 -0.1631
10425W        W29959   5.560  18.638  11.751  0.2082  0.3400  0.0500
10426W        W29960   1.177  10.675   4.236 -0.1262  0.0111  0.0052
10427W        W29961  16.399  16.187   4.337  0.1727  0.1568 -0.0746
10428W        W29962   0.109  10.108   1.608 -0.1824  0.0149  0.2924
10429W        W29963   4.685  15.089   5.366 -0.0031 -0.1556  0.0250
10430W        W29964   9.556   9.542   4.222 -0.1118 -0.2804  0.0823
10431W        W29965  13.955  13.883   3.822  0.1287  0.2304  0.6477
10432W        W29966  13.098  11.913  13.095  0.1093  0.1935  0.0686
10433W        W29967  13.795   4.944   3.331  0.0040 -0.2281  0.1590
10434W        W29968  11.488  12.062  13.883  0.1551 -0.0115  0.0137
10435W        W29969   4.612   7.700   3.391  0.1395  0.3988  0.1183
10436W        W29970  13.569   1.131   0.340  0.0296  0.0369 -0.0222
10437W        W29971   2.481  12.253  13.036  0.0279 -0.0462 -0.1647
10438W        W29972  14.715  14.868  14.097  0.2880 -0.0432 -0.0719
10439W        W29973   5.364   3.118  10.155  0.0639 -0.5470  0.2319
10440W        W29974  15.531   3.032  11.783 -0.2096 -0.0734 -0.3362
10441W        W29975   9.899  13.122   1.238 -0.0312 -0.2061  0.1360
10442W        W29976   5.868  10.870   0.799  0.0438 -0.0449  0.1468
10443W        W29977   3.101   1.798   0.247  0.1214  0.1588 -0.1071
10444W        W29978   1.516  11.739   4.872  0.0572 -0.1028  0.1164
10445W        W29979  17.106   9.370  11.246  0.3337  0.3137  0.1583
10446W        W29980  16.514   2.886   2.535 -0.1517  0.1433  0.2638
10447W        W29981  16.384  15.340   1.942 -0.2092  0.0597 -0.0150
10448W        W29982   2.465   4.287   0.429 -0.2059  0.3761  0.2719
10449W        W29983  13.932   8.201   0.063  0.1519 -0.0059 -0.0791
10450W        W29984   3.357   4.632   1.237 -0.2157  0.1555 -0.2252
10451W        W29985   5.751  12.564   2.692  0.2071 -0.2727 -0.0893
10452W        W29986   4.046  15.518   1.147  0.1287  0.3105  0.0054
10453W        W29987  11.187   1.454  12.335  0.1905  0.0718 -0.0714
10454W        W29988   7.012   2.871  10.572  0.0313  0.2421 -0.0042
10455W        W29989  12.905  18.316   2.712  0.1826 -0.0047 -0.1057
10456W        W29990   3.230  17.147  11.640 -0.1221  0.4902 -0.2155
10457W        W29991  10.355  12.197   3.173 -0.1070 -0.0143 -0.0259
10458W        W29992   5.984   2.399  13.296 -0.0013 -0.0470  0.3338
10459W        W29993   2.172  15.315   1.990  0.0562  0.2557  0.0494
10460W        W29994  10.392   5.548   3.743  0.0606  0.1483  0.1544
10461W        W29995   0.275  15.665  12.423  0.2847  0.1280 -0.1294
10462W        W29996   8.668   1.728   1.416 -0.2553  0.1542  0.1352
10463W        W29997   9.929  11.841  12.756  0.0538 -0.1025 -0.0501
10464W        W29998  17.500   8.129  14.281  0.1208 -0.2429 -0.1213
10465W        W29999   7.318   3.636  12.309 -0.1900  0.2709  0.3196
10466W        W30000   9.053  19.025  10.959  0.0143 -0.4928  0.0862
10467W        W30001   1.338  13.340  12.138 -0.0042  0.0206 -0.2006
10468W        W30002   1.741  15.229   4.180 -0.1897 -0.3531 -0.0887
10469W        W30003   9.836   7.764  10.556 -0.0733  0.0503 -0.4185
10470W        W30004  12.254  15.859  12.038  0.1572  0.3011 -0.4121
10471W        W30005   0.415  18.928   0.038 -0.0051 -0.0382 -0.1744
10472W        W30006   6.621   3.440  12.772 -0.0407 -0.0504 -0.0706
10473W        W30007   8.945  17.767   0.463 -0.1564  0.0244 -0.1408
10474W        W30008   6.852   1.753   0.825 -0.1696 -0.3468 -0.0558
10475W        W30009   1.054  14.300   2.080 -0.3564 -0.1365  0.1477
10476W        W30010   1.404  16.987  11.435 -0.1043 -0.0335  0.2260
10477W        W30011  13.624   6.890  10.392  0.1306  0.1026 -0.0946
10478W        W30012  11.588  12.626   2.604 -0.2325 -0.1709 -0.2267
10479W        W30013  13.229   5.344   0.802 -0.2971 -0.1859  0.0726
10480W        W30014  18.246   5.652   2.275  0.1095 -0.1787 -0.2012
10481W        W30015   3.969  16.220   9.579  0.0014  0.0568 -0.3715
10482W        W30016  19.279  19.249   0.287 -0.2388  0.2722  0.0115
10483W        W30017   7.891  13.781   2.504 -0.2335  0.1089  0.1137
10484W        W30018   1.430  17.546  12.303  0.1913  0.1140 -0.0606
10485W        W30019   2.115   3.722   9.909 -0.2661 -0.0456  0.2355
10486W        W30020  12.724   5.832  11.212  0.0884  0.2669  0.0457
10487W        W30021   0.956  10.303  11.498  0.2114  0.3502 -0.5317
10488W        W30022  14.099   0.921  13.793  0.0066  0.1464 -0.0466
10489W        W30023   5.917  15.515  13.276 -0.0133  0.1132  0.2965
10490W        W30024   7.400   9.458   2.682  0.1367 -0.1684  0.2668
10491W        W30025  11.815   1.062   0.627 -0.2007  0.1541  0.1175
10492W        W30026  18.225  13.691  12.569  0.1024 -0.1427  0.2543
10493W        W30027   7.580  13.047  12.310 -0.0051 -0.0429 -0.0782
10494W        W30028   0.343  16.993  12.306 -0.1656  0.0965  0.3023
10495W        W30029   8.037  17.302   4.320  0.3943  0.3629  0.0985
10496W        W30030  13.688   6.958   9.837  0.0199  0.2558  0.0447
10497W        W30031   3.221   1.203  10.513 -0.0634  0.2211 -0.2236
10498W        W30032   9.030  10.251   2.335  0.2584 -0.0799  0.2339
10499W        W30033  13.359   3.157  11.454 -0.0436 -0.0820  0.1108
10500W        W30034   4.291   6.101  12.500 -0.5730 -0.1032 -0.2385
10501W        W30035  11.134   8.607   1.932 -0.0028  0.0282 -0.1090
10502W        W30036   4.224   8.707  13.941  0.1468 -0.1945  0.0968
10503W        W30037  15.691   3.617  10.494  0.0039 -0.0577 -0.1657
10504W        W30038  14.585   2.788  10.227  0.3547  0.0755 -0.0442
10505W        W30039   5.804  17.951   3.362 -0.3679  0.1763  0.2759
10506W        W30040   3.132  18.318   3.685  0.0056 -0.1556 -0.1034
10507W        W30041  16.870   9.458   3.987  0.1043  0.0548  0.2035
10508W        W30042  18.942  15.739   0.496  0.1486  0.3516  0.1736
10509W        W30043  10.208   9.169   1.043  0.3503 -0.1586 -0.1137
10510W        W30044   8.918   1.557  11.947 -0.1730  0.0670 -0.2020
10511W        W30045   7.952   3.934   3.370  0.0703  0.0134  0.0521
10512W        W30046   0.388   9.706   1.736  0.1541 -0.4181  0.0850
10513W        W30047   2.548   1.374   4.850 -0.0760  0.0667  0.0691
10514W        W30048  10.291   8.633  14.225  0.0339  0.0404  0.2973
10515W        W30049   6.774   0.155  13.963  0.0801 -0.2138  0.0219
10516W        W30050   3.888   5.868  14.009 -0.0961  0.0799 -0.1050
10517W        W30051  12.611  17.973  10.856 -0.1104 -0.2262  0.0247
10518W        W30052  11.862   3.788   2.289  0.0632  0.1991  0.1863
10519W        W30053  12.693   7.528   2.350 -0.0582 -0.4193 -0.3253
10520W        W30054  15.883  14.505   2.792  0.1988  0.0747  0.2363
10521W        W30055  11.105  12.866  13.462 -0.3755  0.2274 -0.3736
10522W        W30056   8.859   2.420  12.041  0.1035  0.3893  0.0936
10523W        W30057   3.318  17.652  12.870 -0.1110  0.0369 -0.1544
10524W        W30058   6.171   7.630   3.254  0.1033 -0.2312  0.1541
10525W        W30059  13.552  14.855   3.279 -0.0990  0.3927 -0.1240
10526W        W30060  16.586   5.187  10.653  0.0041 -0.2325 -0.1441
10527W        W30061  11.701  12.736   4.153  0.2561 -0.3780 -0.2341
10528W        W30062   2.258   2.099  13.697  0.1011 -0.3982  0.1482
10529W        W30063   7.255  15.823  14.087 -0.1764 -0.1406  0.2242
10530W        W30064  10.278  15.891  11.480  0.0836  0.0812 -0.1585
10531W        W30065  12.903   3.931  12.592  0.1921 -0.0592  0.1864
10532W        W30066  11.877   6.269   0.323 -0.2147 -0.1867 -0.0999
10533W        W30067  12.446  14.195  11.744 -0.1417 -0.0129  0.0042
10534W        W30068   4.418  15.736  10.709 -0.0717  0.0147  0.0161
10535W        W30069  16.304   4.587   0.374  0.2614 -0.2080 -0.0088
10536W        W30070   6.729  15.725   2.562  0.1260 -0.3322  0.0077
10537W        W30071   7.653  12.909   2.036  0.0127  0.0209  0.1202
10538W        W30072   5.281   3.048   4.109 -0.1639 -0.0391 -0.2611
10539W        W30073  11.239   7.856   0.216 -0.0046 -0.0411  0.0332
10540W        W30074  12.087   6.057   1.571 -0.1485 -0.0996 -0.2162
10541W        W30075   1.151  16.013   0.331  0.1348  0.0236  0.0234
10542W        W30076   3.473  13.161  13.334  0.2706 -0.2065 -0.2030
10543W        W30077  17.506  16.535  11.797 -0.3145 -0.0695  0.2250
10544W        W30078  17.929   9.344  13.045  0.0223 -0.0735 -0.1004
10545W        W30079   6.185   2.904  10.455 -0.1331  0.1966 -0.2502
10546W        W30080   4.342  16.466   3.284  0.3060  0.0887  0.0650
10547W        W30081   5.556  16.650  12.217 -0.2522 -0.1402 -0.1249
10548W        W30082   0.360  14.650   2.139 -0.1364  0.1811 -0.0048
10549W        W30083  11.268  14.753  11.255 -0.4308 -0.4100  0.2603
10550W        W30084   0.406  10.722  14.262 -0.0785 -0.3632  0.2525
10551W        W30085  16.939  17.290  10.220  0.0183 -0.1149 -0.0837
10552W        W30086  18.234   9.946  11.857  0.0679 -0.0276  0.2951
10553W        W30087   2.787   7.202   4.947  0.1190  0.0512 -0.1477
10554W        W30088   7.811  18.966  13.410 -0.2283 -0.1302  0.2007
10555W        W30089   7.410   4.894   3.999  0.1283  0.1285  0.1385
10556W        W30090   6.959   8.340  12.869 -0.1034 -0.2193  0.1253
10557W        W30091  18.650  18.721   2.128 -0.1474  0.0256  0.0791
10558W        W30092  18.437   1.394   2.816 -0.2826 -0.2027  0.0087
10559W        W30093   4.729  10.327   2.771  0.1086  0.5667 -0.1362
10560W        W30094  13.714   5.668  10.736 -0.0155  0.3154 -0.0108
10561W        W30095   7.892   4.630   2.154 -0.2630  0.0628 -0.0163
10562W        W30096   6.187  18.389  13.622  0.0058 -0.1386  0.0845
10563W        W30097  12.684   3.437  13.537 -0.2922 -0.1191  0.2981
10564W        W30098  16.551  12.081   2.076  0.0612 -0.0058  0.0077
10565W        W30099  15.029   5.345   1.021  0.1760  0.0269  0.1118
10566W        W30100  11.798   5.873   1.244 -0.2241  0.0201 -0.0402
10567W        W30101  15.130  16.442  10.507  0.3076  0.0190 -0.0724
10568W        W30102   9.395   0.116   2.036 -0.0168 -0.0030  0.0957
10569W        W30103  12.248   9.466   3.540 -0.0073 -0.1749  0.0412
10570W        W30104   0.992  18.293   1.463 -0.1628  0.0222  0.0475
10571W        W30105  17.208  17.518   1.828  0.1146 -0.1340 -0.0091
10572W        W30106  17.535  15.438  11.436 -0.3833 -0.0962  0.2080
10573W        W30107   5.777  15.781   5.378 -0.0733 -0.2555  0.0100
10574W        W30108   4.639  11.835  13.530  0.0179 -0.0037  0.2118
10575W        W30109  11.965  11.605   1.156  0.0322  0.1349  0.0448
10576W        W30110  17.182   4.957   1.155  0.0804 -0.3148 -0.0484
10577W        W30111   3.211  17.892  10.382  0.2908 -0.0373 -0.0540
10578W        W30112  17.301   8.920   1.097  0.1424  0.0508 -0.1056
10579W        W30113   9.222   4.539   0.477 -0.3212 -0.0591 -0.1983
10580W        W30114   2.900   3.471  12.308  0.2524  0.2272  0.1016
10581W        W30115   2.980   0.071   1.870  0.0738  0.0545  0.2923
10582W        W30116   4.342  10.347   1.934 -0.1090 -0.1495  0.0117
10583W        W30117  18.048  12.804  11.381  0.0919  0.1572  0.1184
10584W        W30118  14.988   1.267   4.135 -0.0131  0.0979 -0.3357
10585W        W30119  11.579   5.255   3.605 -0.1231 -0.3217  0.0862
10586W        W30120  12.316   3.169  13.336 -0.0704  0.0973  0.0971
10587W        W30121   7.171  15.130  13.171  0.2365  0.1055 -0.1368
10588W        W30122  14.887   9.102  11.000 -0.3144 -0.2669 -0.2037
10589W        W30123   8.588  15.092   0.475 -0.1342  0.0583 -0.0150
10590W        W30124  15.873   5.534   3.711  0.0492 -0.0726  0.0076
10591W        W30125  12.886   8.747   3.174 -0.3786  0.1678  0.2383
10592W        W30126  17.931  12.845  13.984  0.3284  0.0681 -0.0299
10593W        W30127   9.211   7.686   1.082  0.1788 -0.1657 -0.1173
10594W        W30128  10.032  14.553   4.126  0.1577  0.0959 -0.0205
10595W        W30129   1.711   9.528   2.414 -0.3654  0.0490  0.0392
10596W        W30130   3.765  10.755   0.062  0.0924  0.1969  0.2543
10597W        W30131  13.096   4.582  11.792  0.1693 -0.3301  0.0602
10598W        W30132  16.410   1.450   4.126 -0.3161 -0.2163  0.2586
10599W        W30133  12.261  14.755   1.918 -0.0963  0.0806  0.1920
10600W        W30134   1.506  14.315  13.164 -0.0151  0.1339 -0.2360
10601W        W30135   9.255   0.662   3.922  0.0480  0.3810  0.0448
10602W        W30136  14.296   1.851   3.180  0.0077  0.3278  0.0907
10603W        W30137   3.151   1.852   9.968  0.3025 -0.0502  0.0301
10604W        W30138  17.883   3.123  13.609 -0.2829  0.0664  0.1921
10605W        W30139   4.969   6.024  11.445  0.0960  0.0405 -0.0966
10606W        W30140   4.940  14.561  10.655 -0.1978  0.1184  0.2240
10607W        W30141  11.567   0.368  11.812 -0.2912 -0.1141  0.0805
10608W        W30142  12.720  13.206   0.812  0.2327 -0.0953 -0.1260
10609W        W30143   8.117   0.702  13.669  0.0290 -0.0789  0.0294
10610W        W30144  10.695  12.609   0.813  0.0472  0.1258 -0.0164
10611W        W30145  16.361   5.589  10.812 -0.4241  0.3174  0.1165
10612W        W30146  18.146  15.087   2.040 -0.2087  0.2436  0.0066
10613W        W30147  14.158   5.476   3.973  0.1275  0.1302 -0.1053
10614W        W30148   3.755  15.478   4.092  0.2226  0.1942  0.3183
10615W        W30149   6.947  16.235  11.062 -0.1703 -0.1514 -0.1616
10616W        W30150   7.349  15.517   3.186 -0.1576 -0.3058  0.0418
10617W        W30151  11.936  14.320  14.174  0.1015  0.2364 -0.1333
10618W        W30152   8.398   8.403  13.528 -0.1921 -0.0715 -0.1154
10619W        W30153  14.002   3.983   0.172  0.1376  0.0396 -0.2409
10620W        W30154  19.121  18.571  11.475  0.0464 -0.0725 -0.0271
10621W        W30155  13.895  17.030   2.188 -0.1960 -0.0564  0.0324
10622W        W30156   7.280  16.375   0.630  0.1900  0.0749 -0.2944
10623W        W30157   1.994   9.199   2.684 -0.2377  0.1637 -0.1876
10624W        W30158  18.285  10.726   3.011  0.0662 -0.0141 -0.0528
10625W        W30159   0.679   1.859  13.175 -0.2152  0.1396 -0.1640
10626W        W30160   0.756   7.488   0.040 -0.2472  0.2614  0.1321
10627W        W30161   9.150  12.406  13.151 -0.0879  0.0449 -0.2387
10628W        W30162  15.583  18.811   1.738 -0.0831  0.1081  0.0900
10629W        W30163   8.963  10.630   1.166 -0.1122  0.2131  0.1311
10630W        W30164  17.834  10.064  13.234  0.0525 -0.0791 -0.1612
10631W        W30165  18.301  11.629   3.712 -0.0925  0.1603 -0.3003
10632W        W30166  10.407   7.784   0.849  0.0578  0.2761  0.2689
10633W        W30167   0.483   8.646   0.678 -0.1904  0.0996 -0.0991
10634W        W30168   2.674  15.701   0.318 -0.1245  0.1444 -0.0466
10635W        W30169  13.426   7.825  12.613 -0.2104  0.1165  0.1507
10636W        W30170  17.346  11.382  10.523 -0.0107  0.0310  0.0292
10637W        W30171  10.597   8.446   3.646 -0.1226 -0.1758  0.0013
10638W        W30172   6.049   3.859   2.920  0.0863 -0.0832  0.3650
10639W        W30173  18.661   1.499   0.971  0.0641  0.0580  0.0032
10640W        W30174   2.241  15.317  13.442 -0.2456 -0.0426  0.0970
10641W        W30175   8.325   8.410  11.498  0.1584  0.1070 -0.0014
10642W        W30176  17.952  12.356  13.890 -0.4088 -0.4899  0.1751
10643W        W30177   6.821   0.793   2.364  0.0160 -0.1602  0.4536
10644W        W30178   8.242  19.487   0.180  0.2837 -0.0434 -0.2288
10645W        W30179  10.616   0.657  13.907  0.0238 -0.1968 -0.3684
10646W        W30180  16.279   4.063   2.969  0.0013  0.1387 -0.2174
10647W        W30181  15.536   6.797  11.857 -0.3084 -0.1204  0.1131
10648W        W30182   9.262   3.672   2.323  0.4128  0.1601  0.0012
10649W        W30183  10.095   6.696   2.161  0.1971  0.2027  0.0177
10650W        W30184   1.966   7.014   3.486  0.1182  0.1034  0.2573
10651W        W30185   8.466  18.196  10.920 -0.6421 -0.0945  0.1744
10652W        W30186  18.931  19.003  11.274 -0.0662 -0.1979  0.0104
10653W        W30187  18.960  18.342   2.543 -0.0725 -0.1854 -0.1347
10654W        W30188   7.875   7.695   3.278  0.0587 -0.2469 -0.0304
10655W        W30189   0.979  12.884  10.695  0.0092 -0.1489 -0.2167
10656W        W30190   4.681   0.870   0.061  0.1121 -0.3024 -0.2080
10657W        W30191  15.883   3.739  11.543  0.0036  0.0773  0.1550
10658W        W30192   0.108   6.432   2.908 -0.2071  0.3137  0.2202
10659W        W30193  18.152   7.046  13.714  0.0492 -0.0180 -0.1500
10660W        W30194   1.813  15.571   1.348 -0.0583 -0.0731 -0.0269
10661W        W30195   9.660   3.441   4.099  0.2736  0.3113 -0.1461
10662W        W30196  14.104  19.311  13.299  0.2059  0.0873  0.2185
10663W        W30197   8.709  18.410   0.755 -0.2555  0.2129 -0.0063
10664W        W30198   0.838   2.146  11.058 -0.0804  0.1812  0.0718
10665W        W30199   0.995   5.619  12.456 -0.0931  0.1724  0.2016
10666W        W30200  14.915   2.218   3.874  0.0634 -0.1251 -0.1657
10667W        W30201  16.753   2.829  11.662  0.1421 -0.0253 -0.2695
10668W        W30202   7.493   7.712   2.799 -0.0208  0.3114 -0.0265
10669W        W30203   7.920  14.189   3.210  0.3479  0.1659 -0.3535
10670W        W30204  18.439   6.300   3.305  0.0639  0.2342  0.3461
10671W        W30205  17.859   7.165   4.394  0.0423  0.1785 -0.1436
10672W        W30206  12.003   8.959  12.039  0.1583  0.1195 -0.2749
10673W        W30207  16.746  17.246  14.145  0.0009  0.2961 -0.3896
10674W        W30208  16.507  19.226   1.164 -0.0242  0.3036 -0.0750
10675W        W30209  19.097   0.057  12.837 -0.1507 -0.1987 -0.1127
10676W        W30210  12.586   0.048   0.237  0.0029 -0.3383  0.1078
10677W        W30211   9.334   7.441  11.210 -0.0011  0.2069  0.1246
10678W        W30212   3.319   6.897   1.320 -0.0492  0.0509 -0.0083
10679W        W30213   0.424   2.393  12.945  0.2047 -0.0205 -0.0675
10680W        W30214  13.002   2.504   1.921  0.2456  0.0663  0.1032
10681W        W30215   7.761   6.402  10.946 -0.0855 -0.0882  0.0247
10682W        W30216  14.811  12.716  11.264  0.0430  0.0708 -0.0791
10683W        W30217   3.626   0.415   3.628  0.1569 -0.1685 -0.0950
10684W        W30218  16.171   8.037   1.153  0.1276 -0.3103  0.0855
10685W        W30219  13.116   4.410  10.868  0.0631 -0.0399 -0.3818
10686W        W30220   2.172  11.568   1.304 -0.1024  0.1573 -0.0271
10687W        W30221  10.952   4.133   2.576 -0.1033  0.1882  0.2980
10688W        W30222   2.769  12.797   1.594  0.1166  0.1114  0.0215
10689W        W30223  11.050   2.654   2.059 -0.1439  0.2277 -0.2472
10690W        W30224  11.595   0.093  13.444  0.1207  0.3275  0.2925
10691W        W30225   0.151   4.051  13.792  0.1542 -0.1086  0.1802
10692W        W30226  18.088  16.382   9.805  0.0175  0.2773  0.0350
10693W        W30227   4.650   4.724   4.712  0.0539  0.0553 -0.3250
10694W        W30228   3.118  15.543   0.679  0.0134 -0.4747 -0.2236
10695W        W30229  13.099  15.402   2.683 -0.0293 -0.1037 -0.2413
10696W        W30230  17.531   0.376  12.705  0.4874  0.1833 -0.0549
10697W        W30231  17.006  12.394  14.161 -0.1704  0.1289 -0.1410
10698W        W30232   5.500   1.612   9.796 -0.3978 -0.0248 -0.1300
10699W        W30233   9.301   3.462  14.161 -0.2883  0.0563  0.1415
10700W        W30234  14.737  19.346  10.966 -0.3885  0.1160 -0.2557
10701W        W30235  11.113   5.691  11.132  0.2760 -0.0053  0.1899
10702W        W30236   5.207  18.989   1.568 -0.3618  0.0253 -0.1397
10703W        W30237   9.327  14.828   3.063  0.0487  0.3012  0.0661
10704W        W30238  11.839  15.930  12.535 -0.2596 -0.2440 -0.1210
10705W        W30239  10.887  12.442   9.503 -0.1444 -0.2165 -0.1713
10706W        W30240   7.489   4.599   4.844 -0.0907 -0.1881  0.0273
10707W        W30241   7.904   9.338   0.393  0.3254  0.1956 -0.0007
10708W        W30242   7.325   4.450   4.253 -0.2001 -0.2802  0.0780
10709W        W30243  10.085  16.100  11.080  0.0293  0.0742  0.0065
10710W        W30244  14.805  17.748  10.867  0.1190  0.1294 -0.2552
10711W        W30245  17.557   5.853   0.477  0.2434  0.2290 -0.2478
10712W        W30246  15.918   8.991   0.088 -0.2568  0.1300 -0.0800
10713W        W30247   2.018   0.682  14.344 -0.1750 -0.0238 -0.2276
10714W        W30248  10.552   3.748  12.302  0.0463 -0.0513  0.0624
10715W        W30249   4.747  10.699  11.260  0.0936  0.1974  0.0714
10716W        W30250   2.537   2.015  10.655 -0.0848  0.1085 -0.1990
10717W        W30251   0.011  16.351   0.537  0.1292 -0.1138  0.2899
10718W        W30252  12.562   7.440  12.877  0.1880 -0.2425 -0.0167
10719W        W30253   5.875  16.071  11.446  0.0152  0.0199  0.1202
10720W        W30254   8.654  11.182  13.604 -0.0897 -0.4146  0.1303
10721W        W30255   8.753   4.810   3.816 -0.0172 -0.1536 -0.1181
10722W        W30256   8.442  11.084  10.665 -0.1315  0.4527 -0.0925
10723W        W30257  16.803   9.574   0.114 -0.2524 -0.0382  0.3223
10724W        W30258   0.368  10.356  12.884  0.1782 -0.1831 -0.0949
10725W        W30259   6.121  11.676   0.992 -0.2291 -0.1144  0.2470
10726W        W30260  10.766  11.805   1.123 -0.0759 -0.1034 -0.0521
10727W        W30261   7.174  18.702   4.110 -0.1602 -0.0544 -0.0979
10728W        W30262   8.602  17.506   1.819  0.2304 -0.0775 -0.2113
10729W        W30263  11.176   4.229   0.137  0.0456 -0.0654  0.1031
10730W        W30264  16.063  10.890  14.106  0.0633  0.0005 -0.0405
10731W        W30265  17.355  11.225   1.999 -0.0543 -0.0967 -0.0725
10732W        W30266   2.984   2.759  11.084 -0.2753  0.0487  0.1587
10733W        W30267  15.827   6.724   3.231  0.0628 -0.1650  0.1767
10734W        W30268   6.840  10.678  14.251  0.0422 -0.0353 -0.1966
10735W        W30269  14.785  18.322  11.023  0.2144  0.2784  0.1051
10736W        W30270  18.655   0.322  11.969 -0.0900  0.0752 -0.1625
10737W        W30271  17.510  11.093   0.990 -0.1469 -0.0767  0.2852
10738W        W30272   6.613   9.569   0.278  0.1461  0.0413  0.0643
10739W        W30273   5.458   9.782   3.122  0.2192  0.2381  0.1275
10740W        W30274  13.726   5.354  13.507  0.1157 -0.1545  0.2842
10741W        W30275   9.522  15.541  13.689  0.0202  0.1627  0.0836
10742W        W30276  18.064   4.068  10.941 -0.0980 -0.1186 -0.0236
10743W        W30277   8.285   3.872  12.873 -0.1571 -0.0979  0.2025
10744W        W30278  11.666   9.351   0.872  0.0952  0.1819 -0.0424
10745W        W30279  11.400  15.612  10.299 -0.1562 -0.0767 -0.1962
10746W        W30280   2.466  13.830  11.363  0.0154  0.0123  0.3080
10747W        W30281   8.114  15.056   3.638  0.1439  0.2077  0.3199
10748W        W30282  15.658   2.051  13.886 -0.0255  0.5322 -0.0886
10749W        W30283  11.272  19.258   3.552 -0.0359  0.0384  0.2900
10750W        W30284  14.873   1.731   3.708 -0.4580  0.5084 -0.2453
10751W        W30285   4.474  15.948   4.442  0.2630 -0.1428  0.0437
10752W        W30286  14.619   4.871  13.550  0.1097 -0.1949  0.2753
10753W        W30287  13.822  13.430   0.210 -0.2238 -0.2349  0.0372
10754W        W30288   3.680   6.255  10.690 -0.0190 -0.0278  0.0636
10755W        W30289  19.293   2.661  13.233 -0.0725 -0.1054  0.1361
10756W        W30290   1.087   4.327   4.413  0.0314 -0.1784  0.1400
10757W        W30291  11.436  14.092  11.273  0.0113 -0.1520  0.0064
10758W        W30292   8.498   1.099   3.500  0.0860  0.0452  0.3083
10759W        W30293  18.351   5.448  10.623  0.2462  0.5279  0.4037
10760W        W30294  10.147  11.241   0.617 -0.0514  0.1272  0.0750
10761W        W30295   0.954  17.365  11.129 -0.0521 -0.1056 -0.0728
10762W        W30296   0.340   9.907   9.452  0.0775 -0.0400 -0.7041
10763W        W30297  14.565   1.581  11.816 -0.0855 -0.0961  0.0058
10764W        W30298   8.434  19.332  11.610  0.0164 -0.0895 -0.1149
10765W        W30299   0.099  16.251   5.099  0.4760  0.0445  0.0350
10766W        W30300   5.045  10.408  12.307  0.2296 -0.0361  0.1518
10767W        W30301   9.065  10.176  11.488  0.2609 -0.0321 -0.0632
10768W        W30302   1.799  10.938  10.244  0.2315 -0.0074  0.0435
10769W        W30303  15.505  17.031  10.983 -0.1874 -0.0700  0.0633
10770W        W30304   5.561   1.978  12.247 -0.2312 -0.0706 -0.1246
10771W        W30305   5.845   0.193  13.242 -0.1990 -0.2009  0.3648
10772W        W30306   8.655   1.258  10.102  0.0427 -0.1323  0.1661
10773W        W30307   8.928  19.455   1.153  0.0609  0.0438  0.0102
10774W        W30308  19.193   5.974   3.794 -0.2606 -0.0226  0.1499
10775W        W30309  14.291   1.566  12.394  0.2669 -0.0963  0.0929
10776W        W30310   7.997  13.173   4.058  0.0607  0.0396 -0.0420
10777W        W30311  11.909  19.305  10.175 -0.0296 -0.0365 -0.0076
10778W        W30312  17.407   1.536  13.950 -0.0333  0.1422 -0.0527
10779W        W30313  12.725  17.566   2.779 -0.1450  0.1197  0.0892
10780W        W30314  10.963  10.982  11.438 -0.2480  0.2994 -0.1246
10781W        W30315  10.755   3.695  10.855 -0.0429  0.1609 -0.1038
10782W        W30316   4.192   4.679   1.700 -0.0489  0.1309  0.0914
10783W        W30317  14.081  14.568  10.195 -0.3861  0.0480  0.1916
10784W        W30318   6.861   1.186   4.533  0.1713 -0.1163 -0.0578
10785W        W30319   1.105   3.708   1.654 -0.1029 -0.2518 -0.0158
10786W        W30320   2.597  13.075   1.213 -0.1428  0.1512 -0.0712
10787W        W30321   9.541   7.936   3.805  0.2881 -0.0412 -0.0210
10788W        W30322   8.465  18.555  13.629  0.0987  0.0438 -0.2216
10789W        W30323  19.125   6.253  11.353 -0.1126 -0.0197  0.2322
10790W        W30324   2.234   1.812  14.075  0.0208 -0.0986  0.1284
10791W        W30325   1.019  12.919  12.049  0.3393 -0.2190  0.1499
10792W        W30326   3.275  18.750   4.052 -0.0876  0.0033 -0.3367
10793W        W30327  13.875   1.218   3.367 -0.0828  0.2003  0.1815
10794W        W30328   8.029  13.309  12.879 -0.0120 -0.1479  0.2301
10795W        W30329  15.315  14.823   2.135 -0.0048 -0.0698  0.0002
10796W        W30330  15.968  14.592  11.727  0.2839 -0.2690 -0.0102
10797W        W30331  15.274   1.200  10.471  0.0581 -0.2387  0.0457
10798W        W30332   0.633   4.929  12.528  0.0259 -0.0814 -0.0881
10799W        W30333   5.740   5.288   0.392 -0.2391  0.0714 -0.1887
10800W        W30334   0.729   8.486   2.554 -0.2482  0.2859 -0.3786
10801W        W30335  13.461   4.961  12.089 -0.0610  0.0707  0.1933
10802W        W30336   3.620  15.551   0.897 -0.0159  0.0970  0.3610
10803W        W30337   8.185   4.010  10.899 -0.0610  0.0297  0.0891
10804W        W30338   7.353   1.063  10.384 -0.0342 -0.0764 -0.0735
10805W        W30339  18.040   3.126  10.679  0.0415 -0.0755 -0.2403
10806W        W30340   2.461  10.171   0.168 -0.3926  0.2364 -0.1306
10807W        W30341  11.072   9.112   1.856  0.0174 -0.2412 -0.0531
10808W        W30342  13.613   2.834   2.468 -0.3981 -0.0683 -0.0431
10809W        W30343   5.118  18.627   0.128 -0.1387 -0.2745 -0.1664
10810W        W30344  18.934  12.196  13.215  0.1694 -0.3034 -0.1688
10811W        W30345   5.866  11.297  10.975  0.0038 -0.2547  0.1496
10812W        W30346  15.028  10.083  10.850 -0.1562 -0.2695 -0.0267
10813W        W30347   1.371  19.392   2.652 -0.0528  0.0726 -0.1042
10814W        W30348   6.813   8.925  10.391 -0.2112 -0.0326  0.0904
10815W        W30349  14.112  18.951   3.008 -0.0192  0.0777  0.2434
10816W        W30350  15.434  17.597   2.411  0.0501 -0.1464  0.2925
10817W        W30351   4.028  10.750  11.430 -0.0699 -0.1135 -0.1988
10818W        W30352   6.963  13.791   1.492 -0.1185 -0.0933 -0.0762
10819W        W30353   8.304   8.018   2.375  0.1681  0.1489 -0.2364
10820W        W30354  17.385  14.776  11.938  0.2442 -0.3696 -0.0974
10821W        W30355  12.415   7.448   1.878 -0.0088 -0.3319  0.0139
10822W        W30356  12.898   2.862  11.211  0.1262 -0.0053  0.1184
10823W        W30357  15.531   8.091  12.046  0.2018  0.0645 -0.0870
10824W        W30358  15.237   3.998  13.369  0.3037 -0.0780 -0.1587
10825W        W30359   9.910  10.610  13.326 -0.2349  0.3750  0.1195
10826W        W30360   7.806   2.670  12.888  0.2493  0.1904  0.2334
10827W        W30361   2.129   8.292  13.215  0.1433 -0.0651  0.0613
10828W        W30362   8.532   6.832  12.829  0.2702  0.2735 -0.0123
10829W        W30363  15.464  11.300   1.041 -0.2828 -0.0242  0.0050
10830W        W30364   5.461  16.271   0.095  0.1192 -0.2221 -0.1519
10831W        W30365   7.257   5.464   3.339 -0.0864  0.1162 -0.0024
10832W        W30366   1.878  17.905   0.915 -0.2470  0.2214 -0.1767
10833W        W30367   3.304   4.802  13.153 -0.0723 -0.0573  0.0595
10834W        W30368   6.650  10.782  11.906 -0.0164  0.0133  0.0342
10835W        W30369  17.881  12.143   3.124  0.0205 -0.1769  0.2147
10836W        W30370  19.289   9.513   2.448 -0.1269  0.0486  0.1159
10837W        W30371  11.478  14.689   1.953  0.0108  0.0830  0.1274
10838W        W30372   3.408   1.979   3.325  0.3523  0.2481  0.1148
10839W        W30373  13.208   7.462   5.075  0.2903  0.0608  0.0729
10840W        W30374  10.994   1.450   0.622  0.0260  0.1312 -0.0188
10841W        W30375   5.734  16.621  10.664 -0.3149 -0.2896  0.0039
10842W        W30376   9.756   6.269   3.862 -0.4591  0.1354  0.0737
10843W        W30377  11.732  10.025   4.068 -0.1647 -0.0799  0.0011
10844W        W30378   5.593  12.989   3.019 -0.1747  0.2787  0.0323
10845W        W30379   6.849  13.809  13.603 -0.2265 -0.2006 -0.0533
10846W        W30380   1.818  13.209  13.855  0.1267  0.1728 -0.0106
10847W        W30381  17.868  12.195   1.370  0.0197 -0.1622 -0.3272
10848W        W30382   9.730   8.910   0.579 -0.0662  0.2017 -0.2215
10849W        W30383  18.391  16.261   3.334  0.2378 -0.0881 -0.1042
10850W        W30384  10.776  16.366   3.683  0.0847  0.0687  0.3028
10851W        W30385   1.075  10.175   4.170  0.2296 -0.0027 -0.0382
10852W        W30386  16.147  13.880   0.711  0.1076 -0.4124 -0.1695
10853W        W30387   4.459  10.330  11.641 -0.3035  0.0091  0.1124
10854W        W30388  10.074  17.721  14.041 -0.2229  0.0135 -0.0795
10855W        W30389  10.759  16.633  13.606 -0.0514 -0.0258 -0.0494
10856W        W30390   4.681   5.270   3.946  0.1637  0.2944 -0.2547
10857W        W30391   9.468  15.659  14.132 -0.0159 -0.2926 -0.2845
10858W        W30392  12.602   8.400  10.665  0.1826  0.0200  0.0495
10859W        W30393  13.290   0.831  11.942  0.0002  0.0803  0.0756
10860W        W30394  11.408   3.075  12.143 -0.1944  0.0119 -0.1313
10861W        W30395  10.414   8.617  11.347  0.0801  0.0861  0.0273
10862W        W30396   6.011   7.471   0.177 -0.0788  0.4517 -0.2184
10863W        W30397   0.580  16.590  12.051 -0.0682 -0.2985 -0.2351
10864W        W30398  16.866  14.096   0.981  0.3168 -0.0841  0.0548
10865W        W30399   3.914  13.670  10.824 -0.1467  0.0649  0.0570
10866W        W30400  14.047   3.224   0.544  0.1248 -0.0229 -0.0609
10867W        W30401   4.449   3.707  12.198  0.3140  0.2184 -0.0138
10868W        W30402  11.412  19.402  10.576  0.3553  0.0111  0.0310
10869W        W30403   2.059  14.653   0.703  0.2404  0.0639 -0.3492
10870W        W30404  18.574   3.752   3.336  0.0113  0.2087 -0.1649
10871W        W30405  17.041   3.267   3.995 -0.1138  0.0903  0.2223
10872W        W30406   9.504  18.132   3.556 -0.2137  0.0515 -0.1137
10873W        W30407  17.899  19.508   0.032  0.2251  0.2985 -0.4011
10874W        W30408   6.837  10.254   3.437  0.1281 -0.1390  0.3890
10875W        W30409  14.255   8.900   2.364 -0.0759 -0.1416 -0.1269
10876W        W30410   4.184   2.503   0.096 -0.1164  0.0090 -0.2674
10877W        W30411  14.078  11.168   3.664  0.0444  0.0766 -0.2033
10878W        W30412   6.276   2.883   0.146  0.0834  0.0781 -0.0286
10879W        W30413   3.439   0.266   4.090  0.1991 -0.1179  0.0702
10880W        W30414   4.380   5.177   0.967  0.0968 -0.1150 -0.3461
10881W        W30415  18.146   7.118   2.182 -0.2506 -0.1579 -0.2707
10882W        W30416   7.472   8.525   3.639 -0.3761 -0.0272  0.0163
10883W        W30417   8.056  12.742   1.819  0.1153 -0.1191 -0.2285
10884W        W30418   7.304  15.687   2.640  0.0425 -0.0319 -0.1559
10885W        W30419   8.433  17.647  10.658  0.0094  0.3053  0.4523
10886W        W30420   4.356   4.320  12.090 -0.0960  0.1784 -0.1851
10887W        W30421   1.758  14.279   2.573 -0.0374 -0.1174  0.0995
10888W        W30422   8.766   9.030  12.141 -0.0822  0.0648  0.2562
10889W        W30423   3.132   7.844   3.547 -0.2201  0.1042  0.3744
10890W        W30424   0.751  19.034  10.504 -0.0374  0.1524  0.1466
10891W        W30425   6.628  10.515  10.817  0.1682 -0.3329 -0.0294
10892W        W30426   1.684   6.899  11.101 -0.2271  0.2218 -0.1495
10893W        W30427   1.972  17.797  12.958 -0.2072  0.0149  0.1466
10894W        W30428  11.891  13.648   3.940  0.1733  0.1346 -0.1205
10895W        W30429  16.203   1.965  11.007 -0.0052  0.3358  0.1220
10896W        W30430   8.579   2.889   2.037  0.2934  0.0559 -0.0150
10897W        W30431  12.034   7.314   4.264 -0.2100 -0.3011 -0.0709
10898W        W30432   6.973   6.414   0.289  0.0660 -0.1498  0.2782
10899W        W30433  16.784  10.024  14.156 -0.0659  0.1582  0.4388
10900W        W30434   6.021   1.186   2.907  0.1438  0.0502 -0.0286
10901W        W30435   9.492  16.503  11.295  0.0223 -0.0424  0.1801
10902W        W30436   4.829  10.096  13.358  0.3507  0.2244  0.2487
10903W        W30437  14.489  11.745  12.079 -0.0362 -0.2167  0.0377
10904W        W30438   5.463  18.809   3.108 -0.1134 -0.1524  0.1616
10905W        W30439  17.321  14.649   2.258 -0.0697 -0.3842 -0.3754
10906W        W30440   3.849  18.396  14.200  0.1530  0.0006 -0.2202
10907W        W30441  16.839  19.347  10.017  0.1186 -0.1142 -0.2574
10908W        W30442  10.693   8.080  13.365 -0.1781 -0.1029 -0.0283
10909W        W30443  16.221  12.364   2.249  0.0315  0.1095 -0.0123
10910W        W30444   6.260  13.747   2.222 -0.0219 -0.1108 -0.1904
10911W        W30445   6.448   1.730   3.420 -0.1576  0.0238  0.0128
10912W        W30446   8.259  16.490   1.417  0.1161 -0.0323  0.2016
10913W        W30447  15.538   7.264  13.621  0.0905 -0.1368  0.0266
10914W        W30448  16.123   6.045   2.700  0.1398  0.4491 -0.2933
10915W        W30449   5.921   3.477   2.506 -0.1352 -0.0578 -0.0608
10916W        W30450   8.819  12.872   0.629 -0.2321 -0.2999  0.2337
10917W        W30451  18.935  12.109  11.013  0.3259 -0.2584  0.0819
10918W        W30452  16.137   7.430  12.459  0.0841  0.2682  0.3062
10919W        W30453  12.035   0.953   1.342  0.0641  0.4342  0.0256
10920W        W30454  12.975   4.785   9.285  0.2653 -0.0695  0.1123
10921W        W30455  16.828   5.867   2.892 -0.1262  0.1446  0.1546
10922W        W30456   0.372   2.992  13.200 -0.0281 -0.0456 -0.3808
10923W        W30457  11.439  16.146   9.455  0.0137 -0.3182 -0.1088
10924W        W30458  11.355   6.224   4.079  0.3947 -0.0320  0.2100
10925W        W30459   0.328   8.168   4.563 -0.1026 -0.2119  0.1121
10926W        W30460   2.409   3.873  10.906 -0.0634  0.0660 -0.2881
10927W        W30461  14.522  13.957   9.036  0.0336 -0.2330  0.4467
10928W        W30462   4.820   0.411   0.169  0.0920  0.3316  0.0530
10929W        W30463   7.217   7.828  13.666 -0.5407 -0.1659 -0.0979
10930W        W30464   7.132   3.729   0.453  0.2728 -0.2060 -0.1654
10931W        W30465  12.281  10.276  10.913  0.0265 -0.2924  0.1425
10932W        W30466  14.821   4.525  12.960 -0.1228  0.0187 -0.1367
10933W        W30467  15.260   4.328  10.837 -0.0475 -0.1466 -0.0627
10934W        W30468   8.388   7.034   3.952 -0.1326  0.0762 -0.1046
10935W        W30469  18.831   7.165   4.401  0.0677 -0.2226 -0.0223
10936W        W30470  10.314   8.040   0.030  0.1373  0.2134 -0.1237
10937W        W30471   3.682   9.146   3.018  0.0965  0.2780  0.0963
10938W        W30472   1.302   0.935   9.349  0.2138  0.0097  0.3257
10939W        W30473   1.606   7.995   3.293 -0.1046  0.0532  0.0104
10940W        W30474   4.747   6.726  14.108 -0.2193  0.2383 -0.0911
10941W        W30475  15.541  10.639   2.750  0.1095 -0.0614  0.1297
10942W        W30476  17.513  10.718  12.125 -0.1109 -0.2329  0.1442
10943W        W30477   6.319  14.740   4.198  0.1707  0.0060 -0.1945
10944W        W30478  10.843   4.936  13.583 -0.1384  0.3937  0.3535
10945W        W30479  17.576  13.365  13.266 -0.1743 -0.1675  0.2508
10946W        W30480  18.451  16.938   0.033 -0.0094 -0.2336 -0.1123
10947W        W30481   8.422  13.932   1.264 -0.1688  0.1368  0.0426
10948W        W30482  15.056   8.546   0.929 -0.0719 -0.0754 -0.2994
10949W        W30483  15.878  16.052  12.300 -0.2093 -0.1238  0.0500
10950W        W30484  12.456  19.122   2.342  0.3049 -0.0019  0.1441
10951W        W30485   7.989   1.067   1.122 -0.1553 -0.2101 -0.0585
10952W        W30486  12.102  19.118   0.153 -0.0244  0.4718 -0.2529
10953W        W30487   0.814  17.642   0.117 -0.2561 -0.1184 -0.2445
10954W        W30488  15.714   1.967  10.342  0.2439  0.2225  0.3119
10955W        W30489   0.805  18.955  10.022  0.0286 -0.1166 -0.2337
10956W        W30490   0.847   9.409   5.121 -0.0106  0.0123 -0.1874
10957W        W30491   4.600  15.384  11.098 -0.0122 -0.0666  0.1153
10958W        W30492   6.315  18.853  10.638  0.0247  0.2377 -0.0137
10959W        W30493  17.222   1.448  12.563 -0.1688  0.1733  0.1695
10960W        W30494   3.118   6.175  13.419 -0.1526 -0.1171 -0.0332
10961W        W30495  19.020   6.752   4.939 -0.0599 -0.3798  0.0963
10962W        W30496  19.066  15.517   1.734  0.1309 -0.1412  0.0330
10963W        W30497  18.398  15.700  12.332  0.2695  0.0314 -0.1592
10964W        W30498   7.465   6.872   1.658 -0.1504 -0.0377  0.2464
10965W        W30499   9.091   6.961   2.651  0.0045 -0.2268 -0.0556
10966W        W30500  13.035  14.516   0.713  0.3600  0.3162 -0.1725
10967W        W30501   9.748  18.218   0.764 -0.3296 -0.0022  0.1241
10968W        W30502   6.058   2.782  12.452  0.2089  0.0114  0.0117
10969W        W30503   8.650  14.727  12.543  0.0544  0.2978  0.0306
10970W        W30504   6.652  14.679  13.835  0.0480  0.1158 -0.0001
10971W        W30505  12.286   7.849  10.763 -0.1381 -0.1404  0.4107
10972W        W30506  13.053   7.528  12.708  0.0005  0.2666  0.1254
10973W        W30507  11.090   7.271   4.203 -0.3764  0.0094  0.1617
10974W        W30508   1.071  18.390   0.672  0.1908 -0.2459 -0.2715
10975W        W30509  18.100   1.843  10.293  0.2426  0.0074 -0.3356
10976W        W30510   9.869  10.383   2.298  0.2387 -0.1848 -0.1188
10977W        W30511  13.375   6.086  14.002 -0.3750  0.0743  0.0383
10978W        W30512   7.611  17.651  13.257  0.0840  0.1469  0.0759
10979W        W30513  13.609  15.366  13.996 -0.1306 -0.2260  0.2264
10980W        W30514  17.429  12.677   0.627  0.2658 -0.0281  0.2386
10981W        W30515   5.768   5.134  12.616 -0.2214  0.1954 -0.1140
10982W        W30516   7.743   9.713   0.106  0.2620 -0.1892  0.1046
10983W        W30517   9.159   9.045  14.104  0.1977 -0.0414  0.0164
10984W        W30518  15.883  16.834  13.489 -0.0800 -0.2063  0.1457
10985W        W30519   5.025   2.491   3.013  0.4927  0.0165  0.1079
10986W        W30520  16.467   9.570   1.245 -0.4106 -0.0086  0.2012
10987W        W30521   5.295   3.859   0.231 -0.2202  0.1006 -0.2252
10988W        W30522  17.590   8.085   1.392  0.2340 -0.0841  0.0317
10989W        W30523   2.080  15.805   3.716  0.0077  0.2052  0.0858
10990W        W30524   1.427  13.820   2.409  0.0098 -0.0315 -0.0935
10991W        W30525  12.318   4.948   0.055 -0.0924 -0.0695 -0.0262
10992W        W30526   6.630   5.638  11.468 -0.1642 -0.2414  0.2098
10993W        W30527  18.561   1.059   3.628  0.0149 -0.1284  0.0963
10994W        W30528  16.235   4.061  11.174 -0.2670  0.0244  0.2153
10995W        W30529   2.685  10.094   1.784 -0.1964 -0.2264  0.0470
10996W        W30530   0.268  12.621  13.180  0.0934  0.0082 -0.0801
10997W        W30531  17.531  11.996   1.081 -0.1140  0.0014  0.0577
10998W        W30532   2.769  17.363  13.507  0.0757  0.1164  0.1756
10999W        W30533   5.133  18.258  11.685  0.2021  0.0035 -0.0171
11000W        W30534  14.700   8.616  11.968  0.1396  0.0202  0.0926
11001W        W30535  18.985  10.058   3.607 -0.0660  0.0077 -0.1290
11002W        W30536   3.476   9.610  13.630 -0.2493 -0.2687  0.1004
11003W        W30537  18.804   3.042   0.758  0.1993  0.1066 -0.0960
11004W        W30538   2.337   2.864   0.588 -0.0376 -0.2020  0.2341
11005W        W30539   0.756  17.709  10.185  0.0786  0.0876  0.0578
11006W        W30540  12.933  10.473   3.533 -0.0025 -0.1016  0.3181
11007W        W30541   0.940  18.280  13.279 -0.2274  0.1215 -0.1343
11008W        W30542   6.702  11.785   2.110  0.1313  0.2034  0.0498
11009W        W30543   0.090   0.675  12.280  0.3198  0.1459 -0.1215
11010W        W30544  17.954   2.264   3.310 -0.1613  0.0448 -0.0656
11011W        W30545  18.452  15.847  13.750 -0.1145 -0.3031  0.0273
11012W        W30546   6.572  17.462  11.554  0.0471  0.0309  0.4827
11013W        W30547   8.332   8.807   1.967  0.4075  0.0380  0.1341
11014W        W30548   6.819  12.333   9.610 -0.0383  0.0556  0.2838
11015W        W30549   2.421   9.616   2.881  0.1993 -0.1333  0.1455
11016W        W30550  17.530  13.080   1.067 -0.0148  0.2168  0.3569
11017W        W30551  13.320   6.773   0.242  0.0270 -0.2089 -0.0283
11018W        W30552   1.746   0.894   9.627  0.1690 -0.0929  0.2287
11019W        W30553   2.797  10.433  10.516 -0.3877 -0.2372 -0.3713
11020W        W30554   9.055  14.851  12.211  0.0333  0.1427 -0.0842
11021W        W30555   3.350  10.823   3.867 -0.4438 -0.3741  0.0303
11022W        W30556  16.015   7.806   4.347  0.0393  0.1858 -0.0931
11023W        W30557   4.650  15.253  12.480 -0.0138  0.2155 -0.0052
11024W        W30558  12.431   6.267  10.937 -0.0107 -0.0573  0.2658
11025W        W30559  14.878   9.817   3.740 -0.0670  0.2723 -0.4078
11026W        W30560   5.771   6.718  10.619  0.0610  0.1045  0.1430
11027W        W30561   2.306  16.701  12.290 -0.0441 -0.0370  0.0944
11028W        W30562  12.849   3.761  12.056  0.2914 -0.1375  0.3425
11029W        W30563  10.747   3.209  10.857  0.4483  0.1728 -0.2663
11030W        W30564  11.148  19.263   1.770 -0.1361  0.1476  0.1685
11031W        W30565   4.192   6.102   2.957 -0.4061  0.1144 -0.1072
11032W        W30566   6.888  16.064   2.214 -0.0411 -0.1432 -0.1302
11033W        W30567  15.961  12.719  13.919 -0.4102  0.0347 -0.1929
11034W        W30568   5.521   8.842  13.056  0.4741  0.1145  0.1963
11035W        W30569   1.370  13.863   3.607  0.0341 -0.0565 -0.1066
11036W        W30570  17.477  16.152  10.849  0.2456 -0.1204 -0.0706
11037W        W30571   7.659  19.433  13.358  0.0333 -0.1094 -0.0754
11038W        W30572  18.070  18.114  12.605  0.3912 -0.1591  0.1735
11039W        W30573   5.503  12.861   3.523  0.1263  0.0211 -0.0768
11040W        W30574  15.503  17.002   1.443 -0.1817  0.1506  0.0854
11041W        W30575   7.507   6.746   4.035  0.0116  0.3770  0.0543
11042W        W30576  19.224   0.696   2.037 -0.4116  0.1353  0.0906
11043W        W30577   8.637   6.326  10.808 -0.1963 -0.0675 -0.0638
11044W        W30578  12.480   3.588  12.389  0.0492 -0.1590 -0.2483
11045W        W30579   2.708   8.556  10.122 -0.0532  0.1332 -0.1215
11046W        W30580   8.650   1.127  13.566  0.2116 -0.0781 -0.0559
11047W        W30581   3.862   6.986  10.470 -0.1541  0.0867  0.0522
11048W        W30582  14.878  18.109   1.994 -0.0668  0.3117 -0.0325
11049W        W30583   6.071  18.872   0.711  0.1444 -0.1297  0.1317
11050W        W30584  12.250  14.371   1.171  0.2706 -0.0873 -0.0591
11051W        W30585  13.787   8.325   2.528 -0.1559  0.0427  0.1413
11052W        W30586   3.215  18.187  13.665  0.2224 -0.0571  0.1113
11053W        W30587  14.526   2.209  12.784 -0.3041  0.0097  0.1258
11054W        W30588   3.573  12.321   0.641  0.1042  0.1064  0.2062
11055W        W30589   2.855  11.543  14.286  0.0226  0.0662  0.0280
11056W        W30590  11.359   5.613  13.345 -0.1973 -0.2099 -0.1141
11057W        W30591  11.465  10.298   2.367  0.1012  0.1767  0.0949
11058W        W30592   2.696   2.995   2.533  0.0673  0.0904  0.1250
11059W        W30593   7.240   2.443   0.640 -0.0953 -0.1770 -0.4488
11060W        W30594   8.838  11.876   2.118 -0.1174  0.2755  0.0705
11061W        W30595   5.947   5.940   1.855 -0.5179 -0.2721 -0.2221
11062W        W30596   4.648  12.145  13.959  0.0508 -0.2915  0.0986
11063W        W30597   3.880   9.790  12.294 -0.2558 -0.2756  0.1852
11064W        W30598  10.644  14.530   1.206 -0.0519 -0.4131  0.1191
11065W        W30599   9.563   6.414  13.557  0.0466  0.1210 -0.2264
11066W        W30600   0.891   4.984  12.983  0.2989 -0.1587 -0.0239
11067W        W30601  18.091  15.579  10.355  0.1114  0.1100 -0.0906
11068W        W30602   7.403   5.001  11.507  0.0719 -0.0113  0.0573
11069W        W30603   3.381   7.628   1.153  0.2308  0.0121 -0.0436
11070W        W30604   1.665   8.927   0.523  0.0269 -0.1022 -0.0802
11071W        W30605   4.529   7.216   1.561 -0.1983  0.1854 -0.1641
11072W        W30606   7.950   3.142  10.694  0.3631  0.1605  0.4395
11073W        W30607  16.274  13.382  11.698  0.1952  0.1017 -0.3569
11074W        W30608  11.922   9.537  13.790 -0.2088  0.0715  0.1236
11075W        W30609  14.375  11.497   4.843  0.4118 -0.0427  0.0719
11076W        W30610   3.013  13.765   5.122 -0.1182 -0.1922  0.2588
11077W        W30611   8.332   3.860  13.411 -0.2088  0.1640  0.0061
11078W        W30612   9.428   0.651  13.487  0.1122 -0.0230  0.0112
11079W        W30613  16.992   0.619  10.265  0.3769  0.0625  0.0330
11080W        W30614   2.960   0.918   9.971 -0.0948  0.4555 -0.4328
11081W        W30615   8.373   2.957  13.043 -0.3574  0.3324  0.0454
11082W        W30616   2.180  16.825   2.421  0.1869  0.1748 -0.1715
11083W        W30617   1.428  11.251   0.919  0.2167  0.0645 -0.3059
11084W        W30618   8.714   5.726  11.472  0.2163  0.2624  0.0543
11085W        W30619  10.822  12.469   1.277 -0.2380 -0.2226 -0.1691
11086W        W30620  13.641   7.514  13.112 -0.1143  0.1146 -0.0641
11087W        W30621  12.503   7.475   3.513 -0.1316 -0.2723 -0.0601
11088W        W30622   9.759   7.782  11.101 -0.0202 -0.0246 -0.0200
11089W        W30623   4.901  18.262  14.142 -0.0327 -0.2273 -0.2914
11090W        W30624  18.535   1.312   9.581  0.1266  0.2451 -0.0910
11091W        W30625   1.909   5.695  12.730 -0.0693 -0.0858 -0.2609
11092W        W30626  19.041   7.744   0.840 -0.2105  0.0890  0.2258
11093W        W30627   9.138  10.451  10.894 -0.3809  0.1529  0.0746
11094W        W30628  16.223  10.481  10.247 -0.2524 -0.1428 -0.1648
11095W        W30629  13.461   2.023   1.151 -0.1292 -0.0031  0.5429
11096W        W30630   5.663  12.113  14.088  0.0366  0.0519  0.1004
11097W        W30631   3.857   7.198  10.932 -0.1633  0.0574  0.2787
11098W        W30632   3.491   1.533  11.266 -0.1103  0.1253  0.1408
11099W        W30633  12.902  16.252   1.177 -0.0863 -0.2176  0.1456
11100W        W30634   9.482  16.241   4.024 -0.1278  0.0644  0.1264
11101W        W30635   4.490  16.875   4.082 -0.0958 -0.0108  0.0548
11102W        W30636  18.487   3.278   4.043  0.0392  0.0766 -0.1859
11103W        W30637   3.169  11.910  12.100  0.2461  0.0981  0.2069
11104W        W30638  12.226   3.674  13.514  0.2537  0.1587  0.0035
11105W        W30639  12.471  13.108   0.154  0.0130  0.3586 -0.0059
11106W        W30640  14.985   4.799   0.103  0.1343  0.1279 -0.0231
11107W        W30641  14.477   7.038   3.461 -0.0974 -0.0207  0.1437
11108W        W30642  13.637  13.423  11.372  0.0075  0.4160  0.0272
11109W        W30643   0.758  12.880  13.929  0.1062  0.0719 -0.1289
11110W        W30644  16.894   8.520   3.587 -0.0589 -0.1390 -0.0604
11111W        W30645  11.163  16.952   2.037  0.0703 -0.0850 -0.1711
11112W        W30646   0.570  13.059  12.356  0.0802 -0.0185 -0.0102
11113W        W30647  16.659   1.188   0.794 -0.2007  0.1114  0.0152
11114W        W30648  10.123   0.596   1.801  0.1368 -0.2681 -0.0241
11115W        W30649   0.191  19.344  13.275  0.3240 -0.0470 -0.3803
11116W        W30650   1.521   1.095   3.016  0.0206 -0.0924 -0.0032
11117W        W30651   6.847   6.383  10.324 -0.6230 -0.2927  0.2207
11118W        W30652   8.091  14.097  12.425  0.1928 -0.1604 -0.2121
11119W        W30653   8.180   3.546   3.168  0.1322 -0.0183  0.1283
11120W        W30654   5.703   3.665   0.489  0.1756 -0.1949 -0.0767
11121W        W30655  11.818   6.955  12.486 -0.0747 -0.3334 -0.0818
11122W        W30656  17.620   3.256   0.901 -0.2993  0.1946 -0.2509
11123W        W30657   2.523   7.850   3.673  0.1677  0.1753 -0.2391
11124W        W30658   7.750   8.191   4.233  0.0974 -0.0901  0.1002
11125W        W30659  13.392  14.863   4.210  0.0863 -0.0302 -0.1783
11126W        W30660  17.052  15.207   4.494 -0.1397 -0.0274 -0.2034
11127W        W30661  18.186   8.600  14.285 -0.0870  0.0454 -0.1612
11128W        W30662   3.529   3.609   3.785 -0.2023  0.0066 -0.1696
11129W        W30663   2.525  18.871  13.888  0.1018  0.1325  0.1861
11130W        W30664   5.384   8.892   3.602 -0.0398  0.1312  0.0613
11131W        W30665   0.387   7.283  14.031 -0.1732  0.0163  0.0324
11132W        W30666  15.536  12.726   2.665 -0.2032  0.0866 -0.2413
11133W        W30667   9.516  11.719   1.344  0.1508  0.2686  0.0748
11134W        W30668  15.604  15.454   0.687 -0.2823 -0.0149  0.2921
11135W        W30669   5.411  15.456   3.077 -0.0984  0.3359  0.0548
11136W        W30670   6.587  14.094   1.717 -0.1108 -0.1115 -0.0521
11137W        W30671  15.807   5.170  11.925 -0.0137 -0.0617 -0.0226
11138W        W30672  11.641   5.635   1.659 -0.0025  0.2160 -0.0455
11139W        W30673   5.833  17.128  11.152 -0.0590  0.0888  0.1395
11140W        W30674   0.981   8.724   3.725  0.0408 -0.2115  0.2753
11141W        W30675  16.826   7.175   1.288 -0.3065  0.0288  0.1032
11142W        W30676   1.022   5.497   1.563  0.0256  0.1965  0.0577
11143W        W30677   9.807   5.680   1.253  0.1377 -0.0062  0.2247
11144W        W30678   1.801   2.161  13.405 -0.0453  0.1316  0.0129
11145W        W30679   0.897  12.504   2.724 -0.1285  0.0494  0.0568
11146W        W30680   3.564   5.764  12.849 -0.0579  0.1709  0.0961
11147W        W30681   5.915  17.260  12.905  0.1545  0.0686  0.2018
11148W        W30682  17.914   9.773   3.907  0.2009  0.2242 -0.1731
11149W        W30683   8.371  12.845  13.753  0.0031  0.0528 -0.0911
11150W        W30684   5.497  10.755  13.623  0.1738  0.0512  0.2493
11151W        W30685  12.642   7.963  11.789 -0.1233  0.4316  0.1423
11152W        W30686  19.267  10.901  12.212 -0.1482  0.0923 -0.0601
11153W        W30687   1.742  16.818   0.973  0.3247  0.0187  0.3495
11154W        W30688  17.129   1.563  10.323  0.1947  0.2202 -0.2390
11155W        W30689  15.871  18.831   3.552 -0.1047  0.0069 -0.2152
11156W        W30690   6.414   2.918   0.724  0.1162  0.1545  0.2340
11157W        W30691  13.320   7.219  13.914 -0.0616 -0.0035 -0.0241
11158W        W30692   9.095  12.268   3.365  0.0663 -0.1006  0.2022
11159W        W30693  18.178   8.776   2.022 -0.0890  0.2179  0.0522
11160W        W30694   9.388  14.626   3.539  0.1324 -0.2947  0.0859
11161W        W30695  12.642  18.299   2.009  0.3159 -0.0498  0.2460
11162W        W30696  14.564  17.483  12.343 -0.2152  0.1560  0.1319
11163W        W30697  16.777  12.396   5.128  0.1979 -0.0108  0.1714
11164W        W30698   1.779   3.676   1.076  0.2428  0.0709 -0.1904
11165W        W30699  15.562   2.772  10.785 -0.2896  0.1409  0.0887
11166W        W30700   0.780   5.368   4.023  0.1664 -0.2397 -0.0268
11167W        W30701   3.787  10.372   1.229  0.0275 -0.0761  0.0548
11168W        W30702   9.818   4.103  12.070  0.1570  0.1149 -0.0508
11169W        W30703  15.878   3.200  10.826  0.0890  0.0512  0.0788
11170W        W30704   1.540   4.331  14.144 -0.0471  0.0187 -0.1235
11171W        W30705   8.473  13.377   1.135  0.0231 -0.0113  0.0722
11172W        W30706  18.980   3.457  10.846 -0.1298 -0.1514 -0.1080
11173W        W30707  11.868   3.967   3.268 -0.0836 -0.1803  0.0082
11174W        W30708   2.912  17.007  12.744  0.1837 -0.1146  0.0261
11175W        W30709   7.158  10.496  11.041  0.2079 -0.0841 -0.3300
11176W        W30710   1.422  15.693   1.131  0.1676 -0.2098 -0.2104
11177W        W30711  18.667   6.304  12.108 -0.1756 -0.1536  0.1854
11178W        W30712  13.587  19.303  13.372 -0.0445 -0.3347 -0.0349
11179W        W30713   1.931  10.188   0.122 -0.2465  0.2555 -0.0618
11180W        W30714   8.790  16.112   2.741 -0.0992 -0.1394  0.0561
11181W        W30715  10.136  11.135  12.166  0.0814 -0.1377 -0.0510
11182W        W30716  12.415  16.560   0.297  0.0526 -0.0677 -0.4140
11183W        W30717   4.058  13.539   2.409  0.0352  0.2900 -0.2629
11184W        W30718  17.870   5.542   1.466  0.1657 -0.0329  0.1214
11185W        W30719   3.948   3.980  14.183  0.2393  0.0032 -0.0046
11186W        W30720  15.260  19.473  11.447  0.3816 -0.0285 -0.1578
11187W        W30721   8.293   2.221  13.649  0.0245 -0.1607  0.1568
11188W        W30722   4.234  14.619   1.771 -0.0991 -0.0928  0.1633
11189W        W30723  12.863   1.532  12.963  0.2064 -0.1921 -0.0550
11190W        W30724   2.513   1.910   3.000 -0.6500  0.3511  0.1135
11191W        W30725   1.622  18.039  10.558  0.3024 -0.1685 -0.2339
11192W        W30726  16.215   3.269   2.409 -0.0574  0.1038  0.1617
11193W        W30727   0.690  10.384  10.700  0.0645 -0.1139 -0.0165
11194W        W30728   1.273   2.756   3.697  0.0554  0.3104 -0.0514
11195W        W30729  10.379  14.670   3.777 -0.0822  0.0981  0.0180
11196W        W30730  11.055   3.689   2.735 -0.0978  0.1134  0.0990
11197W        W30731  13.147  13.984   1.073 -0.2604  0.0359  0.1225
11198W        W30732   7.490   2.247   1.086  0.0035 -0.0987  0.1273
11199W        W30733  18.626  13.853   0.871 -0.1026  0.2063 -0.2198
11200W        W30734   5.148   2.291  10.262  0.0889  0.0208  0.0636
11201W        W30735   5.061  15.168  14.098 -0.0345  0.3444  0.0788
11202W        W30736  11.914   3.863   0.354  0.2422  0.0254  0.3475
11203W        W30737  10.905   4.557   1.459  0.0412 -0.2014 -0.0483
11204W        W30738   7.935  14.449  11.798 -0.0741  0.0280  0.2149
11205W        W30739   0.286  12.242  10.829  0.0961  0.0021 -0.3195
11206W        W30740   3.701   2.611   2.583  0.2797  0.3240 -0.0036
11207W        W30741   0.875   9.235   3.679  0.0068 -0.1500 -0.1493
11208W        W30742  16.981   3.016   0.212 -0.2172 -0.0637 -0.2383
11209W        W30743  16.986  16.738  11.981  0.2523 -0.0204 -0.0314
11210W        W30744   1.128   5.152  11.873  0.0673 -0.1174  0.0427
11211W        W30745  13.485  12.564   2.594  0.3501 -0.1845  0.1388
11212W        W30746   6.116   1.672   0.310 -0.0685 -0.0074  0.3312
11213W        W30747   9.518  18.544  11.686 -0.0505 -0.1648  0.1572
11214W        W30748   0.696   4.992  13.475 -0.1749  0.1886 -0.0466
11215W        W30749   8.171  10.983  13.179 -0.3704 -0.0025 -0.0082
11216W        W30750  18.211   8.860   3.752  0.3422  0.1328 -0.0632
11217W        W30751   2.910   5.239   0.608  0.1427  0.1499 -0.1652
11218W        W30752  16.304  16.804   2.951 -0.0084 -0.1243  0.1448
11219W        W30753  10.997  13.986   1.098 -0.1607  0.2116 -0.2838
11220W        W30754   1.597   1.400   2.160 -0.1656  0.3445 -0.1060
11221W        W30755   8.764  14.233  11.778 -0.4421  0.0682  0.0685
11222W        W30756  17.079  14.222   3.440  0.0526  0.2936  0.1500
11223W        W30757  18.646  12.945   2.384  0.1357  0.0132 -0.1938
11224W        W30758   9.993   1.766   3.596 -0.2154 -0.0816 -0.0989
11225W        W30759  10.479   0.291  14.331  0.0977  0.1890  0.1203
11226W        W30760   4.201  18.327  13.637 -0.2035  0.1048  0.2132
11227W        W30761  17.625   5.065   1.422 -0.3945  0.1556  0.1095
11228W        W30762   4.352   3.672  11.362 -0.0362 -0.2126 -0.1247
11229W        W30763  16.404  14.515  12.765  0.0831  0.0510  0.2729
11230W        W30764  15.683   3.525  12.444  0.0631 -0.1403 -0.0064
11231W        W30765  15.473  16.112   9.301  0.1229 -0.2079  0.0071
11232W        W30766   2.072   1.981   3.321  0.0616  0.0639 -0.0732
11233W        W30767   8.980  12.048   4.295  0.2670 -0.1073 -0.1844
11234W        W30768   2.031   1.975   2.809  0.0218 -0.0025 -0.0807
11235W        W30769  12.171   5.014   2.541 -0.0870  0.0850 -0.2298
11236W        W30770  13.775   1.744  12.412 -0.0274 -0.1119 -0.1701
11237W        W30771   7.506  16.162  10.462  0.1046 -0.1087 -0.1539
11238W        W30772  13.392   0.978  11.475 -0.2075 -0.2541 -0.0589
11239W        W30773  12.453   9.982   2.839  0.0171 -0.6056 -0.0672
11240W        W30774   7.220   8.205   0.221 -0.0995  0.2268  0.2904
11241W        W30775  13.225  17.466   0.436  0.0033  0.1882  0.1543
11242W        W30776  17.986   4.071   0.388  0.1653 -0.0002  0.2852
11243W        W30777   4.829  15.641  14.181 -0.0125  0.3885  0.1184
11244W        W30778   9.090   8.274  11.110 -0.1118 -0.0083  0.2448
11245W        W30779  16.379   1.011   0.096 -0.4882 -0.0630  0.0654
11246W        W30780   6.375  12.296  11.790 -0.3262  0.0754 -0.1033
11247W        W30781   1.359   5.447   3.632  0.1231  0.3799  0.0243
11248W        W30782  10.135  14.394   1.151 -0.3137 -0.1005 -0.2261
11249W        W30783  18.585   4.950  13.255 -0.1513 -0.1755 -0.1289
11250W        W30784  10.793  13.028   1.175 -0.0984  0.0692 -0.0654
11251W        W30785   9.885   2.197   2.121 -0.1297 -0.0303 -0.1935
11252W        W30786  11.442   5.507   0.106  0.0299 -0.2902 -0.1277
11253W        W30787  12.585   1.356  13.921 -0.2744 -0.4876  0.1607
11254W        W30788   3.603   6.274   3.190  0.2053  0.0269 -0.0452
11255W        W30789  13.556   6.864  13.554  0.2299 -0.1397  0.0551
11256W        W30790   4.007   1.774   0.811 -0.1981  0.1687 -0.0113
11257W        W30791  17.271  17.426  13.974 -0.0601 -0.3576 -0.0290
11258W        W30792  11.481   4.184   1.531 -0.0989  0.0233  0.0580
11259W        W30793  15.376   9.214   2.381  0.1274 -0.1538 -0.0485
11260W        W30794   0.276   4.585   0.459  0.1184 -0.0528  0.1640
11261W        W30795   3.710  19.472   2.382  0.3809 -0.1621 -0.0133
11262W        W30796   9.612   3.295   0.311  0.0463 -0.2491  0.1294
11263W        W30797  14.345  12.262  13.708  0.0166  0.0235  0.1687
11264W        W30798  10.046   5.828   4.071 -0.2284  0.0869  0.2108
11265W        W30799  18.745  11.413  12.571  0.0410  0.1632 -0.2993
11266W        W30800   6.111   1.665   3.069 -0.0970 -0.0175 -0.0467
11267W        W30801  19.442   2.595  10.985  0.0236  0.0633  0.0630
11268W        W30802  16.378   0.779  12.816 -0.0047 -0.2099  0.0561
11269W        W30803   0.535  12.970   3.871 -0.1225  0.1423  0.2367
11270W        W30804   4.438  13.405  14.168 -0.0906  0.1695 -0.1703
11271W        W30805  13.091   5.912   3.960 -0.0935  0.3689 -0.2860
11272W        W30806  14.674   8.195  11.678  0.1919 -0.0595  0.0896
11273W        W30807   0.976   9.037   0.019 -0.1375 -0.0864 -0.0455
11274W        W30808  18.911  13.378   1.669 -0.1658 -0.1312  0.1179
11275W        W30809  14.111   9.886   0.271  0.0255 -0.2528  0.0709
11276W        W30810   9.207   9.262   3.564  0.3539  0.2377 -0.0542
11277W        W30811   0.289   5.184  11.255  0.1471 -0.0238  0.2565
11278W        W30812   3.134   8.276  13.114  0.0563 -0.0260 -0.2832
11279W        W30813   8.284  15.621   0.310 -0.3852 -0.0999  0.1163
11280W        W30814  14.001  19.247  11.629 -0.0054  0.0652 -0.0148
11281W        W30815  13.533   6.018   1.504  0.0359 -0.5037  0.1027
11282W        W30816   6.672  12.503   2.946 -0.1292 -0.2050  0.2206
11283W        W30817  14.344  15.143   4.964 -0.1701 -0.2448  0.2776
11284W        W30818  15.046   1.629  12.437  0.0051 -0.2440 -0.3158
11285W        W30819  10.802  15.738   2.741 -0.1839 -0.0795 -0.2810
11286W        W30820  12.938  18.644   1.751 -0.0769 -0.1865 -0.1861
11287W        W30821   3.628  14.089  13.683 -0.0731 -0.1014 -0.0031
11288W        W30822  14.439  13.113   0.760 -0.1741  0.0966  0.1251
11289W        W30823   8.627   5.183  13.137  0.1175  0.2065 -0.0376
11290W        W30824  17.082  19.294  13.907  0.0802  0.2525 -0.2312
11291W        W30825  17.690  14.986  11.620 -0.6846  0.0916 -0.0320
11292W        W30826  12.427   2.695   5.017  0.0890  0.2444 -0.0672
11293W        W30827  11.928  19.102  13.360  0.2620  0.2614  0.3312
11294W        W30828  18.577   3.990   2.694 -0.1225  0.0477 -0.0951
11295W        W30829  10.633   6.715   3.056  0.1946 -0.0379 -0.2376
11296W        W30830  16.149  10.379   1.386 -0.0986 -0.1283  0.3088
11297W        W30831   7.227   9.172   3.066  0.5268  0.1566 -0.1088
11298W        W30832   2.219   4.277   0.824  0.0785  0.0838  0.0336
11299W        W30833  18.092   1.016  11.944  0.1753  0.4531  0.3883
11300W        W30834   4.823   3.621  10.869  0.1369  0.0124 -0.0266
11301W        W30835   7.463  16.077   4.131 -0.1579 -0.1737 -0.0701
11302W        W30836   0.946   8.819  10.359  0.1732  0.0434 -0.3246
11303W        W30837   9.639  15.982  13.794 -0.0070 -0.3062 -0.1651
11304W        W30838   6.424  17.700   3.856  0.2802  0.2855 -0.4505
11305W        W30839   5.984   3.273   0.687  0.0623  0.1787  0.4164
11306W        W30840  17.809  13.499   1.195  0.0586  0.1268  0.1258
11307W        W30841   4.123   3.324   1.786  0.0422  0.1456 -0.2171
11308W        W30842   6.869   0.911   1.143  0.0414 -0.1784  0.1071
11309W        W30843   1.366   1.431  12.964  0.4133 -0.3741  0.2108
11310W        W30844   8.170  13.722  14.171  0.0476  0.2222 -0.0796
11311W        W30845  16.427   0.183   0.918 -0.0720 -0.0755 -0.0717
11312W        W30846  14.789   5.489  12.726 -0.1968 -0.1636  0.0133
11313W        W30847   3.958   7.848  12.902  0.0305 -0.0438 -0.0071
11314W        W30848   7.636  16.640  14.187  0.0717  0.0536  0.2497
11315W        W30849  17.006   2.084   2.235  0.3099 -0.0754  0.4601
11316W        W30850  11.810  12.707   3.038 -0.1512 -0.1746 -0.2071
11317W        W30851   9.759  13.731   0.600  0.0882  0.0965 -0.3365
11318W        W30852   6.393  18.853  11.221 -0.1300  0.0782  0.2188
11319W        W30853  11.032  11.430   0.078 -0.1274  0.2395 -0.0470
11320W        W30854  14.336  13.733   1.164  0.0620  0.0245 -0.0628
11321W        W30855  11.782  12.453   3.493  0.2104 -0.0183  0.0064
11322W        W30856   3.283  13.787  11.340 -0.0275  0.1449  0.2351
11323W        W30857  18.593   5.450  13.580 -0.0124 -0.1117 -0.0885
11324W        W30858   6.237  17.888  11.493 -0.2523  0.1001  0.1258
11325W        W30859  12.918   6.385   1.524  0.0176 -0.0633  0.0482
11326W        W30860  19.452  15.454  12.800  0.1727  0.3822 -0.2268
11327W        W30861   5.773   9.536   2.306 -0.2117  0.1009  0.1012
11328W        W30862  17.567  15.030   3.510  0.0694 -0.0985 -0.2110
11329W        W30863   6.734   3.427  13.577 -0.2532  0.1342 -0.1580
11330W        W30864  17.979  14.836   1.326 -0.1942  0.1136 -0.0900
11331W        W30865  11.934   0.314   2.270 -0.4157  0.1638 -0.0769
11332W        W30866   4.541   8.907   1.702  0.0585 -0.4155  0.0045
11333W        W30867  18.462  17.828  10.289  0.1235  0.2186  0.0308
11334W        W30868   4.849   2.194  14.208 -0.1224 -0.0099 -0.2322
11335W        W30869  16.852   9.578   2.468 -0.0059 -0.0122 -0.3120
11336W        W30870   0.725  14.055  12.629  0.0898 -0.0640 -0.1299
11337W        W30871   3.856  11.672   0.309 -0.1173  0.2375  0.2019
11338W        W30872   1.619  14.981   3.062  0.0524 -0.2298  0.0136
11339W        W30873   4.780   1.624   1.627 -0.1821  0.0867 -0.0585
11340W        W30874  10.583   6.256   1.417  0.0576 -0.2150 -0.2929
11341W        W30875  12.120   3.532  11.079 -0.3192 -0.1036  0.0533
11342W        W30876   0.988  12.484  13.014 -0.0425 -0.1097  0.2270
11343W        W30877   6.976  13.149   0.930  0.1332  0.1937  0.1106
11344W        W30878   6.032  10.412   1.199 -0.1555 -0.0391 -0.0384
11345W        W30879   4.341  16.611  12.356  0.0353 -0.0914 -0.1277
11346W        W30880  17.838  19.005   1.336 -0.0389 -0.1704  0.1913
11347W        W30881  17.462   7.564   2.275  0.0432  0.0613  0.0010
11348W        W30882  16.780  15.540   3.299  0.2925 -0.0540  0.1514
11349W        W30883   0.345  14.425   9.770  0.1035 -0.1626  0.2824
11350W        W30884   2.842  16.503   1.716 -0.2018  0.2527  0.1756
11351W        W30885   3.454   9.201   3.485 -0.1652 -0.2286  0.2321
11352W        W30886   5.751   7.373   1.047 -0.0922  0.2250 -0.1698
11353W        W30887  12.421  16.871   0.654  0.2699  0.4083  0.1061
11354W        W30888   2.075   2.560  10.121 -0.1555  0.0428 -0.4041
11355W        W30889  17.477   7.309  11.845 -0.2406 -0.1170  0.3121
11356W        W30890  15.904  17.275  12.737  0.0100  0.2029  0.1786
11357W        W30891   5.735   7.733  11.452  0.0989 -0.1470 -0.1159
11358W        W30892   5.102  11.250  12.760  0.0281 -0.4245  0.3423
11359W        W30893   9.256   0.861   1.390  0.3173  0.1990 -0.0026
11360W        W30894  16.313  16.642   2.436  0.1029 -0.0925  0.2746
11361W        W30895  19.380   8.086   4.760 -0.3594 -0.0287 -0.1569
11362W        W30896   3.717  15.280   2.016  0.1782  0.2138  0.0353
11363W        W30897  12.502   4.122   3.303  0.0191 -0.0279  0.1054
11364W        W30898   2.165  18.033  12.062  0.0702 -0.0896  0.0292
11365W        W30899  16.410  12.647   2.734 -0.4525 -0.0865 -0.0008
11366W        W30900   4.481  15.626  12.065 -0.1255 -0.1483 -0.0249
11367W        W30901   5.671   1.726  10.804  0.1995 -0.0260 -0.0556
11368W        W30902   7.781  19.385  11.499  0.0114  0.1195 -0.0758
11369W        W30903   6.395   1.053   4.496  0.1087 -0.1212 -0.2640
11370W        W30904  18.687  13.045   4.078 -0.0501 -0.1606  0.1090
11371W        W30905  11.276   2.113  10.884  0.2515  0.0529 -0.1710
11372W        W30906   4.420   1.530  14.115  0.3651  0.0218 -0.4837
11373W        W30907   1.082  12.589  11.243  0.1128 -0.0639 -0.1032
11374W        W30908   9.260   8.784  12.437  0.1309  0.2842 -0.1974
11375W        W30909  17.188   5.906  13.655 -0.0393 -0.1280  0.0850
11376W        W30910   2.147   3.622  11.731  0.0435  0.0436  0.0324
11377W        W30911  13.629  17.725  12.125 -0.2365  0.0590 -0.2186
11378W        W30912  17.501   4.642  14.078  0.1647  0.0022 -0.1788
11379W        W30913  16.314  15.322   3.037  0.2519  0.1215  0.1101
11380W        W30914   2.356   9.826   3.713 -0.2810 -0.2548 -0.0193
11381W        W30915  17.665  18.274   1.610 -0.1246  0.0365  0.1888
11382W        W30916   6.268  11.029   3.400 -0.4072 -0.0899 -0.0471
11383W        W30917  17.069  17.440   9.646  0.0744 -0.0816  0.1000
11384W        W30918  14.573  13.909   1.586 -0.2287  0.1424 -0.0312
11385W        W30919   6.369  13.837   9.894  0.0357 -0.0922 -0.0533
11386W        W30920  13.298   8.278  12.329  0.0783  0.0725 -0.1880
11387W        W30921  17.979  10.010   2.002 -0.1144 -0.0005 -0.3064
11388W        W30922  15.083  10.873   0.167 -0.1747  0.4114 -0.2253
11389W        W30923  15.142   8.428  11.735  0.1255 -0.1895 -0.2492
11390W        W30924  11.240  15.922  13.015 -0.1148  0.0097  0.0895
11391W        W30925   7.430  16.689   1.672 -0.0556  0.2455 -0.2102
11392W        W30926   6.654  11.658  10.772 -0.0492  0.0068 -0.0007
11393W        W30927  17.646  18.447  11.055 -0.4832 -0.0589  0.0037
11394W        W30928  16.396   0.793   2.415 -0.0444  0.1234 -0.2486
11395W        W30929   9.522   1.319   1.573 -0.0438 -0.1285 -0.0360
11396W        W30930   2.073   2.046   0.155 -0.3351  0.0714 -0.1853
11397W        W30931  14.815   9.619  11.807  0.0191 -0.3182 -0.1812
11398W        W30932   7.631  12.407   1.914  0.0746 -0.5479  0.2068
11399W        W30933   1.000  18.041   1.018  0.1311  0.0222 -0.1894
11400W        W30934  19.409   9.135   9.598  0.1803  0.0159 -0.3938
11401W        W30935   2.851  16.514   2.987  0.0309 -0.0838 -0.2634
11402W        W30936  17.579   9.145   2.499 -0.1638  0.1274 -0.1685
11403W        W30937  11.091   7.339   0.494 -0.0046 -0.0556 -0.0762
11404W        W30938   7.190   9.634   4.115 -0.1049  0.0288  0.0948
11405W        W30939  17.372   6.242   0.850 -0.2776  0.1545  0.0098
11406W        W30940  14.217   1.409   2.494  0.1011  0.1977  0.1994
11407W        W30941   6.488   9.967   1.963 -0.0592 -0.4514 -0.1667
11408W        W30942   5.953   4.589  12.542 -0.1563  0.0582 -0.4050
11409W        W30943   9.218   8.291  12.247 -0.0070 -0.0630 -0.0373
11410W        W30944  16.214  15.647  11.552 -0.0722 -0.0682 -0.2964
11411W        W30945   7.371   1.787  12.379 -0.3765 -0.0122  0.0438
11412W        W30946   0.555  11.336  12.871  0.2755  0.2465  0.2635
11413W        W30947  14.404  10.425  11.760  0.0489 -0.0879  0.3786
11414W        W30948  17.289   9.525   2.713  0.0390  0.2347  0.0867
11415W        W30949   6.472  14.995   0.793  0.2436  0.1017  0.3537
11416W        W30950   0.988  13.340  14.007 -0.1566  0.1632 -0.1114
11417W        W30951   9.465   5.278  11.080  0.1212  0.0219 -0.0495
11418W        W30952   2.977  11.983  13.321 -0.0931 -0.1135 -0.1309
11419W        W30953  13.795  18.437   2.220 -0.1695  0.2711 -0.0860
11420W        W30954   9.865  13.322   4.092  0.2645 -0.2425  0.1224
11421W        W30955   4.493   0.571  12.824  0.0046  0.2643  0.3074
11422W        W30956  18.231  17.720   1.300  0.1624  0.1054  0.0169
11423W        W30957  17.264  14.100   2.367 -0.0991 -0.0263  0.0844
11424W        W30958  15.699   3.265   2.402 -0.1198 -0.0750  0.0179
11425W        W30959   5.287   2.363   1.218 -0.2983  0.1849 -0.1664
11426W        W30960  17.981   6.336   1.024  0.2150  0.3894 -0.2230
11427W        W30961   1.337   3.996  12.760 -0.0973 -0.1535 -0.3684
11428W        W30962  11.402  15.959   1.935  0.2581 -0.1921 -0.3869
11429W        W30963   6.925  12.510  12.414 -0.5233  0.1968 -0.1190
11430W        W30964   1.309   6.569  13.154  0.3776 -0.0370  0.0866
11431W        W30965   2.125   2.009  12.806  0.0377 -0.0058  0.3600
11432W        W30966   9.324  16.607   4.316 -0.1146 -0.0804 -0.2319
11433W        W30967  10.948  10.201  11.201 -0.0703 -0.0949 -0.0632
11434W        W30968  10.336  16.597  11.009 -0.0622 -0.3800 -0.1004
11435W        W30969  12.403  13.776  12.083  0.0165  0.0303  0.0885
11436W        W30970  13.637   6.779  11.415 -0.1233 -0.0886 -0.1153
11437W        W30971   8.129   8.225   0.129  0.3373 -0.1256  0.1121
11438W        W30972   2.321  17.471   1.541 -0.1121 -0.0533  0.0720
11439W        W30973   1.863  17.249  11.621 -0.2991  0.2683  0.2444
11440W        W30974   1.438   1.265   1.700 -0.0502 -0.1691 -0.0315
11441W        W30975   0.986  10.801   2.861  0.1475 -0.1318 -0.0614
11442W        W30976   8.733   9.785  12.408  0.3238  0.1449 -0.0159
11443W        W30977  13.495   7.150   0.596  0.0684 -0.3607 -0.1392
11444W        W30978   6.176  16.831  14.172  0.0206 -0.4283  0.0741
11445W        W30979   0.457   7.908  12.504 -0.0338 -0.1607  0.0754
11446W        W30980  18.376   3.861  13.404  0.0019  0.0593 -0.0770
11447W        W30981  16.363  17.791  11.041 -0.2696  0.2885  0.2401
11448W        W30982  15.110  18.052  11.475 -0.0908 -0.0804 -0.3393
11449W        W30983   4.001   3.671   4.205  0.2746 -0.1953  0.1759
11450W        W30984  13.995  18.295  10.586  0.1938  0.0851  0.3712
11451W        W30985   9.131  16.025   0.698  0.2876 -0.0998 -0.1079
11452W        W30986   6.222  12.301   4.222 -0.0946 -0.1680  0.1295
11453W        W30987   0.286   6.383  13.705 -0.0154  0.0806  0.2169
11454W        W30988  16.595  18.779  13.141 -0.0829  0.0336  0.0179
11455W        W30989   2.980   5.270  13.190 -0.2287 -0.4102  0.1294
11456W        W30990   7.769   3.442  11.478 -0.1181 -0.1282 -0.2401
11457W        W30991  13.738   4.534   0.500 -0.1149  0.1249 -0.1787
11458W        W30992  16.963   9.832   3.672 -0.3435 -0.1375 -0.0711
11459W        W30993  16.346  10.041   3.678  0.1372  0.0348  0.0138
11460W        W30994  15.346   6.771  13.252  0.0155 -0.0789  0.1573
11461W        W30995  18.748  10.113   3.118 -0.2858  0.3513  0.0056
11462W        W30996  12.444  13.168   9.176  0.1028 -0.1110 -0.0315
11463W        W30997  11.666   0.084   9.777 -0.0768  0.1882 -0.0681
11464W        W30998   6.536  10.576   1.144 -0.2128  0.0535 -0.3096
11465W        W30999  12.440   1.728  12.291 -0.0035  0.2623  0.1072
11466W        W31000   5.655   5.488   3.459  0.2164  0.1967 -0.2547
11467W        W31001   2.956  18.206  14.135 -0.1227  0.1370 -0.2990
11468W        W31002   5.031   7.208   3.931 -0.1657  0.1207 -0.1043
11469W        W31003  12.186  10.633   0.464 -0.0214  0.3033  0.1230
11470W        W31004   6.843   9.577   3.209 -0.0227 -0.0687  0.0759
11471W        W31005  15.123  13.696  13.952 -0.2406  0.0458 -0.1511
11472W        W31006   5.339   2.281   4.012  0.1070 -0.0240 -0.1184
11473W        W31007   5.398   3.537  11.838  0.2535  0.1222 -0.1141
11474W        W31008   7.032   0.760  10.235 -0.2270 -0.2080  0.1742
11475W        W31009  19.500  17.069   0.449  0.0502 -0.0573  0.0458
11476W        W31010   3.724  13.330   2.723  0.2239  0.0470  0.3730
11477W        W31011  15.320   7.947  11.526 -0.2875 -0.1693  0.0803
11478W        W31012   2.915   6.150   3.898  0.4477  0.1989 -0.0980
11479W        W31013   7.385  15.131  11.553  0.2366 -0.0960  0.0077
11480W        W31014   1.450   5.376  11.078  0.0937  0.5450  0.2143
11481W        W31015  15.812  14.695  12.719  0.1306 -0.2214  0.2382
11482W        W31016  10.351   0.667  11.703 -0.1271  0.2636  0.3326
11483W        W31017   6.781   1.419  13.157 -0.0215 -0.3318 -0.2175
11484W        W31018   9.820   4.248   3.878 -0.1902  0.0249 -0.2462
11485W        W31019   6.361   9.353  12.071  0.2011 -0.1669 -0.0112
11486W        W31020  11.418  11.447   1.310  0.1222 -0.0274  0.1119
11487W        W31021  17.881   8.310  11.024  0.0334 -0.4301 -0.3131
11488W        W31022  12.705  15.687   1.500  0.0871  0.0704 -0.3556
11489W        W31023   3.725   2.045   1.723 -0.2430 -0.3512  0.0261
11490W        W31024  14.903   5.092   2.894  0.2814 -0.1447  0.0652
11491W        W31025   8.541  13.346  13.054  0.0290 -0.1603  0.0578
11492W        W31026  15.627   8.592  13.799 -0.0724 -0.2655  0.2382
11493W        W31027  15.826   8.574   0.382 -0.0193  0.2343 -0.0599
11494W        W31028  15.369  11.141   4.196 -0.0919 -0.1029 -0.1770
11495W        W31029  15.901  10.107  12.411  0.1344 -0.2697  0.2195
11496W        W31030   7.488  12.797  10.183 -0.1780 -0.4437  0.1409
11497W        W31031  15.899   0.608  12.626  0.0275  0.3359  0.2469
11498W        W31032  17.605  11.472  11.537 -0.2383 -0.2888  0.0675
11499W        W31033   0.964  15.904   2.317 -0.1041 -0.0254  0.0531
11500W        W31034  12.979  14.670  12.175 -0.1094 -0.2480  0.0780
11501W        W31035   5.193  11.393   0.745  0.1956  0.1461 -0.2294
11502W        W31036   8.791  17.597   1.369 -0.1339  0.3401  0.1539
11503W        W31037  10.247   5.965  13.301 -0.1404 -0.0677 -0.3202
11504W        W31038   3.035   3.733   0.159  0.2772 -0.0362  0.2105
11505W        W31039   0.407  10.930  12.116  0.1241 -0.0531  0.2155
11506W        W31040  15.026   4.384  10.403 -0.2089  0.3457 -0.1401
11507W        W31041   5.828  18.213  13.909  0.2228  0.2806  0.1823
11508W        W31042   4.411  10.848  13.352 -0.2644 -0.0255 -0.2985
11509W        W31043  14.448  13.734   2.457 -0.3112 -0.2270 -0.0592
11510W        W31044   3.425  17.294   2.266  0.2521  0.1251  0.2494
11511W        W31045   8.827  10.208  13.444  0.0105 -0.2472 -0.1583
11512W        W31046   7.491  18.796  12.629 -0.1424  0.1118  0.0516
11513W        W31047   2.558  14.598  10.694  0.2212  0.0403  0.1488
11514W        W31048   5.428   9.226   3.119 -0.2805  0.0720  0.0469
11515W        W31049  10.884   6.514   4.144  0.2371  0.1524  0.1586
11516W        W31050   2.032  17.133   0.241 -0.1081 -0.2642  0.0236
11517W        W31051   5.667   2.395   1.770  0.0459 -0.0322  0.1908
11518W        W31052  18.961  12.992   4.519 -0.0081 -0.3874  0.1695
11519W        W31053  14.653   0.372  11.947  0.1662 -0.3721  0.0450
11520W        W31054  14.650  10.631   1.502 -0.1630  0.2058  0.3006
11521W        W31055   0.605  10.098   1.525  0.1584  0.1420  0.2407
11522W        W31056  17.714  17.695  14.003  0.0382  0.1022 -0.0254
11523W        W31057  18.570  14.736  10.331  0.0329  0.1587  0.2011
11524W        W31058  11.513   2.835   1.296 -0.2714  0.1309  0.0424
11525W        W31059  11.800  15.591   1.862 -0.0299 -0.2827 -0.0321
11526W        W31060  12.904  14.954   4.310 -0.3673 -0.3484  0.1211
11527W        W31061   1.479  17.799   3.338 -0.2116  0.0191  0.1037
11528W        W31062   0.040   2.774  14.190 -0.3548 -0.0364 -0.2788
11529W        W31063  12.118  14.811   3.476  0.2405  0.0592  0.1446
11530W        W31064   5.474  15.864  10.553  0.1787 -0.1380 -0.2776
11531W        W31065  10.150   0.757   0.830 -0.0804 -0.0462 -0.3407
11532W        W31066   3.160   2.691   3.841  0.2064 -0.1730  0.0310
11533W        W31067   8.156  10.793  13.806  0.1386 -0.1394  0.1338
11534W        W31068  19.134  12.935   3.504 -0.0518 -0.1488 -0.0791
11535W        W31069   7.029   5.888  12.591 -0.1339  0.0021  0.0518
11536W        W31070  15.058  11.464   0.196 -0.0063  0.2913 -0.0084
11537W        W31071  12.909   4.432  12.555 -0.1602  0.4690  0.2553
11538W        W31072  16.614   1.291   2.714  0.1378 -0.1011 -0.1568
11539W        W31073  10.227  18.946   2.567 -0.0595  0.0066  0.4141
11540W        W31074   1.770   2.004  13.857 -0.2123  0.0943 -0.0237
11541W        W31075  14.202   9.075  12.602 -0.0087 -0.1071 -0.3109
11542W        W31076  17.817  18.343  14.360 -0.1738  0.2853 -0.0611
11543W        W31077  10.153   0.479   3.631  0.1486 -0.4122  0.3372
11544W        W31078  13.440   8.072  14.328  0.1669  0.2525 -0.3935
11545W        W31079  10.634   2.790   1.803  0.0814  0.1124  0.2691
11546W        W31080  14.846  14.883   4.747 -0.0607 -0.2235 -0.0168
11547W        W31081   6.421   8.700  12.104  0.1611 -0.1206  0.2207
11548W        W31082  10.462   3.335  11.888  0.0419 -0.1676  0.1374
11549W        W31083  18.820   6.933  12.870 -0.1359  0.0056 -0.0261
11550W        W31084   5.788   7.913   0.940 -0.2327 -0.1987  0.1874
11551W        W31085  10.658   8.379   0.185  0.0303 -0.1782 -0.1511
11552W        W31086   5.273  19.307   0.446  0.4248 -0.2968 -0.3159
11553W        W31087   5.813   8.572   3.685  0.1667  0.1611  0.0307
11554W        W31088   3.458   3.110   3.743 -0.1769 -0.0749 -0.0054
11555W        W31089  17.535   9.100  12.178  0.0102 -0.0193  0.0584
11556W        W31090  15.970  15.859   2.882  0.4285 -0.1471  0.1848
11557W        W31091  10.358   0.947  12.573 -0.0660 -0.1038  0.2885
11558W        W31092  11.082   4.518  12.598 -0.0712  0.1049 -0.3610
11559W        W31093  18.271   3.367  11.440 -0.0621 -0.3281  0.2546
11560W        W31094   5.251   9.709   4.244  0.3127  0.0708 -0.1263
11561W        W31095   1.807  10.713  11.681 -0.0847 -0.0986  0.1410
11562W        W31096  14.303   7.918  11.585 -0.1018  0.0193 -0.1126
11563W        W31097  17.076  11.819   0.842 -0.1555  0.0639 -0.2075
11564W        W31098  15.961  15.089  12.190  0.0950  0.1232  0.0707
11565W        W31099   4.502   7.246   1.052 -0.0721  0.3191  0.2066
11566W        W31100  12.586   2.693  11.540 -0.2373 -0.2553  0.0719
11567W        W31101   6.821   2.215   0.656  0.1259  0.1681  0.1597
11568W        W31102  16.049   0.784  10.225  0.1225  0.2410  0.1088
11569W        W31103  10.858   9.998  10.655  0.0666  0.1280  0.1077
11570W        W31104  10.689   8.328   2.316 -0.1483  0.0181 -0.0973
11571W        W31105  13.272  13.239  10.178  0.1523 -0.2670  0.2675
11572W        W31106   3.417   5.075  14.066  0.1408  0.3433  0.0091
11573W        W31107  12.948   7.004  13.651 -0.2688 -0.0126  0.3185
11574W        W31108  17.402  15.235  12.144 -0.0023 -0.0293  0.1951
11575W        W31109  17.892  10.144   2.495  0.1137  0.1672  0.0072
11576W        W31110   4.685  18.095  11.409  0.0281  0.0019  0.2000
11577W        W31111   0.023   5.955   0.137  0.2099 -0.3744 -0.0383
11578W        W31112   2.786   2.101  12.009 -0.0497 -0.4628 -0.0155
11579W        W31113  11.133  12.613   0.386  0.0926  0.2478  0.0360
11580W        W31114  16.797   4.356   3.331  0.1756  0.0218  0.1050
11581W        W31115   4.514  11.081  11.079  0.2414  0.2340  0.2258
11582W        W31116   3.671  16.818   3.859  0.2477 -0.4251  0.2575
11583W        W31117   4.752  16.297  11.656 -0.1348  0.2636 -0.1258
11584W        W31118   7.011  13.034   4.027  0.2953 -0.0676 -0.0042
11585W        W31119   6.577  12.912   4.318 -0.0580 -0.0997  0.0964
11586W        W31120  18.223  19.223   3.307  0.2155  0.0540  0.1146
11587W        W31121   6.846  12.594   1.008  0.2578 -0.3824  0.3678
11588W        W31122  10.170  14.499  11.780  0.0652 -0.1296  0.1112
11589W        W31123   1.866   7.154  11.521 -0.0839 -0.1256 -0.0132
11590W        W31124  11.340   9.215   0.371 -0.0648 -0.1229 -0.1467
11591W        W31125   8.189   5.914  12.713 -0.0973 -0.1335  0.1313
11592W        W31126   2.487   1.673  12.017 -0.1012  0.0530 -0.3041
11593W        W31127  13.021   1.730   3.597 -0.0887 -0.2081 -0.0645
11594W        W31128   2.065  16.366   2.385 -0.2562  0.1035  0.3875
11595W        W31129   0.824   9.317  10.500 -0.4012 -0.0309  0.0688
11596W        W31130   7.215  12.302   1.212  0.1820 -0.1817  0.1317
11597W        W31131   1.891  10.215   2.301  0.1141  0.0208  0.0435
11598W        W31132  15.325  15.083   3.017 -0.0446  0.2246  0.2522
11599W        W31133  11.196  15.803  10.767 -0.1823 -0.0647  0.2671
11600W        W31134   4.421  19.232  10.920  0.1173 -0.0058  0.2731
11601W        W31135   9.486   9.617   1.053 -0.2694  0.0086  0.1433
11602W        W31136   3.423   0.412   0.482 -0.1740  0.1932  0.0428
11603W        W31137   1.798  17.398   3.086  0.0898  0.0400  0.1112
11604W        W31138  15.737   9.662  11.739  0.3730 -0.0951  0.1359
11605W        W31139  13.368   8.671   3.269 -0.0588  0.1814  0.0293
11606W        W31140  11.868  13.967  13.675 -0.1965  0.0302 -0.1366
11607W        W31141   8.123  19.399   3.305 -0.2699  0.0162  0.0147
11608W        W31142  15.566   8.553  13.282  0.1336  0.0811 -0.0606
11609W        W31143   9.018  18.455  11.566 -0.0440  0.0078 -0.3421
11610W        W31144   0.924  10.286   2.326  0.4202 -0.0259  0.1166
11611W        W31145  12.664  10.435   0.219  0.0605 -0.0335 -0.1674
11612W        W31146   3.758   7.485   0.101  0.0159 -0.1303 -0.1599
11613W        W31147  18.572   6.589   2.206  0.2631  0.1437  0.1297
11614W        W31148  13.499  12.464   3.629 -0.0621 -0.0444  0.0931
11615W        W31149   4.706   7.806  11.955  0.1003 -0.2524 -0.0262
11616W        W31150   4.058  15.297  11.133 -0.0390  0.0010  0.1181
11617W        W31151   9.958   7.182   2.024  0.2237 -0.1598 -0.0045
11618W        W31152  10.413   6.202  11.528  0.2259  0.0785 -0.2035
11619W        W31153   4.247   2.822  10.985 -0.1308  0.4037  0.1813
11620W        W31154  19.479   1.580  12.040  0.0828  0.0663  0.1209
11621W        W31155  15.984  15.641  13.014  0.2022 -0.0707 -0.0954
11622W        W31156   2.838   3.089   9.840  0.1876  0.0218  0.3028
11623W        W31157   5.364  10.598  10.938  0.2581 -0.2339 -0.2240
11624W        W31158  18.396   8.554  11.741 -0.0503 -0.0945  0.0834
11625W        W31159   8.805   1.147  12.596 -0.1462  0.1310 -0.0427
11626W        W31160  14.678   7.157   9.561 -0.2895  0.0480 -0.0186
11627W        W31161   9.113   3.706  13.767 -0.0854  0.0310 -0.2288
11628W        W31162  13.503  12.186   0.285 -0.1716  0.0910  0.4849
11629W        W31163   8.827   1.267  10.581  0.3174  0.1113 -0.0665
11630W        W31164   2.387  17.317   2.697  0.0481  0.1679  0.1439
11631W        W31165  10.507   6.202   3.049 -0.1673 -0.1412 -0.0391
11632W        W31166   1.916  16.895  12.483  0.0296  0.1520 -0.1135
11633W        W31167   2.654   8.228  13.243  0.2010 -0.1194  0.1005
11634W        W31168   7.684   1.285  10.672  0.1007 -0.4464 -0.2666
11635W        W31169  10.298   3.707   3.519 -0.0045 -0.0746  0.0583
11636W        W31170  12.752  16.097  12.593 -0.1681 -0.1125  0.0502
11637W        W31171  12.048  10.030  11.392 -0.0834  0.1504  0.0792
11638W        W31172  14.026  11.793  11.891  0.1476  0.0560 -0.0403
11639W        W31173  19.053   3.980   0.300  0.1221  0.3104  0.3115
11640W        W31174   1.532   2.676  11.564 -0.3804 -0.0594 -0.0370
11641W        W31175  14.198  10.525   3.849 -0.3195  0.4292  0.0931
11642W        W31176  14.347   5.428   2.634 -0.5358  0.0668  0.2123
11643W        W31177  14.434   5.520   1.195  0.0327 -0.1387  0.0608
11644W        W31178   8.486   6.369  11.369 -0.0077 -0.3384 -0.1209
11645W        W31179   8.613   7.015  13.783  0.0057  0.0859  0.1007
11646W        W31180  17.090   4.571  10.802  0.0787 -0.1342 -0.0535
11647W        W31181   2.738   4.840   3.011 -0.1746  0.1173 -0.2281
11648W        W31182   2.573  16.203  13.130 -0.2286 -0.1179 -0.2179
11649W        W31183   7.506   0.342  13.079  0.2960 -0.0529 -0.2600
11650W        W31184   7.935  17.039   1.465  0.1127 -0.1371 -0.1384
11651W        W31185   9.801  11.291  14.051  0.0350  0.1989  0.2042
11652W        W31186  10.711   6.772  14.296  0.2355 -0.2495 -0.0313
11653W        W31187   5.090   6.295   3.618  0.0467  0.2033 -0.0999
11654W        W31188  17.125   3.939  12.771  0.2378 -0.1973  0.0083
11655W        W31189   1.930  13.778   3.896  0.0678  0.1569 -0.1144
11656W        W31190   8.635   6.633   0.856 -0.3039  0.3913 -0.1089
11657W        W31191  18.607   0.348   1.134 -0.0793  0.1547 -0.4556
11658W        W31192  17.476   6.719  11.605 -0.5415  0.0123  0.2505
11659W        W31193  15.773   6.906  12.821 -0.0059  0.3026  0.0478
11660W        W31194  19.199  14.550   1.019  0.0948  0.1184  0.1357
11661W        W31195   2.334  11.955   3.723 -0.0734 -0.0309  0.3925
11662W        W31196   8.781  18.767  10.036 -0.2786  0.3020  0.1308
11663W        W31197  13.043  11.258   2.918  0.1137 -0.0997 -0.2657
11664W        W31198  14.625  17.974  11.354 -0.7216  0.0991 -0.1767
11665W        W31199   8.341  14.387  12.125  0.1830 -0.0038 -0.0087
11666W        W31200  15.669  11.437   2.934 -0.1610 -0.4080 -0.2903
11667W        W31201   6.307  19.365  13.961 -0.1954 -0.1929 -0.0613
11668W        W31202  15.759   3.740   0.288  0.0410  0.0691 -0.2314
11669W        W31203   4.556   7.323   2.359  0.1196 -0.1194 -0.2602
11670W        W31204   5.541  10.179  14.031  0.0072 -0.1339 -0.2900
11671W        W31205  16.505  18.701   1.533  0.2921  0.0046 -0.2392
11672W        W31206  18.923   5.723   4.156 -0.0922  0.0823 -0.2014
11673W        W31207   4.162   8.013   0.929 -0.2907  0.0722 -0.0171
11674W        W31208   9.223   1.641   1.809  0.2739 -0.4093  0.1687
11675W        W31209  15.095  15.167   2.570 -0.1426 -0.1587 -0.0056
11676W        W31210  10.806   0.788   2.904  0.3887 -0.0292  0.5466
11677W        W31211  12.650   1.429  11.411 -0.1392 -0.0294 -0.3760
11678W        W31212   5.758   2.476  12.028  0.2952  0.2179  0.2591
11679W        W31213  18.914  12.787  11.738 -0.3789 -0.0865 -0.1253
11680W        W31214   1.231  13.007  12.954  0.1412  0.0370 -0.3587
11681W        W31215  10.884  13.720  13.424 -0.0430  0.1328  0.3424
11682W        W31216  17.389   9.705  12.097  0.1584  0.2679  0.0279
11683W        W31217   5.077   7.066  11.747 -0.1356 -0.2239  0.0077
11684W        W31218  14.552  13.054  10.297 -0.0393  0.1430  0.0021
11685W        W31219  17.135  13.149   4.807  0.0944  0.0994 -0.1561
11686W        W31220   9.925   0.438  11.900  0.1390 -0.0846  0.2522
11687W        W31221  14.146   7.408   4.196  0.0153  0.0143 -0.0614
11688W        W31222   4.102  13.333  11.550 -0.1033  0.1480  0.1287
11689W        W31223  18.505  12.950   2.877  0.0922 -0.0707 -0.1217
11690W        W31224   6.775   7.938   1.167  0.1695  0.2052 -0.2545
11691W        W31225  15.959   5.676  12.390 -0.0807 -0.0373  0.3847
11692W        W31226   9.334   5.788  11.241  0.0242 -0.0749  0.1478
11693W        W31227   9.507   7.746  11.796 -0.1677  0.0666 -0.1389
11694W        W31228  11.509   8.866  12.932 -0.0280  0.0085  0.2120
11695W        W31229   8.984   2.886  10.391  0.3209  0.0187  0.3708
11696W        W31230   2.762   9.328  12.395  0.2180  0.1708 -0.1000
11697W        W31231  18.598  12.455   2.476 -0.0960  0.0532  0.0517
11698W        W31232   2.857  12.754  12.043 -0.1705  0.4490  0.2353
11699W        W31233  10.564   3.682   1.685 -0.1464  0.2949  0.4069
11700W        W31234  12.826   8.560   0.458  0.0279  0.0097  0.1234
11701W        W31235  15.361   0.536  11.375  0.0676  0.2608 -0.1401
11702W        W31236   1.562   3.382   1.680 -0.0257 -0.1608  0.1836
11703W        W31237   4.418   0.336   1.947 -0.1010  0.0986 -0.1896
11704W        W31238   4.605  11.618   2.376 -0.0580  0.2126 -0.0018
11705W        W31239   8.562  14.436   4.101  0.1174 -0.0981  0.1519
11706W        W31240   5.371   7.119   0.866  0.0687  0.2444  0.1215
11707W        W31241  11.283  16.500   9.966  0.0312 -0.0151  0.1250
11708W        W31242   4.588   6.773  11.854  0.0511  0.3277  0.3871
11709W        W31243   2.379  12.926   2.331 -0.2378  0.2309  0.0991
11710W        W31244  18.859  17.398  13.098 -0.2112 -0.0657 -0.2584
11711W        W31245  16.133   8.060   2.922  0.0546 -0.2896 -0.0894
11712W        W31246  14.110   6.205   3.117 -0.1401 -0.1609 -0.3013
11713W        W31247  15.076  15.683  12.105 -0.0503  0.0343  0.0614
11714W        W31248   1.904   9.739   4.091 -0.3535  0.2257 -0.1186
11715W        W31249  10.994  17.204  10.386  0.0340 -0.1811  0.0593
11716W        W31250   1.742  18.958   1.749 -0.0733  0.0107 -0.0810
11717W        W31251   4.387  14.117   0.319 -0.0734 -0.0608 -0.3379
11718W        W31252   2.893   1.354  13.790  0.1361 -0.5193  0.0910
11719W        W31253  12.199  11.465  12.278  0.0152 -0.1819 -0.4185
11720W        W31254   4.950  16.595   2.105  0.2582 -0.0920 -0.2524
11721W        W31255   3.303  12.898   2.481 -0.1782  0.1054  0.0996
11722W        W31256   2.874  11.893  11.330 -0.0270  0.0984  0.1410
11723W        W31257   7.982   5.969   9.531 -0.1965 -0.1595 -0.2014
11724W        W31258  13.948   7.985  11.225  0.0727  0.0262  0.0834
11725W        W31259  17.033   9.956  10.544  0.0417  0.1210 -0.1404
11726W        W31260  14.728  13.165   1.192 -0.1905 -0.1480  0.1111
11727W        W31261   7.087   0.498  11.668 -0.1356 -0.0114 -0.1073
11728W        W31262  11.264  15.139   1.415  0.0171 -0.3774  0.2861
11729W        W31263   2.510  16.468   3.425  0.0008 -0.0150  0.0013
11730W        W31264   6.493  16.734   1.128  0.0924 -0.3082  0.0264
11731W        W31265  10.398  13.307   1.152  0.2422 -0.1656  0.0599
11732W        W31266  11.631   9.012   3.378 -0.1932 -0.0630  0.0769
11733W        W31267   4.785  17.324   0.078 -0.0613  0.0835  0.0123
11734W        W31268   6.944   6.112  12.147  0.1199 -0.3671 -0.1030
11735W        W31269   4.027  11.246   2.084 -0.0016  0.1303 -0.2342
11736W        W31270   0.203  15.464  13.834 -0.0150  0.1032  0.0681
11737W        W31271   2.321  17.049  12.711 -0.0319 -0.1437 -0.1216
11738W        W31272   6.647   0.476   2.777 -0.1126 -0.0250 -0.2055
11739W        W31273   5.518  14.899  12.016 -0.0831  0.0412  0.1073
11740W        W31274  16.890   9.347  14.043  0.0552  0.1913 -0.0870
11741W        W31275  13.260   1.780   0.114  0.3499  0.0299 -0.1078
11742W        W31276   6.186   8.920  11.747 -0.0002 -0.1098  0.4935
11743W        W31277  12.808  14.976   2.596  0.1402 -0.2955 -0.0202
11744W        W31278   9.336   7.567   0.020 -0.3340  0.3652 -0.3381
11745W        W31279   8.622   8.156  10.826  0.0989 -0.1427  0.1687
11746W        W31280  18.265  13.119   3.787  0.1852  0.1313 -0.1541
11747W        W31281  17.147   8.924  12.531 -0.2282 -0.0707 -0.2094
11748W        W31282   4.939   9.114  12.473 -0.0001  0.1041  0.2339
11749W        W31283  16.489   5.125   2.697  0.0269 -0.2600 -0.0544
11750W        W31284  11.261  11.648  10.378  0.1177 -0.0578  0.0023
11751W        W31285  11.040  17.142  13.653 -0.0463 -0.0871  0.1044
11752W        W31286  12.681   2.690   3.107  0.0139 -0.0707  0.4964
11753W        W31287   2.331   9.811   5.088 -0.1070 -0.0227  0.0496
11754W        W31288   6.188   3.115   3.283 -0.0682  0.0431  0.1588
11755W        W31289  10.940  14.648   4.026 -0.0984  0.1514  0.0936
11756W        W31290   5.798  18.490   3.555 -0.0867  0.0143 -0.0861
11757W        W31291   4.712   9.861  14.352  0.2100  0.1712  0.1852
11758W        W31292  10.277  18.171   3.018 -0.3599  0.1852 -0.0733
11759W        W31293  19.041   3.702  14.261  0.0165 -0.1562  0.0826
11760W        W31294  14.130   1.154  10.827 -0.0023  0.4723  0.0264
11761W        W31295  15.021  11.452   4.004  0.0038 -0.0804  0.1018
11762W        W31296  16.419  10.878   3.129 -0.0338  0.0761  0.1401
11763W        W31297  18.391  14.515  12.090 -0.0663 -0.3308  0.0372
11764W        W31298  16.610  19.087   0.252 -0.3065 -0.2493  0.0049
11765W        W31299  12.727   3.385   0.760 -0.0612  0.1075  0.0145
11766W        W31300  17.447   7.041   1.403  0.1463 -0.2183 -0.1613
11767W        W31301  19.485  14.058   1.848 -0.0416  0.2010 -0.0100
11768W        W31302   9.766  18.246  12.171 -0.1080  0.1156 -0.3620
11769W        W31303   4.471  15.860   0.577  0.1822 -0.0365 -0.1114
11770W        W31304  12.794   9.364   0.443 -0.2717 -0.0128  0.0997
11771W        W31305   4.864   3.287   1.000 -0.1970  0.0565 -0.3117
11772W        W31306  15.356  10.560   4.162  0.1320 -0.1204 -0.1660
11773W        W31307   6.084   6.627  14.258 -0.1162 -0.1501 -0.1061
11774W        W31308   6.306  10.864  12.838  0.1452  0.0548 -0.2336
11775W        W31309  17.775  13.537  12.304  0.2133  0.0549 -0.3477
11776W        W31310   3.778   3.032   1.498  0.0314 -0.0876  0.1231
11777W        W31311   3.280  19.083   1.009 -0.3567 -0.0405 -0.2519
11778W        W31312   3.460  17.572   3.243 -0.2717  0.3161  0.4263
11779W        W31313  12.620  12.826  13.582  0.1966  0.2958 -0.0979
11780W        W31314   8.679   2.703  12.733  0.2610 -0.2488 -0.1491
11781W        W31315   0.425   8.035   2.536  0.1211  0.0840  0.0654
11782W        W31316   9.908   3.622   1.006  0.1879  0.0249  0.2705
11783W        W31317  12.347  11.168   0.627  0.0416 -0.0414 -0.0868
11784W        W31318  14.850  10.117   3.234  0.1076  0.2766  0.3112
11785W        W31319   3.760   1.371   9.363  0.2050 -0.1255 -0.3165
11786W        W31320   4.205   1.839  13.604  0.2698 -0.2219  0.0713
11787W        W31321   8.129  18.159  13.943 -0.0172 -0.0452 -0.0830
11788W        W31322   8.102   1.547  10.829  0.0572 -0.0966 -0.2045
11789W        W31323  11.210   8.138   3.185  0.2606 -0.3999  0.0810
11790W        W31324   0.646  17.631  12.758  0.3746 -0.2155 -0.1563
11791W        W31325  10.650   7.356   3.278 -0.0000  0.1947 -0.1140
11792W        W31326   2.797   3.915  10.540  0.0357  0.0254 -0.0198
11793W        W31327   4.325  17.732   1.244 -0.2170 -0.0745 -0.0250
11794W        W31328   5.368  11.056  14.123  0.2114 -0.2115  0.1670
11795W        W31329   4.416  12.623   1.578 -0.4910 -0.1353  0.0638
11796W        W31330   7.094  17.599   1.251 -0.0110 -0.1602 -0.2646
11797W        W31331  13.788   5.255   0.881  0.2306  0.0754 -0.1813
11798W        W31332  15.712  10.110  13.073 -0.2572 -0.4038 -0.4377
11799W        W31333  10.339   9.522  11.152 -0.1339 -0.2276 -0.2502
11800W        W31334  13.409   0.379  12.122  0.0316 -0.0341 -0.1247
11801W        W31335  18.525   2.375  13.628  0.0208 -0.0177  0.0308
11802W        W31336  12.859   7.826   3.279 -0.0225  0.0540  0.0449
11803W        W31337  10.392   0.419   2.788  0.2285  0.0452 -0.0517
11804W        W31338   5.197   5.796   1.269 -0.1417 -0.0106 -0.0180
11805W        W31339   9.794   7.679  12.527  0.0616 -0.0800 -0.0189
11806W        W31340  18.116  10.035   3.462 -0.1627 -0.2180  0.0044
11807W        W31341   9.831   7.617   1.827 -0.1909 -0.2333  0.2544
11808W        W31342  13.572   9.217   3.969 -0.0082 -0.2706  0.0258
11809W        W31343   8.215   8.828  13.940 -0.3801 -0.0568 -0.1468
11810W        W31344   5.502  11.412  11.561  0.0790  0.3494 -0.1034
11811W        W31345   0.249  16.832   3.714  0.1266  0.3329  0.1237
11812W        W31346  16.434   4.321  13.844 -0.1872  0.1718  0.0541
11813W        W31347  12.876   5.224   3.699 -0.4847  0.0106 -0.0365
11814W        W31348   5.881  12.598   3.249 -0.2618  0.0166  0.2699
11815W        W31349   9.663  10.310  10.669 -0.1480 -0.1599  0.0635
11816W        W31350   6.021  13.574  12.241  0.0005  0.2951 -0.1673
11817W        W31351   7.969  18.634   0.635 -0.0245  0.0163  0.1917
11818W        W31352   3.591  10.080  13.799 -0.0800 -0.2907 -0.0388
11819W        W31353   1.125   3.042   2.455 -0.0731 -0.2821 -0.2926
11820W        W31354   1.762   7.197  12.823 -0.0209  0.3095  0.0524
11821W        W31355  10.171  11.323   3.295 -0.1676 -0.1454 -0.0851
11822W        W31356  17.217   7.527  10.289  0.1705 -0.1215 -0.1276
11823W        W31357  17.294   9.045  14.246  0.1152  0.1841 -0.1322
11824W        W31358   2.670   4.503  13.778  0.0456  0.0788 -0.2929
11825W        W31359  17.693  11.034  11.221  0.0082  0.0970  0.1769
11826W        W31360  18.524   1.402   0.385  0.1460 -0.1925  0.2753
11827W        W31361   2.908  15.734   2.102  0.1179  0.1838  0.1567
11828W        W31362   9.072  17.060  13.920  0.3178  0.2177 -0.2653
11829W        W31363  15.165  16.937   2.819 -0.1097  0.2315 -0.1603
11830W        W31364  18.211  12.114   0.396  0.3016  0.0251 -0.0300
11831W        W31365  15.070  14.923   0.792 -0.1407 -0.4349 -0.3627
11832W        W31366   6.941   3.376  11.461  0.1172  0.1088 -0.5184
11833W        W31367   6.268  16.057   0.216 -0.0207 -0.6517 -0.2283
11834W        W31368   4.715  13.437   2.664  0.1623  0.2495  0.2464
11835W        W31369  16.665  15.578  10.724 -0.0637  0.2491  0.2740
11836W        W31370  17.506   8.930   0.297  0.0094  0.0640  0.3070
11837W        W31371   2.316   4.784  12.585  0.2551  0.3233 -0.3038
11838W        W31372   9.360   7.789   9.193  0.1860  0.1303  0.1061
11839W        W31373  15.143   5.593  14.264 -0.0028  0.4226  0.1001
11840W        W31374   1.930  15.242  10.067 -0.1090  0.1585  0.0351
11841W        W31375  18.482   1.277  13.231 -0.0368 -0.0146  0.0969
11842W        W31376   4.748   3.810  12.975 -0.0962  0.0656  0.0345
11843W        W31377  10.991  17.248   1.543 -0.3666  0.2890 -0.2244
11844W        W31378  13.524   1.407  14.158 -0.0116 -0.0767 -0.1380
11845W        W31379   7.316   1.943  11.233  0.0715  0.1139  0.3226
11846W        W31380  11.061  18.082   0.603 -0.1880  0.1746 -0.1895
11847W        W31381   7.444   9.355   0.618 -0.1245 -0.3337  0.0775
11848W        W31382  17.645   6.778  13.469 -0.2228  0.1239  0.0767
11849W        W31383  15.151  15.265   0.458 -0.1598 -0.1476  0.0187
11850W        W31384   4.854   9.179  13.573 -0.0510 -0.1002  0.0390
11851W        W31385  15.163   0.791   4.620 -0.2473  0.4630  0.3787
11852W        W31386  15.647   0.891  13.313  0.1288 -0.1125  0.0539
11853W        W31387   6.093   1.163   2.380  0.1266 -0.1818 -0.2949
11854W        W31388  17.379  14.360  13.991  0.0321 -0.0849  0.1293
11855W        W31389   8.232   2.640   0.226 -0.1034  0.1489 -0.1938
11856W        W31390   0.368   8.654  11.875  0.2382 -0.2439 -0.1311
11857W        W31391   3.558  11.753  14.194  0.1117  0.0202  0.1210
11858W        W31392   3.103  11.647  11.694 -0.1234 -0.0009  0.0249
11859W        W31393   7.149   5.990  11.403 -0.0294  0.0687 -0.1508
11860W        W31394  10.856  18.414  11.399  0.2263 -0.0541  0.1739
11861W        W31395  17.205   4.034   4.427 -0.2052 -0.3319 -0.0839
11862W        W31396  11.060   4.366  12.147  0.1769 -0.0324 -0.0130
11863W        W31397  17.742   1.817   2.902 -0.2448 -0.1864 -0.1869
11864W        W31398  15.572  13.700  13.051 -0.1221  0.3683  0.2405
11865W        W31399   1.851  11.298  12.099 -0.0230 -0.1973  0.1180
11866W        W31400  11.219  10.114   1.977 -0.1769 -0.1275 -0.0578
11867W        W31401   4.607   6.461  12.358 -0.1694  0.4157 -0.2441
11868W        W31402   3.053   8.984  12.528  0.1120  0.2550 -0.1654
11869W        W31403   3.218  11.972   0.661 -0.1772 -0.1271 -0.0134
11870W        W31404  17.764   8.605   2.161 -0.0394  0.0142 -0.1488
11871W        W31405  15.147  19.038  11.158 -0.1938 -0.2426 -0.0616
11872W        W31406  17.612   9.365  11.710 -0.0909 -0.2115  0.1016
11873W        W31407  11.596  13.016  13.539 -0.0580 -0.1860  0.1957
11874W        W31408   4.483  18.044   0.228 -0.0377  0.0419 -0.0517
11875W        W31409   1.914   4.730  13.926 -0.0175 -0.1957 -0.0281
11876W        W31410   8.788  13.525   2.834  0.2668 -0.2264 -0.0731
11877W        W31411  10.984   7.848   3.885  0.3393 -0.3735 -0.1684
11878W        W31412  10.575  16.209  11.222  0.1226 -0.0709  0.0463
11879W        W31413   3.230   6.751   0.415 -0.0059 -0.0934 -0.0103
11880W        W31414   2.930  13.897   3.876 -0.1594 -0.1512  0.1463
11881W        W31415  18.639  18.230  12.801  0.2593 -0.2918 -0.1971
11882W        W31416  13.159   2.288  13.460  0.3560  0.0062 -0.1872
11883W        W31417  15.220   8.180   4.223  0.3487  0.2273 -0.3350
11884W        W31418  16.457  10.323  13.293 -0.0163 -0.0854  0.1587
11885W        W31419  16.302  11.084  13.435 -0.1725 -0.0371  0.0398
11886W        W31420   9.085  17.529  14.004 -0.0710 -0.0214 -0.2161
11887W        W31421   4.155   6.500   0.455 -0.3106  0.0692  0.5156
11888W        W31422   9.724  15.747   0.789  0.3198 -0.0292  0.0984
11889W        W31423  12.786  15.562  12.268  0.0109 -0.1281 -0.1014
11890W        W31424  14.973   4.152  12.191 -0.2745  0.2863 -0.1455
11891W        W31425   9.009  13.942  10.470  0.3057 -0.1887 -0.1478
11892W        W31426   4.008  11.138   1.623 -0.3276 -0.1915 -0.1245
11893W        W31427   9.509  12.400  11.033 -0.2828  0.0367 -0.3214
11894W        W31428   3.109   2.071  11.599 -0.2069 -0.1874 -0.2561
11895W        W31429  17.676  13.056  11.619  0.1338  0.2045 -0.1906
11896W        W31430  19.094  14.240   3.624  0.1463 -0.0167 -0.1468
11897W        W31431   8.632  14.837  13.420  0.0793 -0.0542  0.1885
11898W        W31432   9.826   4.479  13.361 -0.0878 -0.0865  0.3456
11899W        W31433   4.756   4.584  11.060 -0.2093 -0.0069  0.3523
11900W        W31434   9.296   3.698   4.429 -0.0213  0.0330  0.2256
11901W        W31435   0.249  12.358   3.345  0.3366  0.0707  0.0590
11902W        W31436  12.112  12.754  10.262 -0.2432  0.0897 -0.0488
11903W        W31437  19.356  10.322   1.940 -0.1112  0.2153  0.0046
11904W        W31438  18.198  13.576   3.603  0.0510 -0.0136  0.2008
11905W        W31439   0.742  18.727   2.191 -0.0205 -0.1331  0.0065
11906W        W31440  19.255   8.139  12.702 -0.1134 -0.0288 -0.0966
11907W        W31441   7.465   1.788   9.820  0.1254  0.2173  0.1212
11908W        W31442   3.013   9.327  12.912  0.1803 -0.0864 -0.0859
11909W        W31443  16.088   5.001  12.897 -0.4552  0.3282  0.0910
11910W        W31444  18.599   4.396   1.101  0.1187  0.1337  0.3748
11911W        W31445   1.877  11.093   1.153 -0.4026 -0.1555 -0.0809
11912W        W31446  15.988  16.108   4.035 -0.0103 -0.2029 -0.2188
11913W        W31447  15.426  12.547   3.221  0.1978 -0.1762  0.0799
11914W        W31448   7.778  19.275  13.810  0.0099 -0.0534  0.2782
11915W        W31449  18.152  14.120  12.871  0.2290 -0.0011  0.2701
11916W        W31450   1.142  19.213  12.124  0.0029 -0.0596 -0.0999
11917W        W31451  13.019   4.934   0.263 -0.2520  0.2904 -0.2279
11918W        W31452  15.978   9.286  10.816  0.0513 -0.0334 -0.1490
11919W        W31453  15.552  18.220  11.257  0.1378  0.1238 -0.0549
11920W        W31454  11.934  10.171   3.615  0.3683  0.0477 -0.0444
11921W        W31455   6.326  18.629   0.246 -0.0286 -0.0997  0.0657
11922W        W31456   1.178  18.091  13.674  0.0936  0.3994 -0.0127
11923W        W31457   6.522   8.019   2.529 -0.2349 -0.1590  0.1048
11924W        W31458  15.312   7.116  10.255 -0.2268  0.5715 -0.3654
11925W        W31459   5.830  13.505   0.510 -0.3472  0.1600 -0.0669
11926W        W31460   7.264   9.420   3.614 -0.1923  0.2246  0.0489
11927W        W31461   5.947  10.181   3.567 -0.4337 -0.0817 -0.1301
11928W        W31462   3.000   0.951  10.867  0.0347  0.0627 -0.3802
11929W        W31463   9.310  17.072   2.974  0.0057 -0.1689 -0.1996
11930W        W31464  16.272   2.265   0.160 -0.3387  0.0408 -0.0607
11931W        W31465   0.292  16.637   1.855 -0.0270  0.1340  0.1353
11932W        W31466   4.767   1.690   4.192 -0.1104 -0.0110 -0.2675
11933W        W31467  11.184   8.726  10.508 -0.1216  0.0811 -0.0896
11934W        W31468   0.169  13.796  10.744 -0.0769 -0.0054 -0.1493
11935W        W31469   0.618  18.125  13.683  0.0522 -0.1663  0.1583
11936W        W31470   5.595  17.714  12.121  0.3042  0.0676 -0.0002
11937W        W31471   9.799   8.244   1.482 -0.1156 -0.4440  0.0776
11938W        W31472   5.962  13.170  11.190  0.0771 -0.2274  0.0714
11939W        W31473   1.156   9.685   2.496 -0.1407  0.1742  0.3292
11940W        W31474   1.929  13.679  11.384  0.1220  0.3363 -0.1473
11941W        W31475  15.483  12.699  14.157 -0.0566 -0.1966 -0.1234
11942W        W31476   4.197   0.018   3.448 -0.1486 -0.0895  0.2015
11943W        W31477   4.565   2.220  10.207  0.0594  0.2976  0.1060
11944W        W31478   4.042   4.720  13.809 -0.1274  0.3781 -0.2391
11945W        W31479  13.611  15.910   3.147  0.1780 -0.0313 -0.0373
11946W        W31480  14.379   6.491   1.673  0.1082 -0.1178  0.2373
11947W        W31481   3.094   5.429   1.817  0.1287  0.0647 -0.0225
11948W        W31482   5.776  17.347  11.661  0.2264 -0.0889  0.0696
11949W        W31483  13.131   1.406  11.346 -0.7378  0.0021 -0.2831
11950W        W31484  16.858   8.448   1.677  0.0458 -0.4973 -0.0645
11951W        W31485   5.485   1.304   9.441  0.1246  0.1451  0.3875
11952W        W31486   4.617   1.227   3.511  0.1280 -0.1804 -0.1070
11953W        W31487   4.167  16.404   4.206  0.0568  0.0070 -0.2567
11954W        W31488  10.524   1.022   2.559  0.2364 -0.4134  0.1413
11955W        W31489  10.801  19.386   0.812  0.0482 -0.0429 -0.1316
11956W        W31490  19.513  12.995   2.666  0.0527 -0.0352  0.1132
11957W        W31491   7.124  18.388  13.952  0.0794  0.0281 -0.0299
11958W        W31492  18.785   7.217   1.522 -0.0978 -0.1627 -0.0334
11959W        W31493   7.666  12.574   2.900  0.1947  0.2245 -0.1044
11960W        W31494   6.555   4.803   3.565  0.1275  0.3820 -0.0785
11961W        W31495  19.390   1.217   2.689  0.1037 -0.0886  0.3435
11962W        W31496   9.332  14.894  11.773 -0.0603 -0.1868 -0.1734
11963W        W31497   9.551   1.435  13.170  0.1126 -0.1647 -0.2947
11964W        W31498   1.238   4.098   3.772  0.1423 -0.1371 -0.2952
11965W        W31499   8.923  14.003   1.821 -0.1154  0.2952  0.0008
11966W        W31500  11.092   3.192   2.437  0.1408  0.3612  0.1696
11967W        W31501   4.046   6.320  11.043  0.2724 -0.0766 -0.0309
11968W        W31502   6.827  19.001   1.559  0.0754 -0.1743 -0.0813
11969W        W31503   7.369  13.626  10.770  0.5316 -0.0780 -0.0534
11970W        W31504   6.892   8.864  12.830  0.2089 -0.0698 -0.0104
11971W        W31505  10.871   9.641   2.831 -0.1322  0.1215 -0.2262
11972W        W31506  10.829  13.746  12.356 -0.1229  0.0741  0.1098
11973W        W31507   5.809  15.641   0.226  0.1643  0.4351  0.0768
11974W        W31508  19.002   8.727  10.642 -0.0907 -0.1497  0.0496
11975W        W31509   3.916  10.447   4.477  0.1346  0.0001 -0.0346
11976W        W31510  11.486  18.740   3.353  0.0525  0.2356 -0.2575
11977W        W31511  13.871   0.773   0.580 -0.2221  0.3704 -0.0417
11978W        W31512  11.626  17.050  14.034  0.2166 -0.0977 -0.0042
11979W        W31513  18.807   5.481  12.969 -0.0400  0.0050  0.3135
11980W        W31514  13.406   2.716   1.213 -0.3646 -0.0862  0.1770
11981W        W31515  18.067  17.893  14.307  0.2254 -0.0550 -0.2839
11982W        W31516  12.681  11.067   4.074 -0.3055 -0.0639  0.1759
11983W        W31517   6.520   1.593  13.714 -0.1497 -0.1546 -0.0605
11984W        W31518  16.932   0.233  13.470  0.1087 -0.2316  0.1995
11985W        W31519  17.316  14.237  12.887  0.3242  0.0687  0.3156
11986W        W31520  10.888  15.925   1.819  0.2581 -0.2011 -0.1657
11987W        W31521   5.426  10.130  10.751  0.1077  0.0836  0.1799
11988W        W31522  16.303  18.458  13.429 -0.0954 -0.2664  0.1669
11989W        W31523   1.667  11.629  11.359 -0.0954  0.1650  0.0667
11990W        W31524  15.790   8.106   0.033 -0.1192 -0.1121  0.3833
11991W        W31525   8.309   0.675   4.137 -0.0409  0.1907  0.0557
11992W        W31526  10.641   8.694  12.355  0.2480  0.0456  0.1853
11993W        W31527   5.625  16.839  11.533 -0.3383 -0.0688  0.0546
11994W        W31528   7.191   5.436  11.514 -0.2993 -0.1566  0.1344
11995W        W31529  19.218  16.344   2.615  0.0778 -0.1653  0.0564
11996W        W31530  13.952   6.008   0.773 -0.1331 -0.4522  0.0835
11997W        W31531  14.188   9.956  13.029  0.2889 -0.2130  0.1156
11998W        W31532  13.096   1.337   0.274  0.0677  0.0903 -0.4328
11999W        W31533  10.618  10.596  13.391 -0.1480  0.1751  0.2591
12000W        W31534  11.579  10.835   0.090  0.0756 -0.1451  0.3025
12001W        W31535   8.077   9.552   4.155  0.1159  0.0775  0.2240
12002W        W31536  19.184   6.470  12.000  0.1784 -0.1147 -0.1439
12003W        W31537   2.956  17.752  11.083 -0.3708  0.1720  0.1984
12004W        W31538  15.298   1.901  14.253 -0.2301  0.0353  0.1354
12005W        W31539  17.735   6.001  14.000 -0.1587 -0.1097 -0.2661
12006W        W31540   1.342  17.126  13.935  0.1027  0.2198  0.0819
12007W        W31541   1.957   2.499   0.427  0.2049 -0.0947 -0.3660
12008W        W31542   2.375   7.517   2.748 -0.0230 -0.1106 -0.2886
12009W        W31543   4.281  10.715  14.360 -0.0101 -0.1993 -0.1134
12010W        W31544  13.709  12.081  11.647 -0.0227  0.3966 -0.3883
12011W        W31545   6.256  15.841   2.527  0.0389  0.1387 -0.0257
12012W        W31546   2.152   0.077   3.364  0.1132 -0.1743  0.0058
12013W        W31547  10.727   4.810  13.088 -0.1531  0.2503 -0.0610
12014W        W31548   9.692  18.042   2.465  0.0570  0.1707 -0.0649
12015W        W31549   2.093   2.595   2.068  0.0132 -0.1303 -0.0936
12016W        W31550  18.477   5.902   2.897  0.1484  0.1550  0.0426
12017W        W31551   5.446  10.449  12.536 -0.1944 -0.0931  0.2314
12018W        W31552  11.997   9.694  13.282 -0.3432 -0.0672  0.0053
12019W        W31553  14.169  15.086  12.930 -0.0682  0.3753  0.1092
12020W        W31554   5.339   9.481   2.689  0.3584 -0.0628  0.2353
12021W        W31555  18.488   4.599   3.917  0.2962  0.0451  0.1708
12022W        W31556  16.156  10.325   0.460  0.0232 -0.0120 -0.0318
12023W        W31557  18.928  14.664   2.370 -0.1679 -0.0120 -0.1243
12024W        W31558   1.387   5.913   0.105 -0.1322 -0.2657  0.3026
12025W        W31559  13.588  14.837   0.921  0.1684  0.1327 -0.0828
12026W        W31560  15.693   1.282   3.003  0.0860  0.3244  0.1926
12027W        W31561   0.017  14.717  11.138 -0.0952 -0.1541  0.2100
12028W        W31562   1.033  10.070  14.218 -0.0496 -0.3576 -0.0347
12029W        W31563   4.294   6.703   1.752  0.0436 -0.1047 -0.1117
12030W        W31564   8.511  19.005  11.109 -0.3519  0.0065 -0.0113
12031W        W31565  11.617  19.050  14.151 -0.3710 -0.1176 -0.2777
12032W        W31566  16.374   8.714   1.663 -0.1428 -0.1131  0.0840
12033W        W31567   0.489  17.083   2.944 -0.0375  0.2542  0.4000
12034W        W31568   2.119   0.613  10.817  0.1281 -0.0715  0.0371
12035W        W31569   3.125  10.247  12.132  0.3064  0.2833 -0.0709
12036W        W31570  14.084   2.036   9.921 -0.0936  0.0668  0.3770
12037W        W31571   1.702  19.496   0.393 -0.1145  0.2340  0.0819
12038W        W31572   0.662  11.489   0.385 -0.4905  0.0730 -0.1641
12039W        W31573   2.972   2.654  11.644  0.0121  0.0153 -0.0047
12040W        W31574  13.069   4.257   2.709 -0.2229  0.1713 -0.0133
12041W        W31575  13.376  18.133   0.198 -0.0584 -0.0545 -0.0364
12042W        W31576  16.646  11.329   0.021  0.0378  0.2538 -0.2068
12043W        W31577  13.207  11.690   2.588 -0.2423 -0.0434  0.1444
12044W        W31578   0.768   5.803   3.749  0.3270  0.2634  0.1094
12045W        W31579  19.344  15.847  12.174 -0.2203 -0.2760 -0.1765
12046W        W31580   0.357  11.541  14.003  0.2774  0.1083 -0.2262
12047W        W31581  14.742   9.322   1.558  0.0818 -0.1795  0.0032
12048W        W31582  14.628  18.766  13.033  0.0165  0.1173  0.0401
12049W        W31583   2.952  16.776  11.315 -0.3835 -0.2124 -0.2198
12050W        W31584  18.557   6.371   4.105 -0.0210  0.0794  0.0665
12051W        W31585  16.691   4.415   0.682  0.2912 -0.3257  0.2225
12052W        W31586   6.983   6.372   2.560  0.1865  0.0139 -0.2880
12053W        W31587   7.181   7.239  11.295 -0.0272  0.0488 -0.2691
12054W        W31588  11.704   2.542  10.297  0.1013  0.0638 -0.0633
12055W        W31589  13.721  18.512   1.436 -0.4260  0.0859 -0.2105
12056W        W31590   2.562   8.596   3.206  0.3478  0.0265  0.2331
12057W        W31591   5.008   9.026   3.867  0.1600 -0.3271 -0.1653
12058W        W31592   2.304   8.726  14.174 -0.1290 -0.0032 -0.1163
12059W        W31593   2.680  18.948  12.560 -0.2542  0.0384 -0.0250
12060W        W31594   3.623  10.064  13.342 -0.0922  0.0030  0.1384
12061W        W31595   7.886   8.202  11.623 -0.1931 -0.0216 -0.1453
12062W        W31596  14.775   8.046   3.176 -0.0333  0.2646  0.0861
12063W        W31597   6.237  10.615  12.258 -0.1602 -0.0347  0.0178
12064W        W31598  17.357   0.486   2.456  0.4177 -0.1519 -0.0424
12065W        W31599   7.051  10.879   2.668 -0.0963 -0.3408 -0.1683
12066W        W31600  14.240   9.335   3.357 -0.3202  0.0003  0.0690
12067W        W31601  10.687  18.662   2.226  0.2488 -0.1554  0.0514
12068W        W31602   7.428  10.642   9.871  0.2293 -0.3749  0.2481
12069W        W31603  18.135  14.846   2.743 -0.0845  0.3490  0.0197
12070W        W31604  11.791   3.386   0.230  0.0566 -0.0634  0.0925
12071W        W31605   4.379   3.414   0.182  0.1472 -0.1022 -0.1636
12072W        W31606   9.759  12.457   1.972  0.0269 -0.3649 -0.0364
12073W        W31607  10.793  12.288   0.265  0.1346 -0.0241  0.0674
12074W        W31608   0.284   5.043  12.118  0.1403 -0.1416 -0.0919
12075W        W31609   4.267   1.346  13.677 -0.3425 -0.0048 -0.1121
12076W        W31610  17.526   6.267   2.027  0.2883  0.0848  0.1902
12077W        W31611  16.469   7.837   2.044 -0.1510  0.2770  0.1198
12078W        W31612   3.400   2.780  10.806 -0.0682  0.1021  0.0249
12079W        W31613  10.210  17.552   3.684 -0.0531  0.4163 -0.0926
12080W        W31614  11.265  18.430  10.925  0.1070  0.0512  0.0466
12081W        W31615  16.049  10.327  11.427  0.0805  0.0059 -0.4124
12082W        W31616  19.051  15.662  12.550  0.1736 -0.0893 -0.0191
12083W        W31617   7.003   7.841   4.220  0.1438 -0.0955 -0.4151
12084W        W31618  16.769   5.355   3.110  0.2005  0.0692 -0.0578
12085W        W31619   4.807   6.331  13.818 -0.1091  0.1577 -0.0380
12086W        W31620  16.487  19.041  10.339  0.0518 -0.0235  0.1304
12087W        W31621  10.239   7.770  12.672  0.1304 -0.1573 -0.2306
12088W        W31622   4.157   6.062   4.105  0.1555  0.0409  0.2123
12089W        W31623  18.384  10.770  13.690  0.0180  0.0606 -0.4118
12090W        W31624   4.231  17.318  13.148  0.0609 -0.1779  0.1419
12091W        W31625  15.482  14.409  13.924  0.1962 -0.0359 -0.2696
12092W        W31626   6.026   3.733  11.908 -0.0682 -0.0161  0.0092
12093W        W31627  13.691  11.526  11.477 -0.3055 -0.1036 -0.0050
12094W        W31628  14.766  13.869   2.037 -0.1512  0.0548  0.1771
12095W        W31629   6.521   3.262   1.478  0.1492  0.0074 -0.1434
12096W        W31630   5.553   9.747  13.536 -0.1254  0.0205  0.2340
12097W        W31631   9.343   7.017  10.790  0.0504 -0.1782 -0.1440
12098W        W31632  14.341  10.694   1.844  0.0073  0.3228  0.0672
12099W        W31633  10.656  17.154   2.556 -0.0615  0.0751 -0.2443
12100W        W31634   8.672  12.135  13.215 -0.0896 -0.0664 -0.2499
12101W        W31635  17.959  13.016   1.325  0.1233 -0.1271 -0.3287
12102W        W31636   7.833   1.689   1.888  0.2937  0.0042 -0.0440
12103W        W31637   0.525  13.358   3.469  0.0759  0.0094 -0.2490
12104W        W31638  12.823   9.768  14.258 -0.0216  0.0548  0.1257
12105W        W31639  17.288   4.406   2.371  0.3171  0.5278  0.0046
12106W        W31640   5.756  14.858   4.220 -0.2172  0.2780 -0.0076
12107W        W31641   0.232  14.823  13.665 -0.0522 -0.1851  0.1871
12108W        W31642   1.632   3.523   9.803 -0.1361 -0.0871 -0.1315
12109W        W31643   4.331  14.915  11.727 -0.1842  0.0364  0.0783
12110W        W31644  18.324   6.802  10.985 -0.1897 -0.1465  0.0412
12111W        W31645  19.117   5.776  11.230  0.0696  0.2628 -0.1433
12112W        W31646  19.019   2.059  12.092  0.2901  0.0761 -0.1676
12113W        W31647   2.258   8.683  11.377  0.1007  0.3760  0.0380
12114W        W31648   3.253  12.820   0.592 -0.0475 -0.1875  0.1457
12115W        W31649   7.286  17.854   2.080  0.0351 -0.4437 -0.2772
12116W        W31650  12.722  14.183   1.395  0.1142 -0.0100  0.1695
12117W        W31651  11.842  15.239   1.479  0.0900  0.0760 -0.2727
12118W        W31652   0.588   2.460   3.111 -0.1005 -0.1064  0.0751
12119W        W31653   1.430   2.514   1.335  0.0733  0.1515 -0.3139
12120W        W31654  19.438   6.223  12.816 -0.2274 -0.1476  0.0947
12121W        W31655   7.094  18.401   1.463  0.1157 -0.2556  0.0749
12122W        W31656  14.893   9.553  10.826  0.0673 -0.1944 -0.0405
12123W        W31657  19.453  16.324  13.962 -0.1911 -0.1691 -0.0003
12124W        W31658  19.464   1.891   0.194 -0.0357 -0.1648 -0.0544
12125W        W31659   2.309  15.080   0.934 -0.0193 -0.0804  0.0001
12126W        W31660   3.110  17.820   1.612 -0.0322 -0.1444 -0.2608
12127W        W31661  11.691  11.597  12.462  0.1355  0.1728 -0.1921
12128W        W31662  13.877  17.081  13.553 -0.1542  0.1328  0.0184
12129W        W31663   5.105   8.070  12.079 -0.1540  0.1151 -0.2126
12130W        W31664   6.141   2.648  11.064  0.0276 -0.1471 -0.1255
12131W        W31665   5.219   9.180   0.075  0.2616  0.2436  0.0163
12132W        W31666   0.177  18.926   2.232 -0.3732 -0.1427 -0.1077
12133W        W31667  18.784  18.996   0.741 -0.0537 -0.2259  0.1833
12134W        W31668  19.186  10.383   2.746  0.1321  0.0524 -0.1471
12135W        W31669   2.309  18.860   0.084 -0.0279 -0.1518 -0.0117
12136W        W31670   1.081   8.369  10.748  0.2271  0.1110  0.0184
12137W        W31671  11.653   5.088   3.108  0.3417 -0.0418  0.0107
12138W        W31672  13.438  17.193   0.026 -0.0817  0.1071  0.0397
12139W        W31673   1.262  16.555   0.640 -0.1927  0.0512 -0.2400
12140W        W31674  16.726   6.245  14.249 -0.0959 -0.2436  0.2711
12141W        W31675  19.344   8.466   0.099  0.5667  0.0380  0.2951
12142W        W31676  12.321  10.301   1.636  0.0344  0.2782  0.3773
12143W        W31677   4.270  11.188   1.155 -0.0717 -0.4357 -0.0394
12144W        W31678   6.477   0.583  13.129  0.1997 -0.0023  0.1128
12145W        W31679   8.458   1.097   4.506 -0.0013  0.0666 -0.0600
12146W        W31680   7.148   7.841  12.141 -0.2170  0.2516  0.0117
12147W        W31681   0.401  16.667   1.254 -0.1872  0.0672  0.0413
12148W        W31682  17.927   3.180   3.676  0.0216 -0.0846  0.1869
12149W        W31683   7.733   2.554   1.470 -0.2293 -0.0925 -0.2894
12150W        W31684  13.542  15.831   1.353 -0.3346  0.2240  0.1012
12151W        W31685   2.200  13.316  14.148  0.2277 -0.1956 -0.1074
12152W        W31686   9.848  10.064   4.008  0.2662 -0.0757 -0.1796
12153W        W31687  13.284   9.432  10.335 -0.0882  0.2398  0.0267
12154W        W31688  13.229   5.937  10.935 -0.0412  0.0387 -0.0591
12155W        W31689  12.275  11.875   0.672  0.2116  0.2113 -0.0834
12156W        W31690   7.905   9.512   2.552  0.0046 -0.2950  0.0042
12157W        W31691   8.183  14.354   2.772 -0.1485  0.0398 -0.2283
12158W        W31692  13.659   5.463  11.210 -0.1907  0.1717 -0.2549
12159W        W31693   2.220   9.285  12.239  0.1767  0.1297 -0.2766
12160W        W31694  15.036   7.265  11.834  0.0589 -0.1057  0.3712
12161W        W31695  19.024  11.619   9.345 -0.1951  0.1971 -0.0121
12162W        W31696   1.933   0.443   2.122 -0.0761 -0.1157 -0.3968
12163W        W31697  19.305   5.444  12.871 -0.1408 -0.4246 -0.2244
12164W        W31698  18.423  15.100  13.131  0.3932  0.1621 -0.1787
12165W        W31699   0.647   7.373  12.383  0.2647  0.3053 -0.0752
12166W        W31700   4.569  11.062   1.531 -0.0803  0.0213  0.1635
12167W        W31701   7.364   8.685   0.101 -0.0071 -0.1860 -0.3520
12168W        W31702   8.690   4.673  10.595 -0.2279 -0.3502  0.3473
12169W        W31703  16.855  11.662  11.099 -0.1004  0.2120 -0.0306
12170W        W31704   1.567  15.374  12.134  0.2103 -0.0189 -0.1296
12171W        W31705   1.961  11.941  14.373  0.0003 -0.0360  0.1073
12172W        W31706  11.711  12.693  14.125 -0.0791  0.1938  0.0844
12173W        W31707  14.519  19.444  12.976 -0.1114 -0.0236  0.0175
12174W        W31708   2.390   6.012  13.476  0.0507  0.0351  0.0030
12175W        W31709  16.231  17.522   0.386 -0.5332 -0.2958 -0.1523
12176W        W31710  18.625  16.938  13.077 -0.2566 -0.0921 -0.0704
12177W        W31711  13.403  16.318   1.263  0.3816 -0.0488 -0.0347
12178W        W31712   6.408  11.208   4.452  0.1909 -0.0301 -0.2172
12179W        W31713   6.918   2.361   3.140  0.2643  0.3592  0.1132
12180W        W31714   6.501   5.339  12.285 -0.0029 -0.2654  0.1244
12181W        W31715  16.279  16.083  10.598  0.2683  0.0457 -0.2317
12182W        W31716  12.893   1.447  10.210 -0.1776  0.0509  0.0672
12183W        W31717   1.329   9.078  11.201 -0.2772  0.0021  0.1067
12184W        W31718  18.413   7.944  14.363 -0.0715  0.0633  0.1198
12185W        W31719  14.410   1.577   1.829  0.1161  0.1339 -0.0523
12186W        W31720  10.141  14.840   4.511  0.0132  0.1411 -0.1255
12187W        W31721  18.847  17.031  10.274 -0.3174  0.2344  0.2354
12188W        W31722  10.098   6.750  11.079 -0.0096 -0.2752 -0.2663
12189W        W31723  14.203   2.277   4.074 -0.0607  0.0730 -0.0926
12190W        W31724  19.195   5.954   1.276 -0.1371  0.1225 -0.1505
12191W        W31725  18.816   2.897  11.041 -0.0863 -0.0406  0.1924
12192W        W31726  18.368   0.097  14.087  0.0566  0.0804  0.1754
12193W        W31727  15.612  14.832   3.603 -0.0626 -0.3422 -0.1073
12194W        W31728   8.986  15.370  13.762  0.0378  0.1320  0.0100
12195W        W31729   0.002  18.763   2.677 -0.0995  0.2117 -0.0440
12196W        W31730  11.570   2.224   1.368  0.0816  0.2000 -0.2048
12197W        W31731   8.415   6.751  11.026 -0.1966 -0.2505  0.1192
12198W        W31732  18.959  11.399  11.476 -0.1135 -0.0163  0.1592
12199W        W31733  10.651  15.651   2.257 -0.1647 -0.2574  0.2774
12200W        W31734   1.096   6.462  10.269  0.0061 -0.1513 -0.1531
12201W        W31735  10.952  10.024  14.061 -0.1039 -0.1202 -0.0490
12202W        W31736   8.984   5.933   3.030  0.0789 -0.0378  0.0584
12203W        W31737  13.991  16.265  10.162 -0.1525 -0.0228 -0.2847
12204W        W31738   7.460  12.117   0.140  0.2715  0.1918  0.0674
12205W        W31739   7.889  16.780  12.103  0.1108  0.1947 -0.0500
12206W        W31740  17.553  19.163   0.188 -0.2367 -0.0491  0.0531
12207W        W31741  17.799  15.107   9.975  0.1043  0.2241  0.1196
12208W        W31742  19.034   6.948  13.827  0.2454  0.1811 -0.0479
12209W        W31743   6.112   9.016   1.825 -0.1705  0.0126 -0.0260
12210W        W31744   6.101  13.923  12.609 -0.0737  0.2497  0.0889
12211W        W31745   1.421   2.715   3.105 -0.2574  0.0593 -0.0377
12212W        W31746  18.573   6.417   4.933 -0.0138  0.0740 -0.1339
12213W        W31747  16.827   3.642   3.713 -0.1777 -0.0360  0.0377
12214W        W31748  15.265   0.834  10.062 -0.2203 -0.0660  0.0339
12215W        W31749   8.656  19.519   2.534 -0.1483 -0.1101  0.1368
12216W        W31750  17.224  13.824   3.773  0.1613 -0.2716 -0.1368
12217W        W31751   0.313  14.503   0.193 -0.1673 -0.1652 -0.1820
12218W        W31752   0.621   7.743  13.999 -0.1620 -0.0298 -0.1869
12219W        W31753   4.661   6.917   1.971 -0.4213 -0.1454 -0.5308
12220W        W31754   0.769  17.734   9.659  0.1153  0.1461 -0.1653
12221W        W31755  11.390   6.474   0.445  0.2303  0.0735 -0.2967
12222W        W31756   6.804   1.095   4.035  0.2562 -0.1662  0.3361
12223W        W31757  14.686   9.296   3.640 -0.0309 -0.1215 -0.2363
12224W        W31758   3.607  18.895  11.955 -0.3097  0.1175  0.1098
12225W        W31759  15.619   4.585   1.566  0.1775  0.2486 -0.1448
12226W        W31760  14.200  17.071   2.681 -0.2525  0.2090 -0.2558
12227W        W31761   3.612   4.962  13.611 -0.0986  0.0655  0.0771
12228W        W31762   5.173   8.957  11.374 -0.0898 -0.3831  0.0976
12229W        W31763   2.689  19.172  11.598  0.2354  0.1508  0.2092
12230W        W31764   5.177   0.090   3.047  0.0167  0.2809  0.1081
12231W        W31765   3.235   1.408   0.899  0.3298 -0.0086  0.1310
12232W        W31766   8.064   8.465  12.118  0.0598  0.3679  0.1587
12233W        W31767   6.816  18.915   3.193  0.0285 -0.1978 -0.0142
12234W        W31768   1.789   4.940  11.160  0.0568 -0.0606 -0.1686
12235W        W31769  13.121  10.792  12.454 -0.2872 -0.0684 -0.1316
12236W        W31770   3.571   3.996   4.231  0.0920  0.2403  0.1934
12237W        W31771   4.810   2.745  10.253  0.0402  0.0831 -0.0289
12238W        W31772   8.345  15.215   2.786 -0.1052  0.0030  0.0503
12239W        W31773  15.199   6.253  11.028  0.2489 -0.0845  0.1677
12240W        W31774  17.346  17.802   0.519 -0.1761 -0.0215 -0.2466
12241W        W31775  12.888   7.949  13.665 -0.4129  0.2947  0.2178
12242W        W31776  14.280  15.421  13.270  0.0593  0.2620  0.0944
12243W        W31777  12.931  11.233   2.356  0.1774 -0.0380 -0.0147
12244W        W31778   3.020  17.586  13.850  0.1035 -0.2178  0.0508
12245W        W31779   7.946  18.748  12.863 -0.3011 -0.3625  0.2984
12246W        W31780   0.999  10.715  11.143 -0.1327  0.2854  0.0962
12247W        W31781  11.633   0.659   2.341  0.2788  0.1133  0.5212
12248W        W31782   1.387  12.628  13.331 -0.0608  0.0320  0.0143
12249W        W31783   6.808   2.982  13.450 -0.1187 -0.0534  0.4217
12250W        W31784   9.917  18.773  12.995 -0.0060  0.0489 -0.0277
12251W        W31785   2.055   5.530   0.563  0.0999  0.2353  0.1336
12252W        W31786  10.035   3.987   2.707 -0.1324  0.1287 -0.3751
12253W        W31787  18.533   3.867  11.509 -0.2007 -0.0424  0.3245
12254W        W31788   9.485  15.378   1.273  0.0107 -0.0744  0.2448
12255W        W31789   3.469  18.415   2.743  0.0731  0.0413 -0.0758
12256W        W31790  16.708  13.012   2.813  0.0749  0.0765 -0.3173
12257W        W31791   6.444  14.584   3.723  0.0267  0.3718 -0.0633
12258W        W31792   3.678   8.914  14.278  0.3478  0.1321  0.1582
12259W        W31793   2.990   1.096  14.342  0.0926  0.0549  0.1885
12260W        W31794  12.032  12.539  11.089  0.0338 -0.0499 -0.0378
12261W        W31795   1.929  10.865  11.136  0.0344 -0.2086  0.1413
12262W        W31796   4.355  14.365  12.340 -0.2448 -0.1284  0.1329
12263W        W31797   7.928   8.722   0.995  0.0737 -0.0335  0.3708
12264W        W31798   8.308  13.541  13.763  0.0892  0.1088 -0.0948
12265W        W31799  18.596  15.277  10.189  0.1358  0.0200  0.1092
12266W        W31800  17.673   8.475   0.327 -0.0494 -0.1399 -0.0260
12267W        W31801   5.168   3.374  13.834  0.1679  0.0894  0.0260
12268W        W31802   5.986   0.638  13.003  0.0896 -0.1839  0.1612
12269W        W31803  11.715   6.006  13.654 -0.1058 -0.1443 -0.3783
12270W        W31804   3.519  18.801   0.676 -0.2712 -0.0366  0.1417
12271W        W31805   0.501   7.334   1.379 -0.2966 -0.0372 -0.2128
12272W        W31806   3.521   0.041   1.036 -0.0131 -0.0864 -0.0912
12273W        W31807   9.771   5.618  12.283 -0.0109 -0.0621 -0.2120
12274W        W31808   8.206   0.697  11.065  0.0143  0.1095  0.2759
12275W        W31809  14.763  17.573  13.679 -0.1237  0.0925 -0.3508
12276W        W31810  13.234  16.693   3.640 -0.0328  0.1678 -0.1786
12277W        W31811   6.450   6.055  11.231  0.2852  0.1440  0.2167
12278W        W31812  12.805  13.017  12.042 -0.1603 -0.2573 -0.1935
12279W        W31813  15.906   0.401  11.697  0.2058 -0.3772 -0.2309
12280W        W31814   2.587   5.840  14.082  0.0842  0.1172  0.2718
12281W        W31815  17.036  13.898   1.980 -0.2004  0.1822  0.1629
12282W        W31816   9.042  19.496  11.570 -0.0744  0.1820 -0.0241
12283W        W31817   0.403  15.728  11.826  0.0684  0.1692  0.0044
12284W        W31818  10.164   8.128  10.341  0.1868 -0.1798  0.2447
12285W        W31819   6.589   4.287   3.326 -0.0470 -0.0314 -0.1312
12286W        W31820   4.454   0.315   3.770  0.5543 -0.0374 -0.1092
12287W        W31821   5.274   8.296   2.448 -0.1841 -0.0000 -0.1416
12288W        W31822   7.380  18.641   3.541  0.2363 -0.0935  0.0897
12289W        W31823  18.061   8.989  12.736 -0.0434  0.0882  0.1326
12290W        W31824  18.650   5.935  14.248 -0.2254  0.2910  0.0664
12291W        W31825   4.149  16.369  14.318 -0.3558 -0.0509  0.2113
12292W        W31826   5.800   3.389  11.607 -0.0870  0.3560  0.2525
12293W        W31827  12.627   6.351  12.924 -0.2529 -0.0394  0.0183
12294W        W31828  12.011  11.963  11.484  0.0702 -0.1325  0.1421
12295W        W31829   7.463   4.292   2.690  0.0465  0.2886  0.1505
12296W        W31830  16.279   4.848   4.313 -0.0168 -0.1209  0.0425
12297W        W31831  15.346  18.383  14.334 -0.3973  0.2444  0.1790
12298W        W31832   0.284  12.755  14.019 -0.0918 -0.1274  0.1529
12299W        W31833  10.270   3.308   3.127 -0.2042 -0.0186 -0.0116
12300W        W31834  13.688  14.259  11.937  0.1251  0.2140  0.0950
12301W        W31835  15.121   8.952   0.675 -0.3670 -0.2864 -0.0755
12302W        W31836   4.594   2.903  13.164 -0.0428 -0.0402  0.0141
12303W        W31837  11.382  18.900  10.665  0.2833 -0.1007  0.3769
12304W        W31838   2.840  10.031   0.814 -0.2564  0.2594 -0.1215
12305W        W31839  13.649   9.082   4.935 -0.1833  0.0288 -0.0817
12306W        W31840   3.247   4.417   3.610 -0.0908 -0.1043  0.1553
12307W        W31841  15.565   1.549   5.245  0.1846  0.0417  0.1105
12308W        W31842   1.314  12.528   1.830  0.2876  0.1933 -0.1892
12309W        W31843  16.029   8.841  13.165  0.0289  0.1817 -0.3719
12310W        W31844   6.602   3.903   3.678  0.1276  0.0833 -0.2137
12311W        W31845   3.767   0.252   3.174 -0.0990  0.0260 -0.4346
12312W        W31846  14.418  16.734   1.005 -0.0875 -0.2070  0.0124
12313W        W31847   5.001  10.396  11.661  0.0659 -0.0128 -0.1760
12314W        W31848   2.510   0.267   0.534  0.1417  0.0922  0.3423
12315W        W31849   7.881   8.792   0.075 -0.1573 -0.0613  0.0999
12316W        W31850  11.920  15.825  14.164  0.0872  0.0443 -0.0865
12317W        W31851  18.909  13.676   0.067  0.1652 -0.5323 -0.0405
12318W        W31852   4.090   5.015   0.439 -0.0832 -0.1517  0.0720
12319W        W31853  18.420   0.883  11.578  0.0269 -0.0210  0.5482
12320W        W31854   5.809  13.382   3.395  0.0620  0.0063 -0.1764
12321W        W31855   3.744   7.072   1.941 -0.1169  0.2437 -0.1335
12322W        W31856   4.037  15.128   2.356  0.1192  0.0012  0.1729
12323W        W31857   9.904   8.254   0.213  0.4933  0.0197 -0.2231
12324W        W31858   9.456   2.959  13.113 -0.0023 -0.0583  0.0760
12325W        W31859   8.677  12.702   1.730  0.2627 -0.4271 -0.0983
12326W        W31860   8.470  17.227   1.289 -0.1863  0.0002 -0.0830
12327W        W31861   0.771  18.372   0.272  0.3958  0.2403 -0.0540
12328W        W31862   4.078   7.952  12.430  0.1008 -0.2165 -0.1156
12329W        W31863  16.128   0.541  13.151 -0.0009 -0.0124  0.0268
12330W        W31864   4.647   8.432  14.044 -0.0252  0.0775  0.2636
12331W        W31865   9.741  11.005   1.759  0.0386 -0.1222 -0.0280
12332W        W31866  10.518   0.350   3.309 -0.1150 -0.2216  0.1390
12333W        W31867   0.179  11.218  13.655 -0.1147 -0.4068  0.0296
12334W        W31868   3.713  17.402  11.454  0.0205 -0.2081 -0.2079
12335W        W31869  10.229   9.197   0.035  0.2017 -0.0460  0.4725
12336W        W31870  15.383  16.035  10.172  0.1420  0.0377  0.0564
12337W        W31871   3.496  10.248  11.259  0.1518 -0.2631 -0.0766
12338W        W31872  12.662  14.406  10.968 -0.1111 -0.0092 -0.3170
12339W        W31873  17.723  11.299   2.442 -0.0201 -0.0280  0.2730
12340W        W31874   5.801   4.421  14.160 -0.1097  0.0266  0.0147
12341W        W31875  17.686  15.161  10.469 -0.0049  0.2528  0.0893
12342W        W31876  19.470   4.584  10.411 -0.2579 -0.3229 -0.0358
12343W        W31877  16.344   2.895  12.978 -0.0605 -0.1702 -0.1329
12344W        W31878  15.624  13.105   0.759 -0.0120 -0.2523 -0.1351
12345W        W31879   1.491  12.916   2.775 -0.1500  0.2113  0.0359
12346W        W31880  15.454   6.191   0.555  0.2563  0.1297 -0.0396
12347W        W31881  13.424   5.057  10.082 -0.1164  0.1984 -0.1611
12348W        W31882  10.180  16.475   2.352 -0.2047 -0.1832 -0.0012
12349W        W31883  19.353   0.864   1.471  0.1537  0.4380 -0.0228
12350W        W31884  12.005   1.328   2.929  0.1360  0.1351 -0.1842
12351W        W31885   0.800  16.781  10.323 -0.1828 -0.2472 -0.0368
12352W        W31886   3.510  12.625   1.081 -0.1678 -0.3773  0.0397
12353W        W31887   8.116   8.258   0.743 -0.1661 -0.1819  0.1025
12354W        W31888  16.176   4.732   0.859 -0.2724  0.2662 -0.3421
12355W        W31889   3.426  18.518  11.597 -0.0278  0.5121 -0.0183
12356W        W31890  13.386  15.709   3.728  0.1923 -0.1730 -0.2705
12357W        W31891   8.772   1.710   0.643  0.4208  0.0905  0.1173
12358W        W31892  19.017  12.618   2.070 -0.4754  0.1187 -0.1954
12359W        W31893   1.304   7.258  14.323  0.1312 -0.1203 -0.0966
12360W        W31894  15.892  12.507  11.580  0.0965  0.0400 -0.1865
12361W        W31895   7.993   2.123   1.287 -0.0852 -0.0634 -0.0044
12362W        W31896   5.507  18.319  11.270  0.0951  0.0963  0.0954
12363W        W31897  12.043  16.724  13.479  0.0747 -0.0992  0.1628
12364W        W31898  12.209   3.734   1.058 -0.4402 -0.0028  0.2777
12365W        W31899  16.715   6.645   0.108 -0.0386 -0.1246 -0.0655
12366W        W31900   3.006  16.624  12.974  0.1321 -0.4623  0.1932
12367W        W31901  14.524   4.496  10.624 -0.1530  0.1237  0.2191
12368W        W31902   2.313  18.443   0.378 -0.1159 -0.0125  0.0443
12369W        W31903  17.434  18.729   0.574  0.0021 -0.0044  0.4033
12370W        W31904   9.500   9.930   0.155 -0.3300  0.0134  0.0919
12371W        W31905   7.206   3.219   0.515 -0.4422 -0.2232  0.0160
12372W        W31906   1.954  18.798   2.192  0.2197  0.0529  0.1279
12373W        W31907  16.554   8.170  13.339 -0.3169 -0.2440  0.1130
12374W        W31908  11.795   1.325   0.042 -0.2222  0.2053 -0.2346
12375W        W31909   4.329   5.856   0.066  0.1689  0.2161  0.4309
12376W        W31910   0.130   1.599  13.422 -0.0945 -0.1193  0.1234
12377W        W31911  17.490   2.999   4.253  0.0781 -0.2846 -0.0945
12378W        W31912  18.207  10.366  13.896 -0.0807 -0.0419  0.0380
12379W        W31913  15.344  13.955   2.239  0.1350 -0.3939  0.0981
12380W        W31914  15.061  12.990   0.843  0.0949  0.0274 -0.1294
12381W        W31915   7.646  12.500   1.036 -0.0596  0.2375 -0.0599
12382W        W31916  18.471   5.033  13.848 -0.0567  0.1867  0.2559
12383W        W31917   9.753  18.491   0.215  0.2104 -0.0245  0.1748
12384W        W31918   6.024  14.706  13.213  0.2323 -0.0249  0.2354
12385W        W31919   3.313  16.898   9.311 -0.1805 -0.1297  0.1217
12386W        W31920  12.741   0.978   9.837 -0.2480 -0.1862  0.3393
12387W        W31921   2.348   2.826   1.086  0.0553  0.1886 -0.1724
12388W        W31922   7.881   1.404   0.718  0.0597 -0.2624  0.1367
12389W        W31923   8.171   2.639  13.373 -0.1966  0.0887  0.0035
12390W        W31924   3.319   4.773  12.240  0.2014 -0.2826 -0.0991
12391W        W31925  13.813  15.524  12.708 -0.1328  0.1604 -0.2697
12392W        W31926   6.357  19.032   3.041 -0.3906  0.2005  0.0855
12393W        W31927   7.871  15.006   2.534  0.0704 -0.1143 -0.3107
12394W        W31928   9.346   6.327  11.246 -0.2521  0.2330 -0.2327
12395W        W31929   4.482   1.682   3.208  0.0418 -0.1935 -0.1205
12396W        W31930  12.842   0.577   0.021 -0.0193  0.2090  0.0572
12397W        W31931  11.171  11.176   1.780  0.1713 -0.1129 -0.1434
12398W        W31932   1.411  13.282   3.454  0.0485 -0.0969  0.1688
12399W        W31933  17.146  13.419   2.697  0.0278  0.1427 -0.1380
12400W        W31934  11.279  15.002  13.180 -0.1240  0.1539  0.5249
12401W        W31935  15.965  11.990   4.538  0.2413 -0.0454  0.2934
12402W        W31936  12.671   7.092   3.154 -0.0844 -0.1670  0.1834
12403W        W31937  10.272   0.724  13.544  0.0936  0.1597 -0.3346
12404W        W31938  10.282  13.711   2.103 -0.2555  0.1892  0.0506
12405W        W31939   9.678  19.363   2.437 -0.2285 -0.0889 -0.0962
12406W        W31940  18.552  11.445   3.342 -0.2769 -0.2639 -0.2901
12407W        W31941  10.296  16.643  12.146  0.0782  0.1306  0.0256
12408W        W31942   2.384   5.905   0.692  0.1841  0.0197 -0.1008
12409W        W31943   8.137   2.275  11.426 -0.2432 -0.1620 -0.0898
12410W        W31944   9.440  18.034  11.666 -0.0324 -0.2902 -0.0201
12411W        W31945   7.035   2.799  12.265  0.2728  0.1972  0.2122
12412W        W31946  14.854   6.909   0.308  0.2533  0.0785  0.0323
12413W        W31947  14.502   0.212  10.120 -0.0856  0.1988 -0.0409
12414W        W31948   1.062   0.382   0.948  0.1025  0.1156  0.1085
12415W        W31949  16.651  18.225  14.226 -0.3746 -0.1209 -0.0907
12416W        W31950  19.254  14.570  12.951  0.2495  0.2528  0.0598
12417W        W31951   4.381  17.567   0.199  0.1913 -0.0897  0.0137
12418W        W31952   7.981   2.980  13.770  0.0948  0.1756  0.1437
12419W        W31953  12.361   8.315   0.774 -0.3399 -0.2637  0.0455
12420W        W31954   4.973  18.139  12.870  0.0117  0.0225  0.0238
12421W        W31955  13.485   7.311  12.722 -0.1096  0.0646  0.0783
12422W        W31956  17.333   7.392   3.227  0.2951  0.0131 -0.2301
12423W        W31957   9.558   7.152   1.702  0.0684 -0.0063 -0.1068
12424W        W31958  17.691  14.353  11.031  0.0850  0.1890  0.0627
12425W        W31959  16.429  18.426  11.923 -0.2052  0.0733 -0.3923
12426W        W31960   7.845  13.184  11.877 -0.0143 -0.1821 -0.1377
12427W        W31961  14.124  15.884  11.856 -0.3326 -0.3264  0.0039
12428W        W31962  15.037  16.813  10.894 -0.1396  0.1044 -0.0673
12429W        W31963   7.634   4.579  12.444  0.0031  0.0963  0.0160
12430W        W31964   7.785  13.726   3.431  0.0325 -0.1044 -0.1624
12431W        W31965   0.370  11.354  10.929  0.0843 -0.0620 -0.0724
12432W        W31966   4.812   6.125  12.829  0.2035 -0.2279 -0.0199
12433W        W31967   7.714  15.895  10.974 -0.3911 -0.2919 -0.0494
12434W        W31968   6.386  18.246  11.833  0.0343  0.0170  0.0318
12435W        W31969  15.008   5.231   2.065 -0.0779 -0.3745  0.0613
12436W        W31970   1.476   3.360  14.092  0.1049  0.1535 -0.1601
12437W        W31971   3.574   9.263  11.853 -0.1366  0.0822 -0.1161
12438W        W31972  13.428  11.559   3.098  0.0408 -0.2244 -0.4464
12439W        W31973  16.620   2.699   3.830 -0.1380 -0.0628  0.0649
12440W        W31974   0.570  16.041  12.691 -0.1010  0.2779 -0.0791
12441W        W31975  13.406   2.315   2.242 -0.0620 -0.0378  0.0988
12442W        W31976  15.417   9.836  11.062  0.0830 -0.2579 -0.2388
12443W        W31977   6.685  18.182   0.171  0.1670 -0.0818 -0.1552
12444W        W31978  17.033  15.104   3.513 -0.0891  0.0706 -0.0728
12445W        W31979  10.349  15.013   1.093 -0.2410  0.0277 -0.1397
12446W        W31980  13.876   0.268   1.997 -0.0614 -0.1981 -0.4186
12447W        W31981  18.597   3.781   9.966 -0.3533  0.1818  0.1512
12448W        W31982   9.124   1.487  10.858  0.0289  0.0698 -0.1367
12449W        W31983  10.629   9.200  13.490  0.1269 -0.0736 -0.1148
12450W        W31984   5.218  13.687   0.673  0.1117  0.0155 -0.2897
12451W        W31985  18.653  18.468   4.710 -0.2866  0.1806  0.0730
12452W        W31986   6.578   1.963  12.626 -0.1709  0.1391  0.3093
12453W        W31987   4.924   7.769  11.071  0.0021  0.1210 -0.0641
12454W        W31988  10.091   3.596  11.603 -0.0013 -0.1702 -0.2572
12455W        W31989   4.299   4.495   0.352 -0.1377 -0.3208  0.0168
12456W        W31990   6.502   0.562   0.140  0.3108  0.1172 -0.0394
12457W        W31991  10.837   2.415  12.743 -0.2223  0.0092  0.1264
12458W        W31992  12.935  18.160  13.643 -0.1463 -0.1683  0.2554
12459W        W31993   6.975   0.574  10.755  0.1682 -0.0609 -0.2329
12460W        W31994  14.896  14.741   0.215  0.1986 -0.2373 -0.0588
12461W        W31995  11.534   7.041  14.094  0.0739 -0.0740  0.3438
12462W        W31996  10.615  11.295   2.253  0.3270 -0.2511  0.1810
12463W        W31997  13.914  12.154   1.618 -0.2280 -0.0362 -0.2159
12464W        W31998   9.103  15.875   4.993  0.2803  0.0802  0.0496
12465W        W31999  10.262   5.496  10.428 -0.0540 -0.1545 -0.3546
12466W        W32000  13.306  11.149   1.031  0.3736  0.0813 -0.0261
12467W        W32001   0.216  14.883  11.574  0.0024 -0.0937  0.1466
12468W        W32002   7.621   6.674  13.026 -0.1047 -0.4484 -0.1034
12469W        W32003   3.383   5.056   2.969 -0.2218 -0.5162  0.2203
12470W        W32004  14.786   3.840  11.753  0.4195  0.0423 -0.0971
12471W        W32005   4.616   3.936  11.801  0.0629 -0.0040 -0.1316
12472W        W32006   8.659  12.514   3.694 -0.1285 -0.5724  0.1397
12473W        W32007   2.787   4.768  12.180 -0.2329  0.2190  0.2503
12474W        W32008  17.273  11.490  12.435  0.2200  0.3641  0.0412
12475W        W32009  18.848  15.999  10.707  0.1475  0.1443  0.1718
12476W        W32010   2.418   4.478   3.281 -0.0742  0.2217 -0.1570
12477W        W32011   4.218  14.226  13.897 -0.0259  0.3072 -0.0930
12478W        W32012  19.340   1.161  13.490 -0.0282  0.1764 -0.0614
12479W        W32013  15.336  15.985  11.114  0.0445  0.1897  0.2234
12480W        W32014  10.046   8.209   1.030 -0.2192  0.2717 -0.2418
12481W        W32015  16.382  10.830   1.612  0.1628 -0.4127  0.0406
12482W        W32016  14.675   5.496  12.037  0.0411  0.1457  0.0091
12483W        W32017  13.662  11.370   3.473 -0.0934 -0.2051  0.0214
12484W        W32018   9.179  19.515   1.593  0.1597  0.2415  0.3752
12485W        W32019   1.400  10.776  12.861 -0.3340  0.2847  0.0874
12486W        W32020   0.921   0.991  11.980 -0.1218 -0.1349  0.0783
12487W        W32021  18.400   4.233   0.073 -0.0904 -0.1998  0.0447
12488W        W32022   4.371   3.780   1.662  0.1594 -0.1601 -0.3960
12489W        W32023  17.096  10.485  10.521  0.2046 -0.5464  0.2277
12490W        W32024  17.050   4.816   0.423  0.3481  0.0334 -0.1485
12491W        W32025   1.786   1.752  13.070 -0.3638 -0.0854  0.2476
12492W        W32026   7.233  14.743   4.235  0.0501  0.2962 -0.1899
12493W        W32027  19.499  12.463   0.094  0.3385  0.2328 -0.0274
12494W        W32028  13.108   9.441   2.597  0.3041 -0.0249 -0.3772
12495W        W32029  14.575  18.750  12.198  0.3022 -0.1067  0.1801
12496W        W32030   4.137  16.316   0.508 -0.0883  0.0020  0.3376
12497W        W32031  17.036   0.185   1.525 -0.0642 -0.1207 -0.0249
12498W        W32032   9.885   9.970  13.128  0.0501 -0.0560 -0.2416
12499W        W32033  19.482   5.006  14.086 -0.1820  0.0538  0.3258
12500W        W32034   9.523   6.289   3.081  0.2065 -0.0158  0.0299
12501W        W32035  14.778  11.798   1.141 -0.1824 -0.2457 -0.1473
12502W        W32036   8.476   6.139   4.152  0.1802  0.0155 -0.1459
12503W        W32037  15.687  15.034   4.986  0.1028 -0.0240 -0.2918
12504W        W32038  11.347   7.504  12.343  0.1683 -0.2498 -0.2084
12505W        W32039   8.325  18.500   0.299 -0.2311 -0.2709 -0.4223
12506W        W32040  11.154   6.628  13.085 -0.0700  0.0522  0.0312
12507W        W32041   9.512   5.438  13.468 -0.0574  0.1849 -0.3567
12508W        W32042   1.330   9.552  12.085  0.0081 -0.2010 -0.2185
12509W        W32043   1.744   9.279  12.060  0.2233  0.1894  0.1173
12510W        W32044  15.164  16.263   9.728 -0.3851 -0.1242 -0.2765
12511W        W32045   3.451  17.057   3.490  0.1313 -0.0930  0.1000
12512W        W32046  14.045  15.326  11.888 -0.2355  0.2116  0.0214
12513W        W32047   2.099  14.121  11.538  0.0416  0.0938 -0.1638
12514W        W32048   0.988   0.495  10.443 -0.0395 -0.2252  0.0225
12515W        W32049   6.992  15.531  10.361  0.3535  0.0319  0.1174
12516W        W32050   3.517   8.688   3.526  0.0844 -0.1341 -0.2215
12517W        W32051  12.980  17.652   0.876 -0.0146 -0.1578  0.2631
12518W        W32052   6.178  10.280  11.346  0.0978 -0.0671  0.2485
12519W        W32053   3.202  16.262  12.571  0.1533  0.2460 -0.0334
12520W        W32054  19.097   0.967   0.844  0.0355 -0.1596 -0.0738
12521W        W32055   0.799  16.638   1.806 -0.0199  0.2094 -0.0055
12522W        W32056   2.725   3.639   3.635 -0.0662 -0.1968 -0.1281
12523W        W32057   6.444  17.210   1.794  0.1091  0.0815  0.0770
12524W        W32058   2.457  18.557  12.247  0.0415  0.0788 -0.4576
12525W        W32059  15.514  14.985  10.394  0.2644 -0.0608 -0.1738
12526W        W32060   0.377  16.242   2.676 -0.0539  0.1004  0.0560
12527W        W32061  15.128  14.090  13.030  0.2578 -0.1152  0.0510
12528W        W32062   6.950  16.192  11.581 -0.5340  0.4279  0.1342
12529W        W32063  13.946  10.287  11.744 -0.0731  0.3228  0.0138
12530W        W32064  13.091   5.381   2.962 -0.1518 -0.0578  0.1278
12531W        W32065  16.978  15.141   0.668  0.0734  0.2348 -0.1033
12532W        W32066  10.204  19.299  13.946 -0.0491  0.2457 -0.0477
12533W        W32067   2.804   0.174  11.042  0.2982  0.0532 -0.0915
12534W        W32068   3.597   6.009   0.762  0.0942  0.1967 -0.0093
12535W        W32069  15.761   6.783  10.995  0.1453 -0.0226  0.0957
12536W        W32070  10.624  12.102   1.685 -0.1958 -0.2844 -0.0936
12537W        W32071   5.922   9.693   3.797  0.1630  0.1854 -0.1354
12538W        W32072  12.614   7.918   3.746 -0.0858 -0.1704  0.1786
12539W        W32073   8.099   8.000  13.530  0.0490  0.1099 -0.0938
12540W        W32074  17.838   0.000  12.566  0.1412  0.0046 -0.5297
12541W        W32075  13.938   6.559  12.930 -0.1892 -0.1843  0.0408
12542W        W32076   4.291  19.368   1.464  0.2790 -0.0129 -0.1906
12543W        W32077  11.487   9.459   2.781 -0.1620  0.3069  0.0905
12544W        W32078  14.722  12.674  10.582  0.1987  0.1128  0.2465
12545W        W32079   1.674   4.612   0.822  0.1115 -0.1816 -0.1061
12546W        W32080  19.480   0.295   3.060  0.2776  0.1010  0.1153
12547W        W32081   9.113   4.677  10.312 -0.1336  0.0907  0.0808
12548W        W32082   2.419   4.987   0.543 -0.0164  0.1127  0.0874
12549W        W32083  11.418   5.558  12.851 -0.0204  0.2243 -0.1114
12550W        W32084  12.361   5.400  10.519  0.0615 -0.0420 -0.1572
12551W        W32085  13.931  17.324  10.520 -0.3147 -0.0682  0.2610
12552W        W32086   8.345  16.849  13.464  0.0749  0.3249 -0.3080
12553W        W32087  14.592  16.014   2.235 -0.0116  0.1083 -0.0245
12554W        W32088   0.262  17.726  10.512 -0.1405  0.0345 -0.2454
12555W        W32089   5.600   6.464   2.671 -0.1388  0.1524 -0.3631
12556W        W32090  15.633  19.463  10.878 -0.3930 -0.0506  0.4571
12557W        W32091   1.691  17.563  10.776 -0.1438  0.0588  0.1809
12558W        W32092   6.152  15.697   1.179  0.1418 -0.2028 -0.1075
12559W        W32093   8.632   5.393   4.492  0.1005  0.2924 -0.0059
12560W        W32094  13.076  17.759  11.588 -0.0856 -0.0043 -0.0488
12561W        W32095   9.812   7.621   2.411  0.2243 -0.2880 -0.0748
12562W        W32096  17.737   3.816  13.919 -0.2877 -0.4242  0.1206
12563W        W32097  11.753   5.359   2.543  0.4144  0.3119  0.4365
12564W        W32098   8.121  16.027   1.704 -0.0794  0.1841  0.3186
12565W        W32099   0.756  17.705  13.820  0.0302 -0.1593  0.1494
12566W        W32100   3.348   0.862   0.409  0.3658 -0.2047  0.3275
12567W        W32101  19.218   1.505   3.848  0.2729 -0.3551 -0.2423
12568W        W32102  13.894  18.881  10.540  0.1454 -0.0623  0.3626
12569W        W32103  17.639   7.676  13.884 -0.0853  0.0712  0.0358
12570W        W32104  13.380  11.182  12.597 -0.1907 -0.1595 -0.1590
12571W        W32105  14.861  13.126  10.765  0.1699  0.0501  0.0091
12572W        W32106   4.139  15.862   0.220  0.0811 -0.3131 -0.0672
12573W        W32107   9.308  10.320  13.762 -0.2103 -0.2394  0.2299
12574W        W32108  14.437   5.275  12.425 -0.4247 -0.3595  0.1963
12575W        W32109   3.031  15.694  13.941 -0.0476 -0.2912  0.0657
12576W        W32110   6.738  12.288   0.658  0.0167 -0.2451 -0.1433
12577W        W32111  13.572   0.040  11.745  0.1645  0.1125  0.0265
12578W        W32112  13.590   2.266   3.359  0.2554 -0.2160  0.1153
12579W        W32113   2.993  18.395   3.130  0.2638 -0.2437  0.1915
12580W        W32114   0.971   3.546  13.895 -0.3974 -0.1460 -0.0360
12581W        W32115  13.571  15.091   2.762  0.0228 -0.0372  0.3298
12582W        W32116   2.867   6.595   2.336  0.3226  0.0364  0.3473
12583W        W32117   3.552   0.035   1.917  0.5015  0.1194  0.0913
12584W        W32118  12.602  14.690  13.864  0.0476  0.0788 -0.0756
12585W        W32119  10.278  10.672  12.904 -0.1476  0.0722  0.0945
12586W        W32120   7.183  19.346   3.123 -0.0628 -0.2059  0.3509
12587W        W32121   7.737  14.600   1.397 -0.0933  0.1130 -0.0745
12588W        W32122   2.711  16.077  12.600  0.3430  0.2023  0.1269
12589W        W32123  16.409  17.285  12.569  0.0107  0.1849  0.1863
12590W        W32124  15.981   9.515   2.847 -0.2934 -0.1392  0.0056
12591W        W32125   4.604  14.970  13.139 -0.1213 -0.2964 -0.2645
12592W        W32126  18.662   9.981  11.336  0.2071  0.1033 -0.0194
12593W        W32127  18.565   1.744   9.372 -0.1572 -0.0505  0.1263
12594W        W32128   3.506  15.216   0.414 -0.0458  0.0377  0.0913
12595W        W32129  14.333   9.656   2.548  0.0123 -0.1316 -0.1201
12596W        W32130   8.009   4.793   1.603  0.1497 -0.0904 -0.0083
12597W        W32131  18.597  14.994  11.224  0.0716 -0.1380 -0.1717
12598W        W32132  14.593  15.990   3.597 -0.2465 -0.0236 -0.0215
12599W        W32133   0.955  14.067   1.274  0.1376 -0.2911 -0.1394
12600W        W32134  10.616   3.049   0.081  0.2545 -0.3280 -0.0819
12601W        W32135   4.066  13.879   0.611 -0.2041 -0.0565  0.4193
12602W        W32136  14.406  16.440  11.745 -0.1277 -0.1199 -0.0528
12603W        W32137  15.397   8.176  13.937  0.0997  0.1596  0.0305
12604W        W32138  17.635   9.195   0.710 -0.1194 -0.2488 -0.0723
12605W        W32139   7.600  14.699  11.483  0.2171  0.2812  0.2213
12606W        W32140   2.373  17.600  12.705  0.0812  0.1235  0.3075
12607W        W32141  13.311  10.000  11.244  0.0436 -0.0679  0.2469
12608W        W32142  17.920  17.252   2.694  0.3539  0.1747 -0.1714
12609W        W32143  12.763   1.958  13.249 -0.0008 -0.1009 -0.1398
12610W        W32144  18.670   4.904   4.283 -0.0049  0.0445  0.0955
12611W        W32145   7.400   3.345   2.767  0.4233 -0.0173 -0.1491
12612W        W32146   0.054   2.266  13.353 -0.0304  0.1537 -0.0778
12613W        W32147   6.894   3.914   0.848 -0.3098  0.1260  0.2706
12614W        W32148   6.208  18.788  11.740 -0.0071 -0.2457  0.0427
12615W        W32149  16.542  11.152  11.082 -0.2583 -0.0973 -0.1901
12616W        W32150   6.974   5.086   3.628  0.2005 -0.1824  0.0821
12617W        W32151  10.030  14.922   2.409 -0.0578  0.1361  0.0787
12618W        W32152   2.119   4.802  10.756  0.1027  0.3886  0.1354
12619W        W32153  17.873   9.878  12.286 -0.0537  0.0365  0.1031
12620W        W32154   4.618  17.760  14.194  0.0549  0.1516  0.1974
12621W        W32155   1.386  15.293  11.144  0.2168  0.2567 -0.4540
12622W        W32156  16.718  17.941   3.081  0.1199 -0.1439 -0.1102
12623W        W32157   2.460   7.824   4.192  0.0211  0.1923 -0.1960
12624W        W32158   9.880   5.765   0.713 -0.0244  0.0094 -0.2769
12625W        W32159   5.531   0.174   0.942  0.2282  0.1394  0.0634
12626W        W32160   6.957  19.398   4.500  0.1946 -0.1163 -0.0159
12627W        W32161  13.663   3.712  11.603  0.0584  0.0109  0.2235
12628W        W32162   9.937   7.324  13.361 -0.1731 -0.1931  0.0683
12629W        W32163  16.091   1.234   2.381 -0.1112  0.0817  0.1028
12630W        W32164   8.137  11.838   1.649  0.3373 -0.1781 -0.2710
12631W        W32165  14.674   6.968  12.043 -0.0127  0.0705  0.0709
12632W        W32166  11.010   6.802  11.565  0.2967  0.2587  0.0978
12633W        W32167  10.093  15.253  12.790  0.0246 -0.0832  0.0798
12634W        W32168  13.373  11.712  12.716  0.4807  0.1137  0.1471
12635W        W32169   5.832   0.380  12.085  0.1330 -0.0438  0.0142
12636W        W32170  11.816   9.884   1.128 -0.0480 -0.4055  0.2229
12637W        W32171  17.689  11.732   3.463 -0.1211 -0.1136 -0.2183
12638W        W32172  10.906   1.424   1.574  0.0454  0.3261  0.2878
12639W        W32173   8.760   6.452  13.170 -0.1354  0.1550 -0.4156
12640W        W32174   3.384  16.733  12.528  0.1405 -0.0397  0.3149
12641W        W32175  14.627  12.076  12.549 -0.0854 -0.0307 -0.0168
12642W        W32176   5.028   7.722   3.717  0.0177 -0.0232 -0.2869
12643W        W32177   0.020   8.682   4.061 -0.3138  0.1103  0.2787
12644W        W32178   7.153  18.989   0.281 -0.2231  0.0918 -0.1654
12645W        W32179  19.104   0.543  12.112  0.0860 -0.1283  0.1753
12646W        W32180   5.933   5.866   3.586  0.1643  0.0302 -0.1916
12647W        W32181   0.576   9.350  12.782 -0.0001  0.2178 -0.0984
12648W        W32182  18.613   6.825   3.940  0.1465  0.0710  0.1720
12649W        W32183   5.964  11.932  11.877 -0.2836  0.0077 -0.3376
12650W        W32184  14.299   3.190   9.982 -0.3061  0.1327 -0.0664
12651W        W32185  10.836  13.753   3.864 -0.0555  0.3386 -0.2692
12652W        W32186   5.149  16.751   0.543 -0.0586 -0.1157 -0.0019
12653W        W32187   0.564  16.480  13.937 -0.0725  0.0713  0.1909
12654W        W32188   5.842   8.970  12.778  0.2531 -0.1953  0.1239
12655W        W32189  16.976   1.092  10.106 -0.0404  0.1972 -0.3125
12656W        W32190   5.247   7.738  12.433 -0.1413  0.0496 -0.3102
12657W        W32191  14.386  17.110  14.273  0.0648 -0.2431  0.2506
12658W        W32192  10.311   8.256   1.445  0.2321 -0.1502 -0.2269
12659W        W32193   0.159   0.658   1.778  0.0582  0.0523  0.2593
12660W        W32194  17.534  10.541   0.880  0.1393  0.2109  0.3931
12661W        W32195   3.317   3.432  12.643  0.0888 -0.2813  0.1620
12662W        W32196  16.558  11.446  11.478  0.0020  0.0637 -0.3718
12663W        W32197  10.084   0.336   0.284  0.2774  0.0180 -0.1006
12664W        W32198   3.503  14.815   2.828 -0.3973 -0.0700  0.1325
12665W        W32199   0.510   9.537  13.967 -0.1255 -0.0975 -0.4131
12666W        W32200   2.212   0.237  14.097 -0.0918 -0.1550  0.1925
12667W        W32201   1.893   0.722   2.677  0.0314  0.1010  0.0910
12668W        W32202  10.280   1.542  12.328 -0.0519  0.0713  0.1724
12669W        W32203  17.019  19.031  11.407  0.0285  0.2089 -0.0782
12670W        W32204  11.850   2.183  11.309  0.1146  0.0769 -0.0619
12671W        W32205   9.205  17.507   1.698  0.3253 -0.0519 -0.1169
12672W        W32206  12.215   2.228   2.483 -0.1796 -0.2653 -0.0921
12673W        W32207   9.013  18.586  12.454 -0.0422 -0.1217 -0.2353
12674W        W32208  14.123  12.188  11.362 -0.1482 -0.0714  0.1524
12675W        W32209  17.607   8.040   4.408  0.0752  0.2812  0.1606
12676W        W32210  12.464  19.143  13.434 -0.1459  0.0261  0.2607
12677W        W32211   8.777  12.662  10.672 -0.0892  0.2061  0.3623
12678W        W32212  14.352   0.736  11.082  0.1297  0.0957 -0.3119
12679W        W32213  16.829  15.382   2.244 -0.0471  0.1862 -0.0639
12680W        W32214  15.225   0.671   0.235 -0.3868  0.0748 -0.2336
12681W        W32215  13.226   2.327  13.961 -0.3210 -0.5215 -0.1775
12682W        W32216  11.269  12.931  12.516 -0.1368 -0.2170 -0.0929
12683W        W32217   6.132  15.145   3.290  0.1398  0.0118  0.0834
12684W        W32218   0.921   5.957  14.206 -0.1459  0.1330 -0.0089
12685W        W32219  14.798   2.253  13.698 -0.1719  0.0370 -0.0537
12686W        W32220   8.395  10.997   1.028  0.0008  0.2566 -0.1195
12687W        W32221   2.897  14.920   4.287 -0.3604 -0.0782 -0.0204
12688W        W32222   9.457  17.816  11.189 -0.2666  0.1412  0.1454
12689W        W32223  17.086   7.717   0.711 -0.1917 -0.3672  0.1284
12690W        W32224   0.143  12.407   2.781  0.0516  0.0059 -0.0948
12691W        W32225  10.198  18.370   2.198  0.0016 -0.2087 -0.1578
12692W        W32226  18.476  15.936  12.983 -0.0499  0.1792 -0.0086
12693W        W32227   9.461   6.846   1.269  0.1184  0.0664  0.1584
12694W        W32228   5.534   9.499   1.605 -0.0900  0.1230 -0.1936
12695W        W32229  14.417   8.390   0.285 -0.1373 -0.3003  0.3956
12696W        W32230   0.017   1.072   3.103 -0.1734  0.3875  0.1447
12697W        W32231   6.320  15.028   2.197  0.0398 -0.0858 -0.0411
12698W        W32232   7.767  12.890   0.655  0.2969 -0.2383 -0.1604
12699W        W32233  17.265   3.859   0.060 -0.3007  0.1191  0.1132
12700W        W32234   9.198   1.380   0.720 -0.0172 -0.0308 -0.3373
12701W        W32235   7.654  16.092  13.659 -0.0539  0.0467  0.1135
12702W        W32236  13.117   5.872   0.702  0.1616 -0.1463  0.0594
12703W        W32237  10.918   8.708  13.607 -0.3986 -0.2027 -0.0889
12704W        W32238  19.266   0.142   1.224  0.0614 -0.3087 -0.0139
12705W        W32239   0.491  14.192  13.092 -0.1728  0.4817  0.2720
12706W        W32240  12.375   3.975  12.072  0.1521  0.1888 -0.1229
12707W        W32241   4.138   6.360   2.518  0.0100 -0.1886 -0.0985
12708W        W32242  17.099   8.417  11.641 -0.1041 -0.0814 -0.2637
12709W        W32243   3.132   0.709  10.370 -0.1974 -0.1476 -0.2845
12710W        W32244  18.967   3.641  13.399  0.0195  0.0350 -0.3503
12711W        W32245  19.076   3.279  12.298 -0.1805 -0.0554 -0.3119
12712W        W32246   3.853   3.428   2.861 -0.1516 -0.2276  0.0682
12713W        W32247  11.830   2.004   2.257 -0.0402 -0.1772  0.0219
12714W        W32248   3.925  17.253  10.357 -0.0305 -0.1782 -0.2213
12715W        W32249  17.227  15.935  11.488 -0.0871  0.1246  0.0378
12716W        W32250   8.679   2.437   0.361  0.1919  0.0772  0.1423
12717W        W32251   0.555  17.195  13.260 -0.0630 -0.3904 -0.2767
12718W        W32252  10.537  17.276  11.618 -0.0408 -0.2061  0.1287
12719W        W32253  18.862  16.663   1.751 -0.0642 -0.1943 -0.3092
12720W        W32254  10.834  13.653   0.330  0.0772 -0.0997 -0.2649
12721W        W32255   6.183   4.802   2.638 -0.2170  0.1119  0.5420
12722W        W32256  11.058  14.610   1.525 -0.1350  0.0669  0.1016
12723W        W32257   9.346  15.579   1.719  0.2255 -0.3621  0.0403
12724W        W32258   9.227  19.420  12.710  0.0577 -0.0001 -0.3836
12725W        W32259   8.708   7.246   0.234  0.1303  0.4155  0.3124
12726W        W32260   2.928   2.679  13.657  0.0135  0.1283  0.1778
12727W        W32261   3.594  13.351  12.156  0.0500 -0.1019 -0.0009
12728W        W32262   3.358   3.844  13.485  0.4281 -0.1558  0.1804
12729W        W32263   9.857   7.507  13.927 -0.2171  0.1787 -0.0906
12730W        W32264   1.415  13.574  13.725 -0.1104  0.2249  0.2104
12731W        W32265   6.728  15.653  14.068  0.1787  0.0861  0.2326
12732W        W32266  17.036   1.787  13.703  0.0919  0.1159 -0.1221
12733W        W32267   8.210   0.291   2.480  0.2584 -0.0352  0.4824
12734W        W32268  14.377   3.465   0.831  0.0195  0.2328 -0.0752
12735W        W32269  13.816   6.797   0.412 -0.0402 -0.0079  0.0057
12736W        W32270  15.868   2.797   3.162  0.1291  0.1878  0.1809
12737W        W32271  13.749   2.854   0.309 -0.0768 -0.0034  0.0303
12738W        W32272   8.432  17.972   1.637 -0.2262  0.1807 -0.2213
12739W        W32273  19.276   5.387   1.376 -0.1540  0.4471  0.0153
12740W        W32274   3.905   5.484   1.011 -0.1339  0.2139  0.4017
12741W        W32275   7.246   0.728  12.616  0.0539  0.0864  0.2187
12742W        W32276   4.263   4.765  12.903 -0.0455  0.1598  0.0681
12743W        W32277  17.759   5.415   0.383  0.2352  0.1501  0.2395
12744W        W32278   9.734   0.648  14.348  0.2274 -0.0091  0.2589
12745W        W32279  10.386  16.666   0.554 -0.1286 -0.0890 -0.2887
12746W        W32280   4.708   0.210   1.518  0.0807  0.0029 -0.0425
12747W        W32281   6.409  17.294   3.549  0.3475  0.2008  0.2295
12748W        W32282   0.391   5.471  13.599 -0.0928 -0.2877 -0.1650
12749W        W32283   1.680   6.665  12.833  0.3111 -0.2044 -0.0745
12750W        W32284  16.778   9.271   0.996  0.0379 -0.0095  0.0946
12751W        W32285   9.698  17.393   1.225  0.0873  0.2106  0.1506
12752W        W32286  11.818  12.590  10.623  0.2198 -0.0342 -0.0722
12753W        W32287   6.299  15.218   1.226  0.0990  0.1239  0.1265
12754W        W32288  11.064   2.603  10.700 -0.1687  0.0675 -0.0669
12755W        W32289   7.364   6.840  10.960 -0.1370  0.0059 -0.3593
12756W        W32290  12.106   0.444  11.702  0.1899 -0.1125 -0.2684
12757W        W32291   2.047   7.340   4.423  0.1023 -0.1647 -0.0669
12758W        W32292  12.718  15.193  11.959 -0.0290 -0.0176 -0.1505
12759W        W32293  18.453  18.446  10.379  0.1624  0.0891  0.3589
12760W        W32294  11.071  12.129   2.962 -0.0949 -0.0503  0.2603
12761W        W32295   1.465  16.102   2.396  0.0865 -0.0628  0.2594
12762W        W32296  16.917  17.703  12.146  0.0611  0.1556  0.1824
12763W        W32297   0.211   4.519  13.948 -0.3688  0.0048 -0.2071
12764W        W32298   9.247  16.828  11.026 -0.1994  0.0418 -0.0190
12765W        W32299   7.910   5.438  12.789 -0.0113  0.1427  0.1669
12766W        W32300  12.915  15.853   3.847  0.1465 -0.2539 -0.0193
12767W        W32301  10.006  15.566   4.094 -0.0456  0.1886 -0.0040
12768W        W32302   4.742   5.083  12.298  0.3752  0.3670 -0.1990
12769W        W32303  16.183   6.876   2.942 -0.4121 -0.2994  0.1918
12770W        W32304  18.046   0.098  11.833  0.0028  0.0168  0.1468
12771W        W32305  16.570   3.777  11.436 -0.0459 -0.1198  0.0018
12772W        W32306   0.921  15.810  10.052 -0.1610  0.1935 -0.3372
12773W        W32307  15.625   9.009  10.666 -0.0480  0.0767 -0.0328
12774W        W32308  12.456  13.113   2.680 -0.3496 -0.1430  0.0650
12775W        W32309   1.170   7.781  10.394 -0.0614 -0.2021  0.0013
12776W        W32310   7.320  16.205  12.169  0.0076 -0.0354  0.0539
12777W        W32311  17.746   8.520   3.462  0.0922 -0.0867  0.0399
12778W        W32312   6.870   9.255   3.991 -0.1219  0.0115 -0.0077
12779W        W32313   2.447   2.244   2.308 -0.2141 -0.0169  0.0157
12780W        W32314   4.674   2.149  12.773 -0.3448 -0.0341 -0.0358
12781W        W32315   0.348   2.109  11.002 -0.2009  0.0757 -0.2261
12782W        W32316   6.886  13.109  11.347  0.0630  0.2692 -0.0135
12783W        W32317  17.895  14.187  10.608 -0.3035  0.2388 -0.1026
12784W        W32318   4.225   8.280   2.354  0.5077  0.3407 -0.1418
12785W        W32319   0.993  17.855   2.017 -0.0512  0.1749 -0.1289
12786W        W32320  17.704  16.784   1.521 -0.1293  0.2260 -0.2210
12787W        W32321  14.290  19.514   0.759 -0.2189 -0.3049  0.3573
12788W        W32322   1.193   6.632   4.153 -0.1129 -0.1935 -0.1043
12789W        W32323   2.345   1.019  13.185 -0.0146  0.3649  0.0186
12790W        W32324   6.432   2.476   0.456  0.0920  0.2383 -0.3355
12791W        W32325  16.996   8.978  11.590  0.1217 -0.4320  0.1012
12792W        W32326   5.627   3.035  12.594  0.2707  0.1061 -0.4158
12793W        W32327  15.534  14.535  13.065  0.0255 -0.0849 -0.1469
12794W        W32328  15.425   3.402  11.213 -0.0274  0.2312 -0.1658
12795W        W32329  17.805   2.627   3.655 -0.1966 -0.2652  0.2280
12796W        W32330  14.252  15.616  14.115 -0.0888 -0.0746 -0.0209
12797W        W32331  17.911  10.225   1.546  0.1595  0.3178 -0.0391
12798W        W32332   9.162   9.670  11.529  0.2109  0.1915 -0.1866
12799W        W32333   0.175   1.937   5.121 -0.0031 -0.1037 -0.1344
12800W        W32334   8.476  17.450   0.821 -0.1034 -0.1278 -0.0776
12801W        W32335  11.941  17.062   0.662  0.0883  0.3027 -0.0982
12802W        W32336  16.758   5.394  12.923  0.0918 -0.0604 -0.0693
12803W        W32337   7.828   8.030   2.462  0.2500  0.2253 -0.0939
12804W        W32338   1.916   5.089  11.781 -0.3066  0.3167 -0.2487
12805W        W32339   3.255   0.134   3.261  0.2006 -0.0740 -0.1428
12806W        W32340  16.560  11.387   9.831 -0.1599  0.0868 -0.1756
12807W        W32341   6.728   1.158  10.101  0.2572 -0.0405 -0.1863
12808W        W32342   7.760  17.414  12.408 -0.1791  0.1174 -0.2905
12809W        W32343  10.701   9.679   0.127 -0.3026 -0.2424  0.2890
12810W        W32344   8.510   6.799  11.584  0.1705 -0.0631 -0.0214
12811W        W32345   8.793  15.564   3.540 -0.0629  0.0896 -0.0247
12812W        W32346  15.871  11.829   0.602 -0.1239 -0.1928  0.1300
12813W        W32347   9.953  18.769   1.888  0.3901 -0.0341 -0.2258
12814W        W32348  13.411   9.793   3.892 -0.0102 -0.3399  0.0990
12815W        W32349   8.232   8.874  12.283 -0.1330  0.1877 -0.0425
12816W        W32350   5.988  12.619  10.492  0.0751 -0.0351  0.0030
12817W        W32351   7.695   6.048  14.137 -0.0273 -0.1763  0.2892
12818W        W32352  10.237   4.632  12.156  0.0039 -0.1710  0.1335
12819W        W32353  11.661   9.689   1.704  0.2174  0.2549  0.0559
12820W        W32354   2.719   3.781   2.232  0.2756  0.0402 -0.2732
12821W        W32355   0.010   3.493  10.756 -0.0188 -0.0407 -0.0365
12822W        W32356  10.244  11.626   1.853  0.1269 -0.0721  0.3435
12823W        W32357  13.621  17.680   0.162  0.0624  0.0448 -0.0971
12824W        W32358   2.801   0.182  13.422 -0.0437  0.1044  0.1723
12825W        W32359  12.711  10.957  10.494 -0.0977 -0.1092 -0.0953
12826W        W32360  10.966   0.507  14.235  0.3803 -0.5325  0.0482
12827W        W32361  16.709   7.674   3.779  0.1099  0.2489 -0.0186
12828W        W32362   1.523  19.319   1.471  0.0035 -0.1085  0.2036
12829W        W32363  10.113  11.518  13.173  0.0285 -0.1880  0.2319
12830W        W32364   1.731  17.407  13.873  0.1091  0.1170  0.2323
12831W        W32365  12.644  12.159   4.906  0.1767  0.1001 -0.2473
12832W        W32366  10.113  19.230  13.088 -0.2199  0.1454 -0.3191
12833W        W32367   2.119   1.573   2.516 -0.0376  0.4437  0.1673
12834W        W32368   2.364  17.247  11.850  0.0238 -0.0062  0.1852
12835W        W32369  17.181  18.574   2.444  0.1523  0.2897 -0.0060
12836W        W32370   3.647   2.226   2.248 -0.2274  0.0850  0.0263
12837W        W32371   5.026   4.147  10.756  0.2957  0.2551  0.0028
12838W        W32372   6.423   5.741   2.751  0.2070 -0.1701 -0.2185
12839W        W32373   4.456   2.630   1.750  0.1490 -0.2326  0.1849
12840W        W32374  16.588   5.859  11.251 -0.0250  0.0884  0.2647
12841W        W32375   4.139   3.161  13.077  0.0028 -0.1010  0.1428
12842W        W32376   8.427  11.526  12.306  0.0322  0.0087 -0.2529
12843W        W32377  14.732  18.096   0.994 -0.1871  0.0329  0.2042
12844W        W32378   6.942  10.840  11.357  0.2971  0.0846 -0.0396
12845W        W32379  13.869  16.441   3.207  0.1696 -0.1480 -0.0390
12846W        W32380  19.102   9.880   1.467 -0.0452 -0.0475 -0.1895
12847W        W32381   2.023   9.985  12.662 -0.0878 -0.0079  0.1060
12848W        W32382  16.550  12.033  12.064 -0.2630  0.1966 -0.2207
12849W        W32383   6.655  16.735   2.741 -0.4042 -0.0806 -0.2687
12850W        W32384  18.127  11.222  11.463 -0.1664  0.0627  0.0614
12851W        W32385  18.531  15.893  11.820 -0.1019 -0.1808 -0.2406
12852W        W32386  10.273  19.099   1.666 -0.0260 -0.2417  0.1367
12853W        W32387   2.523   6.863  13.386  0.1438 -0.1595  0.2573
12854W        W32388  14.622  11.337  11.746 -0.1872  0.1759 -0.0743
12855W        W32389   1.419  17.823   1.160  0.0597 -0.3260  0.0228
12856W        W32390   9.449   9.016   3.999 -0.1459 -0.2402  0.0466
12857W        W32391  16.838   5.738   0.103  0.1535  0.0287  0.1730
12858W        W32392   9.866  19.008   1.433  0.1279  0.0702 -0.2120
12859W        W32393  11.175  12.198  13.497  0.0564 -0.3608  0.1847
12860W        W32394   0.316  10.704  13.592  0.2323 -0.0380 -0.0068
12861W        W32395  15.531  19.241   1.537 -0.0117 -0.0236 -0.0325
12862W        W32396  18.201   4.267   1.397  0.1335  0.0757 -0.1450
12863W        W32397  18.661   1.805  13.327  0.0490  0.0190  0.1133
12864W        W32398  14.129   3.566  10.302  0.0805  0.1305  0.2976
12865W        W32399   9.731   6.788   3.901 -0.0385 -0.0733  0.2515
12866W        W32400   4.359  11.961   2.691  0.0226 -0.4620  0.0212
12867W        W32401   9.570   1.882  13.945 -0.0508 -0.1471  0.2118
12868W        W32402  13.041  11.430   3.410  0.0492 -0.0534  0.2350
12869W        W32403  18.427  10.959   9.903 -0.0236 -0.2987  0.0828
12870W        W32404   4.770  13.840  14.271 -0.1362 -0.0929 -0.1464
12871W        W32405   5.456  19.514  11.887  0.2152 -0.1720 -0.1255
12872W        W32406   3.254   4.153   1.424  0.3536 -0.2071 -0.0736
12873W        W32407   5.586  19.268   1.858 -0.1396 -0.0608 -0.0503
12874W        W32408  12.458  13.264  12.301 -0.1998 -0.3732  0.0735
12875W        W32409  14.361   2.899  14.063  0.1850  0.0694  0.0181
12876W        W32410  13.792  16.611  13.647  0.0593  0.1549 -0.3261
12877W        W32411  17.274  14.757  12.869 -0.3849 -0.1357 -0.3746
12878W        W32412   1.213  14.593   3.015 -0.1290 -0.2345 -0.1428
12879W        W32413   5.676   8.065  12.528 -0.0724  0.0423  0.0188
12880W        W32414  18.430  14.352   0.924 -0.3155  0.1754  0.1543
12881W        W32415  15.190   1.191  10.966 -0.2787 -0.3175  0.2404
12882W        W32416   7.125  19.048  10.792  0.2149  0.1780 -0.3183
12883W        W32417   2.192   1.884   0.658  0.1625 -0.2187 -0.0582
12884W        W32418   8.195  10.143   1.005  0.1889  0.1878  0.0660
12885W        W32419   2.733   8.238   3.987  0.1637 -0.0628  0.2039
12886W        W32420  10.122  11.741  11.416 -0.0983 -0.0908  0.0935
12887W        W32421   3.385  17.942  10.855 -0.0780  0.1392 -0.0232
12888W        W32422   6.387  10.087   1.142  0.0609  0.1924 -0.0118
12889W        W32423   7.644   3.825   1.769 -0.1179 -0.1882  0.1122
12890W        W32424   4.480  17.043  10.988 -0.1061 -0.2698  0.2412
12891W        W32425  11.044  14.878   0.583  0.3348  0.2390  0.0723
12892W        W32426   8.631  15.916   4.529 -0.0305  0.0257 -0.1841
12893W        W32427   6.760  10.113   2.959 -0.2714  0.0782  0.0286
12894W        W32428   8.397   3.625   0.960  0.0665 -0.3290 -0.0861
12895W        W32429  17.869   6.686   2.285 -0.0035 -0.2935  0.0638
12896W        W32430   0.996   4.045   2.115 -0.1017  0.0051 -0.3042
12897W        W32431  19.205   0.923  11.387 -0.2878 -0.1579  0.1579
12898W        W32432  13.256  14.903   3.741 -0.1581  0.1347  0.3830
12899W        W32433  15.121  13.583  11.014 -0.1837 -0.2118  0.1036
12900W        W32434   9.549   2.992  13.589 -0.3640  0.0608 -0.1173
12901W        W32435   4.773  12.908   2.657  0.1977 -0.1138  0.0909
12902W        W32436  18.298   5.022   4.005 -0.3429 -0.1601  0.2768
12903W        W32437  16.748  11.626   1.213 -0.2236  0.0586  0.0746
12904W        W32438   7.376  18.817  13.767  0.0983  0.0884  0.2080
12905W        W32439   4.513   5.478   2.305  0.5005  0.0663  0.0600
12906W        W32440   3.519   1.993  12.713  0.2733 -0.2721 -0.0212
12907W        W32441  11.570  13.664  11.889  0.0020  0.1768  0.0859
12908W        W32442   4.504   0.764   1.484  0.2692  0.0458  0.1695
12909W        W32443  11.861   6.561   1.692 -0.0629  0.1757  0.2498
12910W        W32444  12.808   3.558   0.245  0.0168 -0.0324 -0.1752
12911W        W32445   6.006  10.112  13.164  0.1555 -0.0923 -0.3247
12912W        W32446   6.342  18.770   4.858  0.1337  0.0695  0.1099
12913W        W32447   2.060   2.471  13.140 -0.2696 -0.0937  0.2684
12914W        W32448  15.019  10.640   9.640  0.1862 -0.1265 -0.1362
12915W        W32449  13.823  15.532   0.681  0.0620 -0.1297 -0.1780
12916W        W32450  17.162  12.836  12.513  0.1991  0.0350  0.1019
12917W        W32451  13.346  13.514  11.845  0.5372 -0.1777  0.1406
12918W        W32452  12.898  16.773  13.730 -0.0716 -0.0861 -0.0436
12919W        W32453  17.051  12.912  10.391 -0.1098  0.4224 -0.1621
12920W        W32454  18.612   3.500  13.006 -0.2053 -0.1402 -0.1006
12921W        W32455  10.041   1.567   2.013  0.1340 -0.1416  0.0155
12922W        W32456  15.335  13.274  12.812  0.2891  0.1154 -0.0381
12923W        W32457   8.370  13.139   1.939 -0.4207 -0.1006 -0.1993
12924W        W32458  14.693   2.813   2.383 -0.3495 -0.0437  0.2554
12925W        W32459  15.651   4.212   5.259  0.1202 -0.0090  0.0860
12926W        W32460   7.200   2.492   1.941 -0.0093 -0.1196  0.0380
12927W        W32461  14.778   3.685   0.648 -0.0365 -0.0986  0.1815
12928W        W32462  16.653  13.984   0.489 -0.0055  0.0474  0.1206
12929W        W32463   1.481  15.484  14.028  0.1757 -0.0430  0.4051
12930W        W32464  12.323  13.834  13.504  0.0860  0.1910  0.3022
12931W        W32465  11.177   2.168   1.896 -0.0482  0.2039 -0.1335
12932W        W32466  17.897  18.046   0.374 -0.1372 -0.0531  0.0414
12933W        W32467  13.197   9.717  13.389 -0.3318 -0.0641 -0.0383
12934W        W32468   6.811   1.819   3.082 -0.0022  0.2027  0.0871
12935W        W32469  12.908  10.259   2.752 -0.0912 -0.1837 -0.0077
12936W        W32470   0.098   0.779   2.321  0.2052  0.1647  0.1750
12937W        W32471   8.341  14.313  11.308  0.3032  0.1655 -0.0967
12938W        W32472  13.041  10.557   1.826 -0.0041  0.1016 -0.0305
12939W        W32473   3.923   2.614  12.078  0.1072 -0.0052  0.0716
12940W        W32474  10.009   3.006   4.848  0.1998 -0.0776 -0.2197
12941W        W32475   1.947   4.908   2.463 -0.0054 -0.0274  0.1083
12942W        W32476   7.664   8.823   1.444 -0.0502  0.1606 -0.1646
12943W        W32477   3.562  15.543  13.043 -0.0032  0.0394  0.2064
12944W        W32478  11.073   0.318  10.477 -0.1037  0.3546 -0.3827
12945W        W32479   9.716  10.458  14.096  0.2025 -0.1795  0.0819
12946W        W32480   0.110  12.145  13.389 -0.2055  0.4484  0.0259
12947W        W32481   5.287   5.803  13.721 -0.1161 -0.0562  0.3238
12948W        W32482  12.613   3.581  10.383 -0.2276  0.2075  0.1955
12949W        W32483   3.416   6.285  11.820  0.1029  0.0549 -0.0541
12950W        W32484   2.450  13.257   3.166 -0.2302 -0.1494  0.0653
12951W        W32485   8.290  12.584   2.209 -0.0575 -0.0077  0.1670
12952W        W32486   7.193  15.153  12.567  0.4177 -0.0159  0.2020
12953W        W32487   5.851   8.235  11.048  0.1303  0.0306  0.0869
12954W        W32488   4.391  19.263   3.881  0.0200  0.3408  0.1481
12955W        W32489  18.954   5.522   3.721  0.0618  0.1425  0.1105
12956W        W32490  17.257   3.738  10.275 -0.1483  0.1069  0.1277
12957W        W32491  16.586  15.137   3.639  0.0491 -0.2876  0.1869
12958W        W32492   5.933  18.205   0.042  0.0354 -0.1461  0.1261
12959W        W32493   3.344   1.694  13.078 -0.0358  0.1033 -0.0902
12960W        W32494  13.881   2.997  12.623 -0.0203  0.1639 -0.2100
12961W        W32495   5.799  12.542   0.849  0.1123  0.0531 -0.1517
12962W        W32496  13.940   8.583   1.488 -0.1579 -0.0331 -0.3378
12963W        W32497   4.309  17.324  14.111 -0.3978 -0.1804  0.0023
12964W        W32498   3.015   4.316  11.447 -0.1681  0.2758  0.2216
12965W        W32499   2.295   2.352  14.115  0.0681 -0.0166  0.2130
12966W        W32500  19.265   6.425   1.769 -0.1791 -0.1189  0.0680
12967W        W32501   3.004   5.836   2.240 -0.1955  0.0306  0.1483
12968W        W32502   2.616   1.862   0.372  0.1436 -0.0720  0.3094
12969W        W32503   6.271   7.643  11.431 -0.0845 -0.1242  0.0726
12970W        W32504   2.554   4.461  11.676  0.1703  0.3089  0.0420
12971W        W32505  17.279  17.016   1.127  0.0832  0.1066  0.1827
12972W        W32506   9.202  14.526   2.658  0.0659 -0.1307  0.0319
12973W        W32507   1.553  18.165   4.326  0.2180  0.4228 -0.2312
12974W        W32508  15.295   9.208   4.861  0.3538  0.0400  0.2006
12975W        W32509   5.925   5.500   2.137 -0.5930 -0.0335  0.2376
12976W        W32510  10.167  17.448  12.530 -0.2727  0.0797  0.1551
12977W        W32511   7.656  19.117   0.238  0.0936 -0.0821  0.2517
12978W        W32512  12.241   8.282  11.023  0.3595 -0.0502 -0.2319
12979W        W32513  15.474   4.250   9.417  0.0047 -0.0595 -0.1146
12980W        W32514   7.635  12.331  11.266  0.0439 -0.1361 -0.1198
12981W        W32515  19.206  15.748  13.602 -0.0041  0.1362 -0.0542
12982W        W32516  17.530   8.811  10.380 -0.0135 -0.0777  0.2351
12983W        W32517  16.978   4.837   3.072  0.2137 -0.1918  0.0111
12984W        W32518   0.186   3.431   1.750 -0.1807 -0.1492  0.1763
12985W        W32519  18.772   4.266   1.534 -0.0559 -0.0188 -0.1759
12986W        W32520   5.605  18.840  11.239  0.2133 -0.1227 -0.0540
12987W        W32521   4.874  14.889   2.750  0.1081  0.0246  0.2398
12988W        W32522   9.764   9.173  10.415  0.1421 -0.2125 -0.0334
12989W        W32523   9.554  11.753   0.709 -0.1787  0.1350  0.0679
12990W        W32524   7.977   0.307  10.498  0.2849  0.0812 -0.0280
12991W        W32525   2.836   1.832   2.078  0.0042 -0.0699  0.3998
12992W        W32526   7.805  19.124   2.064 -0.2353  0.1153 -0.2231
12993W        W32527  13.378  10.436  10.165 -0.0795  0.1528 -0.1592
12994W        W32528   4.476  18.861  13.723 -0.0324  0.1040 -0.0874
12995W        W32529   5.690  11.748  13.652  0.1954  0.0162  0.3248
12996W        W32530   1.492  17.163   3.393  0.0487  0.0659 -0.2841
12997W        W32531   6.820   0.935  12.975 -0.2486  0.0765  0.2956
12998W        W32532  13.573   1.605   0.522  0.4446  0.4580  0.1251
12999W        W32533  14.844  13.028   0.414 -0.2244  0.0711 -0.1097
13000W        W32534   8.620   0.210   0.291  0.1382  0.2059 -0.3731
13001W        W32535   5.356  12.576  13.938  0.2431  0.1194  0.2254
13002W        W32536   4.471   1.624   0.704 -0.0006  0.1641 -0.2022
13003W        W32537  10.262   4.774   1.260  0.1722 -0.0308 -0.1596
13004W        W32538  12.951   3.111  13.298  0.1537  0.2083  0.3508
13005W        W32539   8.610  17.560   3.495 -0.2103 -0.0546 -0.0911
13006W        W32540   5.690  16.692   3.616  0.0234 -0.0817  0.0079
13007W        W32541   5.142  17.048  14.170  0.4486 -0.0271  0.2189
13008W        W32542   4.077   9.354   0.293 -0.2154 -0.3993  0.0856
13009W        W32543  12.269  18.889   0.571  0.1402 -0.0158 -0.3017
13010W        W32544   0.972  10.204  12.028 -0.1447 -0.1657  0.2030
13011W        W32545   6.217  10.524  13.705 -0.2790 -0.0076  0.0335
13012W        W32546   8.639   9.333  11.151  0.0340 -0.1955 -0.0880
13013W        W32547  13.229  12.293   3.177  0.1818 -0.1712 -0.3755
13014W        W32548  19.151   5.160   3.521 -0.3115  0.1154  0.0039
13015W        W32549  15.551  11.467  12.382  0.0442  0.3597  0.0206
13016W        W32550   8.380  17.039  12.362 -0.0095 -0.3139  0.0273
13017W        W32551  19.420   9.588  13.477 -0.0664 -0.0398 -0.0900
13018W        W32552  13.313  12.575  13.739 -0.1365  0.2377  0.0030
13019W        W32553   2.841  17.194   0.281  0.0811 -0.0375 -0.1429
13020W        W32554  14.119  13.311   1.095  0.0867 -0.0974  0.2515
13021W        W32555  11.869   5.428  13.462  0.0057 -0.2925 -0.1094
13022W        W32556  16.638  17.394   0.786 -0.0348 -0.0867 -0.5214
13023W        W32557   8.021  10.784   2.743 -0.0029  0.1449  0.2154
13024W        W32558   0.200   9.134  13.670 -0.0353 -0.1036 -0.2969
13025W        W32559  13.326   6.935   2.149  0.1955 -0.1317  0.0219
13026W        W32560   0.794   4.777   0.378 -0.0892  0.0060 -0.0041
13027W        W32561   8.670  17.053   3.336  0.0985 -0.0558  0.2269
13028W        W32562   7.295   6.918  14.307  0.0631 -0.0251  0.1759
13029W        W32563   4.832  13.886   4.506  0.0372  0.2258  0.2700
13030W        W32564  10.507   2.171   4.865 -0.0994  0.1879  0.2164
13031W        W32565  11.823   1.332  10.966 -0.2538  0.3427  0.1867
13032W        W32566  16.110  15.417  13.523  0.3457  0.2327 -0.1424
13033W        W32567   7.404  16.392  11.003  0.0815  0.2744  0.1868
13034W        W32568   7.295   0.136  14.074  0.2169 -0.2539  0.2609
13035W        W32569  10.341  13.933  12.409  0.2001 -0.0141  0.0149
13036W        W32570  17.092   0.849   2.193  0.4345  0.1661  0.0236
13037W        W32571  16.270  16.908   0.892  0.0306  0.0809  0.0104
13038W        W32572  13.439   4.655   0.135 -0.0771  0.2805  0.2173
13039W        W32573   6.796  19.122   2.750 -0.1662 -0.1192  0.1073
13040W        W32574   9.862  11.951   0.395 -0.4505  0.5026  0.0832
13041W        W32575   7.660   1.757  10.705  0.0687 -0.1867  0.3914
13042W        W32576  12.010   8.654   0.590  0.2239  0.1799 -0.0528
13043W        W32577   2.364   7.009  10.730  0.4054  0.0059  0.4286
13044W        W32578   6.643  16.565  12.387 -0.4840 -0.2081  0.2768
13045W        W32579   6.552  16.036   2.994  0.0425 -0.0894 -0.0014
13046W        W32580  19.312   6.528  10.623 -0.4693 -0.0783  0.0015
13047W        W32581   9.820   1.108   0.778  0.1970  0.1204  0.0362
13048W        W32582   7.600   6.288   0.413 -0.1837  0.3737 -0.1677
13049W        W32583  17.245  12.304   0.857 -0.0105  0.2297  0.0630
13050W        W32584  15.564   6.656   0.387  0.0279 -0.1469 -0.2064
13051W        W32585   6.818  19.025   1.053  0.0112 -0.4329  0.1043
13052W        W32586   2.494  15.211   4.197  0.4255  0.1718  0.3152
13053W        W32587  14.664   4.035   1.609  0.2219  0.1643 -0.2238
13054W        W32588  12.532   4.692  10.022  0.0452  0.0089  0.2609
13055W        W32589  15.892  15.660   3.835  0.4796  0.2396  0.2097
13056W        W32590  16.847   8.861  14.057 -0.4593  0.0363 -0.0625
13057W        W32591   5.333  17.236   2.998 -0.1591 -0.0110  0.1387
13058W        W32592   6.853   8.220  12.195  0.0405 -0.0791  0.1854
13059W        W32593  12.216  10.142   1.105 -0.2078 -0.4182  0.1459
13060W        W32594  15.411   9.383  10.923 -0.1204 -0.0420 -0.3419
13061W        W32595   9.631   6.784  11.297 -0.2134  0.0401  0.0632
13062W        W32596   8.992   9.261  13.648 -0.0926  0.1724  0.0660
13063W        W32597  11.689   1.866  11.905 -0.2212 -0.1419  0.1467
13064W        W32598  12.785  18.785   2.371  0.0061  0.3228  0.3812
13065W        W32599  10.674   3.570  12.744  0.2768 -0.0509 -0.2596
13066W        W32600   9.022   8.470   0.526  0.2482  0.1214 -0.0262
13067W        W32601  14.970   5.687   9.818  0.0165 -0.1060  0.0105
13068W        W32602  15.135   3.593   2.187 -0.0722  0.0130  0.0207
13069W        W32603  14.729   1.052   0.462  0.3675 -0.0759  0.1588
13070W        W32604   3.319   0.866  13.265 -0.1134 -0.0945  0.4236
13071W        W32605  16.183   6.985   0.313 -0.1202  0.0196  0.1573
13072W        W32606  10.726  12.802   3.914 -0.0482  0.1439 -0.0308
13073W        W32607  14.067  16.852  10.087  0.1077  0.1745  0.0133
13074W        W32608  17.765   6.677  14.336 -0.1822  0.0075 -0.1539
13075W        W32609  19.398  16.748  10.478 -0.2003 -0.2061  0.1219
13076W        W32610  15.252   9.527   1.385 -0.0988  0.2246  0.3405
13077W        W32611   2.117  15.160  11.833  0.0794  0.1934 -0.0227
13078W        W32612  11.882   6.474  13.797 -0.4078  0.1155 -0.0933
13079W        W32613  18.675   7.299  10.648 -0.2442 -0.1759  0.0896
13080W        W32614   0.840  16.894  12.396  0.0443  0.1968 -0.0098
13081W        W32615   8.656   0.153   3.345 -0.1620 -0.0963 -0.2899
13082W        W32616   9.207  18.080   2.344 -0.1471 -0.0209  0.0074
13083W        W32617   9.809   2.264   4.375 -0.1185  0.0516  0.1309
13084W        W32618   4.204  11.955  12.283 -0.3392  0.1986 -0.1266
13085W        W32619  18.232   2.447   0.889 -0.3602  0.0988 -0.0357
13086W        W32620  11.785  15.057   3.695 -0.0083 -0.1568  0.0803
13087W        W32621  17.503   6.094   3.081  0.2686  0.3180 -0.1718
13088W        W32622   0.034   9.777   2.859  0.1374  0.4258  0.0799
13089W        W32623   4.987  12.563   2.282 -0.0086 -0.1320 -0.2200
13090W        W32624  12.138  18.062  11.089  0.3454  0.3066  0.1604
13091W        W32625  16.247   4.834   9.826  0.2060 -0.1388 -0.2362
13092W        W32626  12.472  13.484  13.033  0.0299 -0.0843  0.1082
13093W        W32627  16.266   0.373  10.927  0.2583 -0.1341  0.2284
13094W        W32628  10.205   8.233  13.553  0.1797  0.0522 -0.1490
13095W        W32629  14.410   9.734   3.950  0.1710 -0.0531  0.2128
13096W        W32630   1.886   2.626   1.255 -0.1508 -0.1951 -0.0516
13097W        W32631  19.189   2.475   4.697 -0.1019  0.3172  0.0290
13098W        W32632  10.646   1.069  13.649 -0.0000 -0.0590 -0.4068
13099W        W32633  13.273   7.597  13.535 -0.1320 -0.3048 -0.0260
13100W        W32634  15.444   4.954   9.806  0.0184  0.2145 -0.1396
13101W        W32635   4.256  13.882  14.215  0.0888 -0.2855  0.1185
13102W        W32636  16.031   1.330  12.495  0.1594 -0.1079  0.2537
13103W        W32637  17.012  16.605   1.161 -0.0342  0.1626 -0.1640
13104W        W32638   4.713   3.222  12.314  0.1068 -0.0960  0.0374
13105W        W32639  10.928  15.510   1.335  0.1031 -0.2385  0.1148
13106W        W32640   4.347  15.961   3.366  0.1160  0.2207 -0.0917
13107W        W32641  15.758  12.558  13.146 -0.0063  0.0583  0.2517
13108W        W32642   8.260  11.563   2.674 -0.0826  0.4105  0.3394
13109W        W32643  16.287   3.655   0.205 -0.0157 -0.1911  0.4278
13110W        W32644  18.578  13.013   3.382  0.1978 -0.0082 -0.4000
13111W        W32645  13.268  19.348  12.403 -0.1990 -0.1641  0.2043
13112W        W32646  17.538  15.449  14.131 -0.0572  0.0778 -0.2212
13113W        W32647   8.816  16.740   4.344 -0.0850  0.1656  0.1100
13114W        W32648  17.120   1.886  14.240 -0.1104  0.0312 -0.5527
13115W        W32649   1.650  19.504  11.425 -0.0283  0.2322  0.2171
13116W        W32650  17.254  12.391  13.182  0.4689 -0.3250  0.0440
13117W        W32651   9.976  13.492  12.288 -0.1562  0.0368  0.1657
13118W        W32652  13.731   4.101   3.291  0.3164  0.2306 -0.2258
13119W        W32653  19.277   0.662   0.409  0.0375  0.1684 -0.0937
13120W        W32654   5.094  14.716  13.240 -0.1420 -0.1341  0.2517
13121W        W32655   8.365  14.647   3.671 -0.1833  0.0695  0.4495
13122W        W32656   7.492  18.957  11.620 -0.2184  0.2176 -0.0892
13123W        W32657   7.755   2.239  11.084 -0.3330 -0.2639 -0.5130
13124W        W32658  19.022   0.367  13.503  0.1717  0.1115  0.0307
13125W        W32659  14.562   0.618   3.896  0.0145  0.0175  0.1999
13126W        W32660   1.374   0.831  11.594  0.1211  0.0958 -0.1533
13127W        W32661  17.383  15.998   1.650 -0.0416  0.0107 -0.1399
13128W        W32662  12.037  15.929  11.098 -0.0158  0.0138 -0.0630
13129W        W32663   3.793   9.402   0.964 -0.4471  0.0939  0.2567
13130W        W32664   3.448   4.132  14.337 -0.1409 -0.1127  0.2546
13131W        W32665   6.106   9.499   5.803 -0.0469 -0.1162  0.2753
13132W        W32666  14.459  11.786  10.792  0.1438 -0.3217  0.0524
13133W        W32667  16.349   0.264   3.469 -0.1374  0.0939  0.0639
13134W        W32668   9.263   5.731   2.391  0.2639  0.0304  0.0460
13135W        W32669   1.110  16.457   2.270 -0.1148 -0.2258  0.0758
13136W        W32670  17.581   4.713   4.229 -0.0893 -0.0519  0.4645
13137W        W32671  16.899  10.425  11.462 -0.1599 -0.0810 -0.1922
13138W        W32672   1.632  10.271   5.265 -0.0361  0.2732  0.2782
13139W        W32673  17.107  11.877   1.425 -0.2298  0.2917  0.0291
13140W        W32674  17.727   7.082   3.122  0.1383  0.1456 -0.1552
13141W        W32675  18.441  14.039  14.265  0.1513 -0.1346  0.1520
13142W        W32676   3.622   5.595  13.614 -0.0213 -0.1347 -0.1048
13143W        W32677  13.816  10.944  12.446  0.0367 -0.0824 -0.0554
13144W        W32678  10.787   7.656  13.734 -0.0721  0.1764  0.2878
13145W        W32679   7.834  16.361   3.000 -0.3331  0.1881 -0.0406
13146W        W32680  10.321   2.926   3.723  0.1311 -0.2260  0.0061
13147W        W32681   1.288   1.723  10.396 -0.2231 -0.1161  0.2622
13148W        W32682   7.854   5.203  11.624  0.1544 -0.0479  0.1898
13149W        W32683  12.500   4.615   3.480  0.2040 -0.2094  0.3065
13150W        W32684   3.702   5.405   3.400  0.0908 -0.3570 -0.1846
13151W        W32685  13.988  14.559   3.339 -0.2066  0.0649  0.1049
13152W        W32686   0.622  11.724  12.069 -0.0926  0.0803 -0.1605
13153W        W32687   1.542  19.021   0.132 -0.0927 -0.0613 -0.2033
13154W        W32688   7.007   0.035   2.718 -0.1415  0.0255  0.3385
13155W        W32689  18.246   3.414   2.488 -0.2940 -0.0718  0.0107
13156W        W32690  17.385   9.927   2.416  0.0091 -0.0690  0.1876
13157W        W32691   2.511  12.604  12.533 -0.1685  0.0189 -0.0103
13158W        W32692  15.269   6.067   2.205  0.0713  0.1313  0.0827
13159W        W32693   9.854  17.984   0.237  0.1091  0.0891 -0.4910
13160W        W32694  15.742  19.337   2.221 -0.1643 -0.2372  0.0601
13161W        W32695   0.138   5.203  12.628 -0.2400  0.1887 -0.0269
13162W        W32696   1.491   0.047  12.387 -0.3362 -0.3123 -0.2052
13163W        W32697   8.400   0.188  10.263  0.1499  0.1002 -0.0934
13164W        W32698   4.029  12.778   7.408 -0.1989  0.0465 -0.0805
13165W        W32699   1.582   8.456   0.634  0.2280 -0.1829 -0.3834
13166W        W32700   3.724  15.784   2.330 -0.0229  0.2275 -0.1786
13167W        W32701   3.672   9.379   1.886  0.0602  0.0742  0.0035
13168W        W32702   8.693  16.233   1.400  0.0899  0.2277  0.2792
13169W        W32703   4.500  10.430  13.707  0.0184 -0.2738  0.0082
13170W        W32704   4.442  18.376   1.749 -0.1965 -0.0894 -0.2246
13171W        W32705   1.126  17.995   0.265 -0.2251 -0.0977 -0.2087
13172W        W32706  15.799  12.119  11.920  0.1976 -0.0865 -0.0625
13173W        W32707  11.951   2.626  11.158 -0.1971  0.4343 -0.0326
13174W        W32708   3.466   2.869  14.044 -0.2811  0.2244 -0.1769
13175W        W32709  13.533   4.965  11.429  0.0767  0.1781  0.1276
13176W        W32710  19.033  12.077   1.092  0.0881  0.0207  0.1019
13177W        W32711  16.904   2.032   3.482 -0.2430 -0.0923 -0.2763
13178W        W32712   1.028   6.020  10.629 -0.0563  0.0539  0.1800
13179W        W32713   8.162   8.732   1.465  0.2292 -0.0677 -0.0412
13180W        W32714  11.005  16.807   1.289 -0.1558  0.0754 -0.0873
13181W        W32715   6.629  11.048   1.395 -0.4520 -0.2722  0.3474
13182W        W32716   2.866   2.248   3.151  0.2960 -0.1848  0.1649
13183W        W32717  12.241  17.274   2.171  0.1861  0.0695  0.0169
13184W        W32718  18.268   5.940  12.250 -0.1849 -0.3851 -0.0790
13185W        W32719  10.414   2.202  11.079 -0.2566 -0.1007  0.1464
13186W        W32720   4.079   0.621   3.954 -0.1891  0.0576  0.1219
13187W        W32721   7.831  12.713   4.300  0.0007  0.2631  0.0237
13188W        W32722   2.384  11.286  11.655 -0.0409  0.1663  0.1892
13189W        W32723  14.720  15.497  10.764 -0.0898  0.0065 -0.0768
13190W        W32724  14.703   4.970  12.772 -0.1243 -0.4498  0.0919
13191W        W32725   8.586   3.895  13.911 -0.1463 -0.1100  0.0586
13192W        W32726   6.025  14.908   1.499 -0.0037  0.5184  0.1473
13193W        W32727  15.912  15.433   4.820  0.0654 -0.2612  0.0500
13194W        W32728  16.711  17.475   2.079  0.0452 -0.2715  0.0421
13195W        W32729   7.569   1.243   1.866  0.4351 -0.1855 -0.2597
13196W        W32730  16.205   6.551   3.939  0.0550 -0.0262  0.1271
13197W        W32731   0.443   5.065  14.001 -0.1103 -0.0396  0.0207
13198W        W32732  17.723  17.823   1.537 -0.0151  0.0748  0.2185
13199W        W32733  10.162  17.652  11.459 -0.3500  0.1734 -0.0582
13200W        W32734  18.154  13.159  12.488 -0.2784  0.1360 -0.1446
13201W        W32735   6.655   5.441  13.718  0.0684 -0.0622  0.1644
13202W        W32736  10.521  15.325  13.174  0.0990 -0.0620 -0.2994
13203W        W32737  17.509  17.713  12.953  0.1745  0.0692 -0.2423
13204W        W32738  14.878   8.171  13.848 -0.3166 -0.1964 -0.1061
13205W        W32739   7.660  13.655   0.199  0.0971  0.1887  0.0354
13206W        W32740   5.519  16.807   0.128  0.0318  0.0097 -0.1369
13207W        W32741   3.215  16.527  10.433  0.2002  0.1713 -0.4542
13208W        W32742  10.057   5.467  13.258  0.0346 -0.0820 -0.1849
13209W        W32743  10.972   2.342  13.782 -0.0007 -0.0585 -0.3637
13210W        W32744  15.240   1.747  12.915 -0.2039 -0.1678  0.0686
13211W        W32745  14.982   7.804   3.887 -0.3600 -0.2874  0.1235
13212W        W32746  13.724  12.882   0.104 -0.0061  0.0357  0.1543
13213W        W32747   3.104  12.396   0.391 -0.0238 -0.3943 -0.3178
13214W        W32748  11.328   1.495   1.891  0.3495 -0.1002  0.3600
13215W        W32749  15.680  13.158   2.821  0.0889 -0.2636  0.0082
13216W        W32750   2.883  16.739  14.235 -0.0741  0.3054  0.4492
13217W        W32751   6.154  13.631  11.352  0.0780 -0.1710 -0.1496
13218W        W32752  18.283   8.364   3.424 -0.0541  0.3443  0.0904
13219W        W32753  17.446  19.249   1.446  0.2428  0.1585 -0.1498
13220W        W32754   7.531   3.233   1.962  0.2401  0.4473  0.0816
13221W        W32755   7.564  17.937  12.295 -0.1384  0.1569  0.0054
13222W        W32756   3.095  12.252   2.284  0.1695 -0.0675  0.1054
13223W        W32757   7.326   7.182   0.327 -0.0977 -0.0446  0.0123
13224W        W32758  12.085  16.430  10.517 -0.2389 -0.2337  0.2615
13225W        W32759  11.076  19.094   0.469  0.2987 -0.1794 -0.2188
13226W        W32760   8.518   0.875  12.016 -0.1014 -0.1293 -0.1203
13227W        W32761  18.965   0.931   2.387  0.2113 -0.2564 -0.0736
13228W        W32762   8.254  18.249  12.908 -0.0394 -0.0403 -0.1788
13229W        W32763  18.782   2.253   0.042 -0.2508  0.1133  0.0779
13230W        W32764  10.086   0.000   0.657 -0.3338 -0.0062 -0.0916
13231W        W32765   7.386   1.517   2.367  0.1154 -0.0060 -0.1147
13232W        W32766  16.696   5.585  11.688  0.4419 -0.1028 -0.1345
13233W        W32767   6.372   3.182  10.077 -0.1889  0.0110  0.1822
13234W        W32768  13.460  10.901  10.796 -0.2522 -0.1932  0.2263
13235W        W32769  13.757  11.879  14.199  0.0932 -0.2148 -0.3076
13236W        W32770  16.987   9.288  12.192 -0.0267  0.1935  0.0886
13237W        W32771   0.133   3.846   1.128  0.2711  0.1035  0.0064
13238W        W32772  10.720  18.334   0.269 -0.1318  0.0725  0.1903
13239W        W32773   9.190  17.739  13.487 -0.0628  0.3610  0.0577
13240W        W32774  15.630   9.849   1.009  0.2388 -0.1976 -0.0859
13241W        W32775   8.703  10.026   3.864  0.0030  0.1241  0.2300
13242W        W32776  11.559   1.679  12.864 -0.0255 -0.1609 -0.0455
13243W        W32777  16.086   2.234  10.468  0.2137 -0.2061  0.0027
13244W        W32778   9.919  10.791   2.608  0.1751  0.0079 -0.2829
13245W        W32779   6.743  10.740   3.586  0.0647 -0.3349 -0.0136
13246W        W32780  10.465   3.795   3.059  0.0848 -0.1636 -0.2066
13247W        W32781  18.712   4.034   2.004  0.1565 -0.0060 -0.0718
13248W        W32782  11.771   0.412   2.750 -0.1056 -0.0297 -0.0324
13249W        W32783  10.461   5.708  11.348  0.0377 -0.1724  0.1390
13250W        W32784  14.665   8.744  13.938 -0.1283  0.2750 -0.2350
13251W        W32785   3.704   8.429  14.295  0.2938 -0.1538 -0.0882
13252W        W32786  12.455   1.055   2.187 -0.1445  0.2358  0.0539
13253W        W32787   3.692   5.813   3.018 -0.0030 -0.2838 -0.2517
13254W        W32788  12.047  12.134  10.619  0.3334  0.2093 -0.0699
13255W        W32789  11.264  16.924  10.892 -0.2688  0.0573 -0.1716
13256W        W32790  12.872  12.471  12.043  0.1052  0.0253  0.0493
13257W        W32791  13.490   4.902  13.503 -0.2245  0.1230 -0.0806
13258W        W32792  17.270   0.816   2.846  0.0443  0.0088 -0.0680
13259W        W32793   5.724   3.422   2.034 -0.2423 -0.2173  0.0130
13260W        W32794   1.368   5.360  14.254  0.1346 -0.1872 -0.0441
13261W        W32795  15.423   6.986  11.367  0.1825  0.1539 -0.0385
13262W        W32796   1.308   0.631  12.062  0.3603 -0.1857  0.2233
13263W        W32797   1.868   9.270  11.360 -0.4194 -0.0061 -0.2276
13264W        W32798   3.715   7.543  12.448  0.2326  0.0721 -0.1098
13265W        W32799  14.819   1.695   1.591 -0.0228 -0.0434 -0.0025
13266W        W32800   1.168   5.014   1.657 -0.0515  0.3971 -0.1500
13267W        W32801   7.897   7.611   0.755 -0.0944 -0.0456 -0.0766
13268W        W32802  17.348   7.064  13.212 -0.0789 -0.1341  0.3208
13269W        W32803   8.990  13.555  13.940  0.2065 -0.1778  0.0247
13270W        W32804  14.050  11.381   3.084 -0.0051  0.0125 -0.0702
13271W        W32805  18.275  12.007  13.022  0.1323  0.2264  0.0948
13272W        W32806  11.255  14.726  12.437  0.1164 -0.2177 -0.1460
13273W        W32807   3.287  10.186   2.639  0.1041  0.0094 -0.1842
13274W        W32808   1.015   7.312   4.000  0.0570 -0.0835  0.0207
13275W        W32809  16.344  11.455   2.772 -0.1211 -0.2929  0.2746
13276W        W32810  12.560  12.871  10.416 -0.0847 -0.2894  0.2002
13277W        W32811   0.824   3.987  11.222  0.0299 -0.2094 -0.1630
13278W        W32812  12.617   2.725  14.043 -0.0923 -0.2555  0.0847
13279W        W32813  18.828   1.546   1.864  0.0331  0.0222 -0.1033
13280W        W32814   5.354  14.390  10.826 -0.0870  0.0870 -0.0538
13281W        W32815   8.159  13.684  13.262 -0.3469 -0.0702  0.0648
13282W        W32816   8.818  15.657   4.107  0.0333 -0.0606 -0.0477
13283W        W32817   2.068  15.599  12.109  0.2269  0.1398  0.2901
13284W        W32818  14.229  10.863  11.571  0.3521  0.2592 -0.1380
13285W        W32819   7.484   7.356  10.883 -0.1454  0.1215 -0.0734
13286W        W32820  11.703   9.008   2.617 -0.1309 -0.0727 -0.1980
13287W        W32821   1.273  12.546  11.744  0.1112 -0.0189 -0.2019
13288W        W32822   7.576   4.049  12.927 -0.0498 -0.1225  0.1923
13289W        W32823   5.000   9.084   2.965 -0.0284 -0.2225  0.0295
13290W        W32824  15.486  10.873   1.400  0.0531 -0.3916 -0.0756
13291W        W32825   4.908   9.408  11.597  0.1615 -0.1468 -0.1891
13292W        W32826   0.270  17.805   0.913 -0.1463  0.0891  0.1658
13293W        W32827  16.154   6.544  13.558 -0.0129  0.0141  0.0087
13294W        W32828  19.034   9.687  11.454  0.0072  0.1092  0.1796
13295W        W32829  13.482   2.729   3.552  0.0390 -0.2052  0.1626
13296W        W32830   0.278   2.309  11.719  0.0541 -0.0142  0.2791
13297W        W32831   0.547   0.457  12.173  0.0661  0.0738 -0.0450
13298W        W32832   5.288   8.166   3.592 -0.5954 -0.1248 -0.2973
13299W        W32833  12.030   2.813   1.214  0.1258 -0.1710 -0.0526
13300W        W32834   9.723  13.346  13.635 -0.1015  0.0051  0.0267
13301W        W32835   1.237  17.293   2.181 -0.0873  0.1058 -0.0464
13302W        W32836  18.433  13.410   1.230  0.1195 -0.2038 -0.1841
13303W        W32837  11.310   4.563   1.878 -0.2653  0.2710 -0.0275
13304W        W32838  11.376   1.749   0.503  0.1498  0.1544  0.0958
13305W        W32839  18.286   0.781   4.387  0.0283 -0.0236 -0.0531
13306W        W32840  15.744   0.609  14.084  0.2774  0.1341  0.0155
13307W        W32841   7.955  16.324  13.349 -0.2938 -0.1866  0.1628
13308W        W32842  11.068   9.149  10.893 -0.1242  0.1892  0.0852
13309W        W32843  10.934  14.970  12.843 -0.0249  0.0307  0.0700
13310W        W32844   9.367   7.634  10.182 -0.1657  0.1136  0.3265
13311W        W32845   3.816   7.446   4.653  0.2280  0.0133  0.1022
13312W        W32846   6.368   5.187   2.335  0.0643 -0.0073  0.0598
13313W        W32847  11.318  15.962   2.933  0.2500 -0.1837  0.2619
13314W        W32848  18.712   8.372   0.108 -0.0791  0.0875 -0.1017
13315W        W32849   0.089   5.052   3.848  0.0643  0.0358  0.0556
13316W        W32850  16.573   6.511   2.840  0.1483 -0.1051 -0.2960
13317W        W32851   9.114   2.650  14.012 -0.6179  0.2477 -0.0246
13318W        W32852  16.134  10.695  13.098 -0.1438 -0.6634 -0.0468
13319W        W32853   9.552   8.414   3.784  0.0696  0.1879  0.0262
13320W        W32854  14.609   8.241   0.730 -0.0769 -0.1696 -0.0033
13321W        W32855  18.731  10.418  13.486  0.2393  0.0246 -0.0375
13322W        W32856  11.917   3.455  14.003  0.1993 -0.1052 -0.0360
13323W        W32857   8.139   6.891  10.456 -0.2663  0.0350 -0.0659
13324W        W32858   7.151  13.891   2.713  0.1452 -0.2123  0.2640
13325W        W32859  17.870   2.143  11.396  0.2260 -0.0864 -0.0092
13326W        W32860   5.346   6.062   2.375 -0.3141 -0.1595 -0.1215
13327W        W32861  18.284   1.959   3.530 -0.2464  0.1697  0.2137
13328W        W32862   4.051   2.997   0.108  0.1143 -0.0270 -0.1448
13329W        W32863   7.542  17.733   3.516 -0.2019 -0.0511  0.0972
13330W        W32864  14.406   1.932  13.678 -0.1411 -0.0144  0.0083
13331W        W32865  12.637   1.466   0.055  0.1379  0.0982 -0.0409
13332W        W32866   0.808  16.406  11.333  0.0157  0.0846  0.0154
13333W        W32867  16.972   4.932  12.387  0.4090  0.0799 -0.1076
13334W        W32868  14.380   7.532   4.620 -0.2491  0.0408 -0.3900
13335W        W32869  16.244  17.516  13.073  0.0976 -0.2294 -0.1290
13336W        W32870  13.955  13.150  13.634 -0.1245  0.2213  0.1926
13337W        W32871   3.926   2.018  11.816 -0.0215 -0.1779 -0.1983
13338W        W32872  10.170   4.987  10.607  0.0803  0.1657 -0.0224
13339W        W32873   4.476  11.389  11.629  0.3765  0.1469 -0.0711
13340W        W32874   1.793   8.590   2.046 -0.2943  0.1825  0.0709
13341W        W32875   5.038  13.096   2.307 -0.0216  0.0627  0.0148
13342W        W32876   4.179   7.673   2.223  0.2057  0.5187  0.0565
13343W        W32877   1.406   7.227  10.643 -0.1245  0.0787  0.0398
13344W        W32878   2.803   8.666  13.419 -0.4101  0.0410  0.0171
13345W        W32879   0.102   9.144   2.505  0.3080  0.0584 -0.0409
13346W        W32880  13.552  18.490  10.588  0.1579  0.1532 -0.0597
13347W        W32881  17.480   6.723  13.926 -0.3272  0.0575 -0.0282
13348W        W32882   9.252   6.115  13.902 -0.1598  0.1430  0.1920
13349W        W32883  11.538   9.289   3.799 -0.3062 -0.0467 -0.0457
13350W        W32884   0.286  18.853  10.805 -0.0021  0.0633  0.2483
13351W        W32885   7.555  10.139  14.066 -0.1856  0.0271  0.2621
13352W        W32886  11.588   9.997  13.492 -0.2236  0.2825  0.1965
13353W        W32887   2.443  12.953   4.070 -0.0879  0.1565  0.1805
13354W        W32888  16.752  15.793  11.722  0.0711 -0.2730 -0.1932
13355W        W32889  19.305   0.168   0.641  0.0883  0.0456 -0.3218
13356W        W32890  13.227  14.233   1.643 -0.2372 -0.0490 -0.2700
13357W        W32891  13.218  15.727  12.074  0.0686 -0.0579 -0.0580
13358W        W32892   1.717   0.362  11.110  0.1139  0.0381  0.0664
13359W        W32893  19.257   7.297   2.106  0.0124 -0.1701 -0.2639
13360W        W32894  11.583   3.375  12.565 -0.1498 -0.0523 -0.0183
13361W        W32895  15.935  16.362  10.907 -0.0130  0.0020 -0.1919
13362W        W32896   5.374  11.868  13.269 -0.2097 -0.3300 -0.1104
13363W        W32897   7.071   1.686  12.753  0.1141  0.3878 -0.0648
13364W        W32898   8.342   6.513  10.163 -0.2784 -0.1576 -0.0929
13365W        W32899  11.730  15.647   3.705 -0.0029  0.0583  0.4312
13366W        W32900   7.264  17.684   4.000 -0.0503  0.2155  0.3528
13367W        W32901  13.563   5.613  13.935 -0.1530 -0.0413  0.2684
13368W        W32902   8.398   7.387  13.460 -0.0766 -0.1403 -0.2389
13369W        W32903   9.266   7.564  12.807 -0.1976 -0.1818  0.1921
13370W        W32904  16.555  14.846  11.388 -0.1898  0.1991 -0.2682
13371W        W32905  10.915   4.559   0.925  0.0026  0.2728  0.1423
13372W        W32906  18.593   6.674  13.786  0.0482 -0.1103 -0.3469
13373W        W32907  10.581   4.321  12.287 -0.0470  0.1969  0.1467
13374W        W32908  10.769  11.876  12.641  0.0589  0.0270  0.3073
13375W        W32909  15.009   4.946  13.212  0.0566 -0.0717  0.0587
13376W        W32910  15.646   0.404  13.089  0.0257  0.2297 -0.0112
13377W        W32911   4.924  16.123  12.178 -0.0325  0.2245 -0.1873
13378W        W32912  10.505   1.992   2.755  0.1752  0.1573  0.2996
13379W        W32913  18.495   6.779  11.920 -0.0973  0.2240 -0.1912
13380W        W32914   4.783  13.657   0.930  0.1245 -0.0105  0.0637
13381W        W32915  18.864   4.294   3.725  0.0090 -0.0432  0.0289
13382W        W32916  10.590   1.013   1.600 -0.2052 -0.0063  0.0662
13383W        W32917  14.680  18.832  10.036  0.1349  0.4229  0.3760
13384W        W32918   1.916  11.472   0.314  0.1187  0.0027  0.0650
13385W        W32919  15.311   4.673   3.609  0.0835  0.1720  0.0165
13386W        W32920   4.822  19.198   1.315 -0.2211 -0.3541  0.0246
13387W        W32921  12.637  14.927   3.441 -0.2474  0.1587  0.1589
13388W        W32922   8.120  19.408  11.984 -0.2258  0.2745  0.0101
13389W        W32923  13.942   1.800  13.842  0.3125 -0.1578  0.0946
13390W        W32924  16.785   1.409   0.259 -0.5145  0.0108  0.3081
13391W        W32925  17.653  17.360   9.815  0.0346 -0.1700  0.0516
13392W        W32926   9.380  10.586  12.607 -0.0317  0.0971 -0.0801
13393W        W32927  16.379   9.882  10.687 -0.1551 -0.2050  0.0458
13394W        W32928  11.532   7.755  13.658 -0.2141  0.0133 -0.2184
13395W        W32929   4.265  15.655   3.713 -0.0059  0.1670 -0.1017
13396W        W32930   5.685  12.557  10.893 -0.3344  0.0064 -0.0072
13397W        W32931  17.613   0.099   2.119 -0.3071 -0.0455 -0.2460
13398W        W32932   5.875  13.461   4.406  0.0464  0.1835 -0.1607
13399W        W32933   5.577   8.709   3.165 -0.1100 -0.2711 -0.0542
13400W        W32934   4.195   0.222  11.735 -0.0955  0.1433 -0.3820
13401W        W32935   4.382   1.960  12.033  0.3008  0.0591 -0.3063
13402W        W32936   2.881   4.734  13.250 -0.1378 -0.0964  0.3085
13403W        W32937   5.661  16.277   3.921  0.0366 -0.0259 -0.0609
13404W        W32938   0.087   8.431   2.482 -0.0135 -0.0683  0.4222
13405W        W32939  14.560  15.257   1.813 -0.2125  0.1013 -0.0471
13406W        W32940  11.911   7.108   0.722 -0.0674  0.1938 -0.1048
13407W        W32941  17.243   0.551   1.220  0.0994  0.1323  0.0012
13408W        W32942   1.856   5.211  14.023 -0.2000  0.2474 -0.3763
13409W        W32943   8.480  10.424   4.157 -0.0456  0.1347  0.1983
13410W        W32944  11.192   7.364  14.370 -0.3260  0.1385  0.0206
13411W        W32945  13.085  14.953  13.771 -0.1237 -0.0348  0.0495
13412W        W32946  15.187  12.080   3.321  0.1192  0.0261 -0.0544
13413W        W32947   8.095  15.476   1.278 -0.0401  0.2932  0.1209
13414W        W32948  16.720  11.640  10.269  0.3406 -0.1644  0.3284
13415W        W32949   5.578  14.371  13.227 -0.0989 -0.3552  0.0199
13416W        W32950  16.836  13.338   3.610  0.0981  0.1209  0.0734
13417W        W32951   6.187  12.696  12.585  0.0430 -0.0459  0.0358
13418W        W32952  16.170   8.015  11.608 -0.0709 -0.0533  0.0486
13419W        W32953  16.394  10.424   3.345 -0.0774 -0.1051 -0.0431
13420W        W32954   1.439   5.307   4.678 -0.1801 -0.3058 -0.1433
13421W        W32955  16.170  11.882   3.438  0.0473 -0.4352  0.0413
13422W        W32956   4.176  18.921  13.314 -0.4638  0.1564 -0.1328
13423W        W32957   5.003  17.953   0.157 -0.2021 -0.2650 -0.0635
13424W        W32958  13.682  14.826  10.252 -0.0910 -0.0492 -0.0753
13425W        W32959   0.679  18.124  12.795  0.1586  0.0389  0.1335
13426W        W32960  12.926  12.982   0.431  0.1345 -0.3130  0.1470
13427W        W32961  12.553  19.394  13.853 -0.0995  0.0016 -0.0920
13428W        W32962  18.738  14.830  12.449 -0.0025  0.1256  0.1180
13429W        W32963  16.965   6.286   3.895 -0.0602 -0.0412  0.2331
13430W        W32964   1.717   8.346  10.378  0.2968 -0.0338  0.0622
13431W        W32965   3.087  15.450  13.048  0.2927 -0.2331  0.2256
13432W        W32966  11.568   7.311   0.364 -0.1017  0.3659  0.3270
13433W        W32967   6.837  15.741   1.775 -0.1793  0.1511  0.2225
13434W        W32968   6.571  18.586   2.915  0.3560 -0.0715 -0.1287
13435W        W32969  12.255  13.810   1.086 -0.1551  0.0297  0.1440
13436W        W32970   8.231  12.762   3.783  0.3111  0.3050  0.1000
13437W        W32971  14.490   0.698  10.567 -0.0468 -0.0659 -0.1451
13438W        W32972   3.928   1.617  14.158 -0.1809 -0.0006 -0.1330
13439W        W32973   2.928   3.103   3.001  0.4981  0.2988 -0.2135
13440W        W32974   6.382  10.357  11.870 -0.0804 -0.2032 -0.0774
13441W        W32975  19.126  10.071  13.533 -0.1202  0.0433  0.3215
13442W        W32976  19.436  14.039   3.229 -0.2893  0.1356 -0.0543
13443W        W32977   6.682   1.432   1.754  0.0121 -0.1390 -0.2800
13444W        W32978   6.410  18.219   3.697 -0.1721  0.1586 -0.1919
13445W        W32979  14.803   3.103   1.489  0.2473  0.0230 -0.0493
13446W        W32980  17.507  18.565  10.589 -0.0120  0.1276  0.2775
13447W        W32981  11.108   9.439  13.280 -0.2698  0.1188 -0.5006
13448W        W32982  10.354  15.105  12.313  0.2516 -0.0671  0.2345
13449W        W32983   7.111  19.170  12.600 -0.0013  0.1147 -0.3193
13450W        W32984   3.676   7.587   0.641 -0.2070  0.0759  0.1623
13451W        W32985  16.208   1.543  13.184 -0.1349 -0.1860  0.1605
13452W        W32986   3.186   0.697  11.529 -0.0079  0.2742 -0.1539
13453W        W32987  17.173   8.799  11.999  0.0101 -0.1638 -0.1400
13454W        W32988  16.442   9.724  14.092 -0.1602  0.2859 -0.0020
13455W        W32989   1.405  14.671   2.100  0.1573 -0.4333  0.1757
13456W        W32990  10.362  13.247   4.133  0.3071 -0.0739 -0.0237
13457W        W32991  15.079  11.341  11.526 -0.1533 -0.0992  0.0595
13458W        W32992   1.765  10.508   3.512  0.1949  0.2446  0.0482
13459W        W32993  17.393  16.735  13.558 -0.0136  0.1825  0.2278
13460W        W32994  10.980  14.196   4.253 -0.0001  0.2353 -0.1978
13461W        W32995  12.831   8.744   1.560  0.2138 -0.4700  0.0500
13462W        W32996   4.756  16.562  13.512 -0.1630 -0.0131 -0.3340
13463W        W32997  12.664   1.911  11.105 -0.5368  0.2003  0.0264
13464W        W32998  12.472   5.642  12.626  0.0920 -0.1749 -0.2304
13465W        W32999   0.755  10.326   3.204 -0.1674 -0.0365  0.2084
13466W        W33000  14.215   0.396   0.390 -0.2663 -0.0896 -0.1163
13467W        W33001   1.742   3.539  12.975 -0.1644  0.1048 -0.0062
13468W        W33002  11.432   9.192  10.496  0.2400  0.3289  0.5040
13469W        W33003   3.982   9.077  13.002  0.0771 -0.0222  0.1357
13470W        W33004   4.470  18.198   2.397 -0.0112  0.1231  0.1060
13471W        W33005   3.780  17.519  14.055  0.0593  0.1887 -0.1391
13472W        W33006   3.705   0.718  12.966 -0.0623  0.1486  0.2235
13473W        W33007   5.028  11.847   0.555 -0.0484 -0.4339  0.0407
13474W        W33008  10.759  17.944   3.165  0.1647  0.2595 -0.5468
13475W        W33009   9.361   6.357  12.493  0.0826 -0.1055  0.3028
13476W        W33010   0.864  11.532  13.721  0.0716 -0.1079  0.4011
13477W        W33011   1.802  10.280  12.325 -0.0536 -0.2204  0.0942
13478W        W33012   3.144  15.425   1.730 -0.2411  0.1001  0.0541
13479W        W33013  13.948  15.034  13.749 -0.0271  0.0249  0.1909
13480W        W33014   1.794  11.251   2.641  0.1661 -0.1974 -0.0328
13481W        W33015   4.334  12.866  11.063 -0.2172 -0.0086 -0.1151
13482W        W33016   9.007  15.735   2.358  0.1048 -0.3011 -0.5309
13483W        W33017   4.886   0.909  13.112  0.1365 -0.2177 -0.1051
13484W        W33018  13.970   9.674  10.126  0.0870 -0.0302 -0.1985
13485W        W33019  12.320   5.567  11.518 -0.2304 -0.0476  0.0727
13486W        W33020   2.884   3.692   1.539  0.1190 -0.0845 -0.2167
13487W        W33021   3.371   7.665  14.094 -0.0710 -0.0731  0.0862
13488W        W33022  13.187   7.424   2.356  0.2234  0.0148 -0.2162
13489W        W33023  18.000   6.125   0.587 -0.0482  0.0086  0.2200
13490W        W33024   6.574  10.873  13.380 -0.2336 -0.1567 -0.1430
13491W        W33025   8.078   4.154  11.891  0.1083  0.2384 -0.0143
13492W        W33026   2.392   4.702   4.365  0.1163  0.1066 -0.0712
13493W        W33027   3.585   7.118   0.519  0.0628 -0.1290 -0.4813
13494W        W33028   6.445   3.402  14.251  0.0611 -0.3002 -0.1003
13495W        W33029  18.864  15.277   1.244  0.2521 -0.1096 -0.0659
13496W        W33030   2.851   5.801   0.597 -0.2370 -0.1294 -0.1471
13497W        W33031  18.832   9.642  12.942  0.0830  0.1038  0.0961
13498W        W33032  17.945  15.844  13.621 -0.0275  0.1766  0.2709
13499W        W33033   0.795   4.611   1.377 -0.1289 -0.1629 -0.3156
13500W        W33034  16.831  12.638  12.227 -0.0299 -0.1407  0.2626
13501W        W33035  13.989   0.379   0.815  0.0108 -0.2365  0.0168
13502W        W33036   0.904  16.198  13.634 -0.2046  0.3616 -0.1187
13503W        W33037  14.717   0.639   2.818 -0.3356 -0.0283 -0.1834
13504W        W33038  18.522   4.004  12.807  0.3266 -0.0344  0.3098
13505W        W33039  11.487   3.576  14.203 -0.3185 -0.1413 -0.1003
13506W        W33040  15.300  15.536  13.547 -0.0928 -0.0132  0.1344
13507W        W33041   0.119  17.048  10.786 -0.1461  0.0559 -0.0016
13508W        W33042  11.689  17.312   3.172  0.0417 -0.0136 -0.1580
13509W        W33043   9.924   9.315  11.850  0.0097  0.0599  0.0956
13510W        W33044   7.032  15.185   4.185  0.1710  0.3407  0.0440
13511W        W33045   6.659   8.514  12.556 -0.0464 -0.0503  0.1322
13512W        W33046  12.128   0.556  13.423 -0.4122  0.3693 -0.1052
13513W        W33047   5.301  13.880  14.012  0.3868 -0.2510 -0.2456
13514W        W33048   0.818  14.460   1.596 -0.0778  0.0886 -0.0658
13515W        W33049   9.685   3.125  12.678  0.0608  0.1268 -0.2994
13516W        W33050  10.565  14.068   2.960  0.2028 -0.0405 -0.1161
13517W        W33051  16.837  12.184  11.105 -0.1443  0.2524  0.3854
13518W        W33052  15.155   5.766  11.740  0.1930 -0.1341  0.0279
13519W        W33053  11.387  15.605  14.086  0.1564 -0.0638 -0.2736
13520W        W33054  15.319  13.825  10.649 -0.0335  0.2547 -0.2882
13521W        W33055  17.536   1.491   0.537 -0.0105 -0.0425  0.1504
13522W        W33056   3.059  11.727   1.510  0.1139  0.4268  0.2643
13523W        W33057   1.664  18.767   1.238 -0.2039  0.1414 -0.0171
13524W        W33058  14.313  17.944  12.814  0.0641  0.1856 -0.1988
13525W        W33059   5.787  13.657   2.043  0.1752  0.2162  0.2167
13526W        W33060  19.425  11.228  11.803  0.3789  0.5560 -0.3168
13527W        W33061   5.927   1.871  10.445 -0.0372 -0.2318  0.0043
13528W        W33062   7.522   6.731  12.463 -0.1519  0.1376  0.2144
13529W        W33063   1.879  11.849  12.894 -0.1414  0.0432  0.3338
13530W        W33064   1.390  11.784  13.667 -0.3331 -0.1775  0.3351
13531W        W33065   6.908  10.095   3.959 -0.3021  0.0042 -0.2279
13532W        W33066  16.739  11.498  12.667  0.4659 -0.1035  0.3394
13533W        W33067  12.160   5.443   2.790 -0.0219 -0.0869  0.2458
13534W        W33068  11.055   0.244   1.717 -0.1000 -0.0443  0.0675
13535W        W33069  18.469  16.473  12.967 -0.3298  0.1532 -0.0822
13536W        W33070  15.945  17.241   1.639 -0.2324  0.0442  0.3004
13537W        W33071  14.899   5.502  10.244  0.1536 -0.4427  0.2014
13538W        W33072   1.027  11.014  13.162  0.2602 -0.5390  0.1648
13539W        W33073  15.647  17.863  12.123  0.1750  0.0530  0.2973
13540W        W33074   1.009   9.621   3.946 -0.0382 -0.0893  0.1239
13541W        W33075  15.979  10.722   3.455 -0.0162  0.2634 -0.0026
13542W        W33076   2.143  12.009  13.911  0.0949  0.2116  0.0309
13543W        W33077  11.275  16.410  13.202  0.0798 -0.1046  0.1124
13544W        W33078  18.975  18.713   1.662  0.0654  0.1753  0.0091
13545W        W33079  17.328   8.378   1.749 -0.4858  0.0316  0.2812
13546W        W33080  13.913  10.485   1.545  0.1018  0.1220 -0.0162
13547W        W33081   0.387   4.670   2.914  0.2351  0.0638 -0.1207
13548W        W33082   3.847   6.907  12.712  0.0238 -0.1453 -0.1227
13549W        W33083   6.737  13.879   1.038 -0.1842  0.3332  0.0490
13550W        W33084   5.959   7.817   3.629  0.0439 -0.3026  0.1167
13551W        W33085   0.653  12.088   3.401 -0.0838 -0.0599  0.2216
13552W        W33086  17.218  16.958   1.770 -0.0545 -0.2213  0.0525
13553W        W33087   6.375   0.671   1.221 -0.0521  0.0602  0.1523
13554W        W33088   6.472  17.911  11.056 -0.1694  0.0368 -0.0091
13555W        W33089   4.309   3.026   3.610 -0.0256 -0.2487  0.1741
13556W        W33090   2.389  18.710  10.824 -0.2049 -0.4182  0.1302
13557W        W33091   4.204   9.868   0.154  0.1181 -0.0540  0.0070
13558W        W33092  10.949  18.644  10.524 -0.4731 -0.0837  0.0425
13559W        W33093  16.595   4.420   1.722 -0.1169 -0.0874 -0.0390
13560W        W33094  16.903  18.814   3.446  0.1495 -0.1318 -0.3003
13561W        W33095  15.852   9.759  10.794  0.1456  0.1865  0.0704
13562W        W33096   6.368   6.075   4.149  0.0153 -0.3427  0.0035
13563W        W33097  16.266  17.979  12.855  0.0295  0.1067 -0.0737
13564W        W33098   4.130   1.384  12.591  0.1842 -0.2590 -0.0368
13565W        W33099   7.508  12.692  13.653  0.0130 -0.0307  0.2230
13566W        W33100   4.875   0.733   0.583 -0.2384 -0.0234 -0.2198
13567W        W33101  10.667   0.735   4.580  0.0681  0.2282 -0.2766
13568W        W33102   1.819   4.125   3.977 -0.0015 -0.0563 -0.1466
13569W        W33103  13.743  12.410   3.191  0.1048  0.0180 -0.1140
13570W        W33104   5.414   3.833  12.490  0.0594 -0.0407  0.4248
13571W        W33105  14.980  16.730   9.573  0.0478  0.2545 -0.2303
13572W        W33106   6.580   0.435   3.920 -0.1575 -0.4057  0.1260
13573W        W33107  12.976  10.222  14.295 -0.0976  0.0780 -0.1430
13574W        W33108  10.478   7.481   4.203 -0.1622 -0.0450 -0.2699
13575W        W33109  11.465   3.961   3.027  0.0135 -0.2924 -0.2160
13576W        W33110  14.558   4.726   0.531 -0.1708 -0.1184  0.1408
13577W        W33111   3.577  15.500  13.542  0.1554  0.1178  0.0666
13578W        W33112  18.565   0.057   3.159  0.1974 -0.1634  0.1800
13579W        W33113  14.027   5.057   1.827 -0.4477 -0.0451  0.2166
13580W        W33114   3.221  15.366   1.168 -0.0854 -0.0013  0.2345
13581W        W33115   8.696  16.876  11.681  0.0705  0.0575  0.0405
13582W        W33116  15.703   2.541  10.352 -0.0079 -0.3088  0.1434
13583W        W33117  13.337   5.260  10.648 -0.2174 -0.2995 -0.1564
13584W        W33118  11.624  11.174  12.808  0.2490  0.3078 -0.0605
13585W        W33119   0.460   0.646  10.304 -0.1401 -0.5392 -0.2608
13586W        W33120   1.473   8.003   1.148 -0.1469 -0.0436  0.2224
13587W        W33121  17.616   8.905  13.435 -0.3612 -0.0293  0.1869
13588W        W33122  15.842   4.318  11.553 -0.0422 -0.2426 -0.2058
13589W        W33123  16.508  15.648  13.422 -0.0537  0.2220 -0.2354
13590W        W33124  13.358  13.940  12.128 -0.2903  0.0384 -0.1619
13591W        W33125   8.202  13.368   0.226  0.0813 -0.0165 -0.2553
13592W        W33126  19.274   5.730  10.799 -0.0092  0.2650  0.0878
13593W        W33127   0.822   1.498  12.828 -0.0883 -0.2668 -0.2256
13594W        W33128   4.329   1.447   4.473  0.2508  0.0958  0.0080
13595W        W33129   2.233  14.510   2.692 -0.2838 -0.3562 -0.0467
13596W        W33130   9.793   2.239   4.896 -0.2436 -0.0929 -0.1077
13597W        W33131   9.415   9.163  10.737 -0.2328  0.1504 -0.5768
13598W        W33132   4.296  18.350  11.120 -0.1676 -0.1269 -0.0310
13599W        W33133   5.179   1.598  10.993 -0.1681 -0.2015 -0.1505
13600W        W33134  17.427   8.693   2.547  0.2022  0.2484 -0.0746
13601W        W33135   6.755  14.461   1.441  0.2209  0.1059  0.0157
13602W        W33136   6.190   8.451   3.016  0.0830  0.0110 -0.0735
13603W        W33137   6.009  16.145  10.650  0.2175  0.0519 -0.0691
13604W        W33138  10.965   0.164   3.778  0.2320 -0.0115  0.1394
13605W        W33139  12.052  16.799  14.051 -0.3784  0.2056  0.0077
13606W        W33140  12.210  16.435   2.020 -0.1535  0.2506 -0.1765
13607W        W33141   6.819   7.222   4.549  0.0100 -0.2137  0.1358
13608W        W33142   5.859  18.411   0.830  0.4556  0.2593 -0.1458
13609W        W33143   8.093  18.604   3.527 -0.0250 -0.0897  0.3284
13610W        W33144   5.999  14.862  12.604 -0.3267 -0.1580  0.0315
13611W        W33145  19.024   5.461  13.407  0.3342 -0.0634  0.0701
13612W        W33146   7.857   8.672  13.025 -0.0458 -0.0653  0.0214
13613W        W33147  16.466   4.096   3.726  0.2203 -0.1625  0.0610
13614W        W33148  17.554   5.206  14.191  0.0640  0.2935  0.1547
13615W        W33149  16.892   5.460   2.533  0.2458 -0.2293  0.0777
13616W        W33150  18.468   7.077  14.137  0.0252  0.0564  0.1922
13617W        W33151   5.892  16.576   2.747  0.0418 -0.0843 -0.1621
13618W        W33152   1.130   5.689   4.189 -0.2163 -0.0598  0.1246
13619W        W33153  14.958   9.936  11.325  0.0632  0.0340  0.1698
13620W        W33154   6.832  13.771   3.099  0.0486 -0.1553 -0.1497
13621W        W33155  12.195   3.133   0.451 -0.1529  0.1686  0.1517
13622W        W33156   1.016   1.275   1.324  0.0077  0.0014 -0.1073
13623W        W33157  16.368  11.029   3.612  0.1642 -0.2687  0.3011
13624W        W33158  14.908   1.225  11.707 -0.0839 -0.1508 -0.1043
13625W        W33159   9.278  16.446   0.164 -0.1732  0.2052  0.0430
13626W        W33160  10.837   5.058   2.020  0.1913  0.1797 -0.0065
13627W        W33161   2.046  12.985  11.726  0.1707 -0.1625 -0.3965
13628W        W33162   3.008  11.603  10.913  0.3110 -0.1634  0.0478
13629W        W33163  11.627  16.536  11.774 -0.2201 -0.0003 -0.3617
13630W        W33164   0.761  15.101   3.367  0.1098 -0.1404  0.4462
13631W        W33165  15.586   5.633   4.567 -0.1780 -0.3258 -0.1580
13632W        W33166  14.943   6.472   1.494 -0.1789  0.1043 -0.4552
13633W        W33167  13.979  12.195  12.182  0.2010 -0.1102 -0.0191
13634W        W33168   3.200  11.173  11.283  0.0792 -0.0569  0.2919
13635W        W33169  14.678  19.467  11.542  0.0804  0.1251  0.1269
13636W        W33170   3.032  12.731   2.049  0.1474 -0.0751  0.4109
13637W        W33171   6.898   2.329  14.134  0.2918 -0.4008  0.0663
13638W        W33172   6.347   0.106  12.162 -0.4074  0.1084 -0.2190
13639W        W33173   4.627  17.787   3.991 -0.1308 -0.1663  0.6940
13640W        W33174  11.090  10.763  11.920  0.0956 -0.1198  0.4269
13641W        W33175  19.406   4.885   2.923 -0.0820 -0.0242  0.2261
13642W        W33176   0.124  14.695   0.911  0.0387  0.0856 -0.5275
13643W        W33177   7.070   8.836   3.697 -0.0308  0.2309 -0.1056
13644W        W33178   0.364   3.499  13.198  0.0597  0.0305 -0.3469
13645W        W33179  15.744   6.737   2.722 -0.0052 -0.3358  0.2799
13646W        W33180  14.521   9.358   2.939 -0.0710 -0.1496 -0.2613
13647W        W33181  15.560   5.347  12.341 -0.2448  0.0742  0.5798
13648W        W33182   9.172  14.025  13.277 -0.1724 -0.0261  0.1549
13649W        W33183   4.349  12.486   0.471 -0.0231  0.0719  0.0593
13650W        W33184   9.796  12.736   3.943 -0.0850  0.0106  0.2326
13651W        W33185   1.460  13.851  11.437 -0.0667 -0.0572  0.0701
13652W        W33186   7.103   1.177  13.421  0.0709 -0.3447  0.1030
13653W        W33187  11.907   7.187   2.789  0.3533 -0.0573 -0.0453
13654W        W33188   6.559   8.600   1.669  0.1205 -0.2824  0.1038
13655W        W33189  17.691  10.807   2.221 -0.1187  0.2474 -0.2594
13656W        W33190  12.935   3.879  13.784  0.0320 -0.2490  0.2895
13657W        W33191   2.234  14.125  12.072  0.2567 -0.0522  0.2875
13658W        W33192  13.795   7.778   0.353  0.1592 -0.0002  0.3873
13659W        W33193   6.281   7.311   1.520  0.0540  0.0007 -0.1737
13660W        W33194   9.557   8.977   4.597 -0.0638  0.1034  0.0978
13661W        W33195  12.413  19.087  12.247  0.0819 -0.0330  0.2716
13662W        W33196  16.151   6.140   2.169  0.0554  0.0009  0.1279
13663W        W33197  18.260  10.228  12.322  0.2384  0.0895 -0.3042
13664W        W33198  14.734  16.672  13.181  0.2115  0.1321 -0.3251
13665W        W33199  10.127  13.540   0.187 -0.1982 -0.3397 -0.1361
13666W        W33200  18.282  12.238  14.303  0.4902 -0.2410  0.2936
13667W        W33201  17.729   8.761  10.867 -0.0223  0.0402  0.2690
13668W        W33202  12.303   5.157   1.704  0.1486 -0.0212  0.2416
13669W        W33203   2.893  16.254  10.704  0.4086  0.1451  0.0861
13670W        W33204  14.653   3.039  11.320 -0.1395 -0.3708  0.3696
13671W        W33205   1.215   3.021   1.676 -0.0302 -0.1392 -0.0042
13672W        W33206  10.404  14.505   2.809  0.0813  0.3595  0.3310
13673W        W33207  18.882  13.572   4.398  0.0313  0.2758  0.0407
13674W        W33208   3.282  15.989  10.641 -0.2807  0.0494 -0.2852
13675W        W33209  10.123   8.413   3.098 -0.4632  0.0428  0.0321
13676W        W33210   7.811  14.648  14.267  0.2592  0.0487 -0.2606
13677W        W33211   0.774   4.629  10.550 -0.1334 -0.1094 -0.1144
13678W        W33212  16.575  17.794  13.352  0.0146  0.2755 -0.1492
13679W        W33213   8.686   2.269   1.753 -0.1532  0.2031  0.0649
13680W        W33214   1.413   3.013   1.217 -0.3059  0.1944  0.0091
13681W        W33215  15.917  17.995   3.270  0.1483 -0.1027  0.0574
13682W        W33216   2.751   7.117  12.426  0.0678 -0.0129  0.0840
13683W        W33217   0.484  15.601   3.431  0.1579 -0.2056 -0.0234
13684W        W33218  13.723  16.816   9.093 -0.1845  0.1713 -0.1738
13685W        W33219   8.597  13.267  11.190  0.1273 -0.1151 -0.1411
13686W        W33220   0.171   2.422   3.510  0.0537  0.5390  0.1113
13687W        W33221  13.033   4.453   3.201  0.0017 -0.0568 -0.1931
13688W        W33222   0.296   9.922  12.653  0.0203  0.0228 -0.1099
13689W        W33223  10.007   9.470   0.671  0.1460  0.3126  0.1538
13690W        W33224  10.197  16.310   3.356 -0.0589 -0.0707 -0.3354
13691W        W33225   7.357   9.651   3.127 -0.0575 -0.2173  0.1390
13692W        W33226  15.838  15.830  10.388  0.3370  0.2965  0.1363
13693W        W33227   1.157  18.895  12.611 -0.1043  0.2693 -0.2307
13694W        W33228   0.350  17.428   0.534  0.0475 -0.0967  0.0231
13695W        W33229  17.582   3.196  12.634  0.0596 -0.0559 -0.2514
13696W        W33230  18.035  10.854  12.282  0.0651  0.1271 -0.0836
13697W        W33231  12.773   7.073   9.605 -0.1611  0.3672  0.2702
13698W        W33232  19.337  13.950   0.093  0.1456  0.0604  0.0987
13699W        W33233  12.177   6.196  13.492  0.3157 -0.0463 -0.1807
13700W        W33234  10.568   8.554  13.353 -0.1862 -0.2695  0.0974
13701W        W33235   4.218  13.344   2.847  0.3702 -0.0493 -0.0747
13702W        W33236  19.412   7.207  14.242 -0.2278  0.0311  0.1931
13703W        W33237   5.737   5.088  11.943  0.1357  0.0902  0.1572
13704W        W33238  16.990  11.968  12.382 -0.3187 -0.0808  0.1695
13705W        W33239   5.785   7.017   2.371  0.2440 -0.0810 -0.0138
13706W        W33240  17.957   0.455   0.093 -0.1111  0.0837 -0.1508
13707W        W33241   4.717   4.343   1.848  0.1817 -0.1356  0.2253
13708W        W33242   2.842  13.923   1.701  0.0582  0.4083  0.3127
13709W        W33243  16.464   1.975  13.055  0.0752  0.1532  0.2818
13710W        W33244   4.013   4.208   4.058  0.3560 -0.0127 -0.1861
13711W        W33245   1.266  13.749  10.792  0.0799  0.0392  0.0655
13712W        W33246   5.440   1.877   3.594  0.0098  0.1443  0.1017
13713W        W33247   7.046   0.947   0.648 -0.3347 -0.0137 -0.3941
13714W        W33248   3.637   3.311  11.493 -0.0106 -0.0257  0.3074
13715W        W33249  15.776   7.715  11.737 -0.0278  0.2069 -0.3822
13716W        W33250  10.029   6.982   1.047  0.1002 -0.0624 -0.1739
13717W        W33251   6.608  13.562   1.845  0.2545  0.0027  0.0967
13718W        W33252  19.277  19.134  12.833  0.1928 -0.0863  0.1394
13719W        W33253  18.821   9.273   0.006 -0.1519 -0.1547  0.1072
13720W        W33254  13.725   8.710   4.582  0.0922  0.0725 -0.0855
13721W        W33255   1.221   5.679  13.942 -0.1322 -0.1092 -0.0062
13722W        W33256  16.238  17.011  13.055  0.2661  0.0876 -0.0916
13723W        W33257  12.300   5.243  14.042  0.0560 -0.2618 -0.2075
13724W        W33258  11.149  13.550   2.517 -0.3365 -0.1241 -0.1236
13725W        W33259  11.620  15.035  12.222 -0.1811  0.1936 -0.0045
13726W        W33260   0.781   2.059  14.097  0.1731 -0.1342 -0.1580
13727W        W33261  15.880   1.564   0.644 -0.1175 -0.1914 -0.0332
13728W        W33262  15.007  14.325   1.422  0.0981 -0.1003 -0.0797
13729W        W33263  11.416  13.791   3.938 -0.1758 -0.3344  0.1624
13730W        W33264  16.762  12.475   2.398  0.2476 -0.1517 -0.0794
13731W        W33265   8.231   8.567  10.940 -0.1802  0.2416  0.1469
13732W        W33266  11.208  15.577   0.196 -0.2082 -0.2502 -0.0005
13733W        W33267   0.869   1.885   2.264  0.0661  0.0234 -0.2134
13734W        W33268  18.985  11.647   3.525  0.4638  0.3046 -0.2566
13735W        W33269  10.110  15.019  11.885  0.0948  0.4054 -0.0917
13736W        W33270   2.137  19.027  13.661 -0.0404  0.1808  0.1451
13737W        W33271  18.474   3.700   4.329 -0.0212 -0.1775  0.1690
13738W        W33272   4.654   0.084   2.294 -0.1482  0.1704 -0.0068
13739W        W33273  12.859  13.122   2.300 -0.0016 -0.0883  0.0684
13740W        W33274  18.236  13.174   2.155  0.0357  0.3826  0.0845
13741W        W33275  18.495  10.751   2.004 -0.0732 -0.1856 -0.0188
13742W        W33276  12.913   2.993   1.896 -0.1373  0.0385  0.1093
13743W        W33277  16.659   1.449   2.226 -0.0113 -0.0931  0.0803
13744W        W33278   4.215   8.622  13.107 -0.1460 -0.0312 -0.1331
13745W        W33279   0.344   4.231  11.574 -0.0969 -0.4337 -0.0938
13746W        W33280   4.312   3.776  13.260 -0.0544  0.1446  0.2346
13747W        W33281  14.839  12.261  10.784 -0.0725 -0.2061  0.1687
13748W        W33282  11.550   7.836   1.069  0.0049  0.2876  0.4018
13749W        W33283   9.422   9.426  13.918  0.2530 -0.4326  0.0363
13750W        W33284   3.750   5.307   3.879  0.3158 -0.0727  0.1811
13751W        W33285   6.300   0.291  12.683  0.5710 -0.0629  0.0975
13752W        W33286  17.217   0.382   1.984  0.0642  0.0872  0.2038
13753W        W33287   3.351   7.265   2.274  0.0654 -0.3403 -0.2326
13754W        W33288  19.039  13.900   2.184 -0.1313  0.0473 -0.1027
13755W        W33289   8.550   7.910   0.956 -0.2367 -0.1210  0.2305
13756W        W33290   7.799   8.996   2.324 -0.1907 -0.0134  0.0594
13757W        W33291   4.476   1.842   1.179  0.0592 -0.0208  0.2246
13758W        W33292   9.283  19.073  12.304  0.0012 -0.2196  0.2127
13759W        W33293   9.761  11.631   3.847 -0.0008 -0.3981  0.3073
13760W        W33294   8.687  10.617  11.389 -0.1684  0.2179  0.0223
13761W        W33295  15.073   3.485  12.152 -0.2968 -0.1267 -0.0517
13762W        W33296  15.859  16.947   9.537  0.1715  0.1142  0.1049
13763W        W33297   5.705  14.755  11.024 -0.0067  0.0352  0.0884
13764W        W33298  15.699   7.954   1.260 -0.1038 -0.1601  0.0920
13765W        W33299  13.092   0.513   1.058  0.0500 -0.0442 -0.1229
13766W        W33300   7.718   7.795  10.744  0.0151  0.3187  0.0866
13767W        W33301   1.905  17.425   2.580  0.0737  0.0673 -0.0003
13768W        W33302   7.565  17.750  12.773  0.0058 -0.4097  0.0525
13769W        W33303   9.042   5.553   1.980  0.0019  0.1134  0.0625
13770W        W33304   1.225  14.061   3.187  0.3174  0.0374  0.0561
13771W        W33305  18.772   6.499  14.247 -0.0251 -0.4936  0.4375
13772W        W33306  16.570   4.994   0.418 -0.4384  0.5662  0.0611
13773W        W33307   6.826  13.809   0.155 -0.2240  0.1618  0.2174
13774W        W33308   9.001   7.450  13.713  0.1911  0.0930  0.0839
13775W        W33309  14.976   0.322  12.313 -0.2904 -0.1295 -0.2767
13776W        W33310   3.704  19.515  13.170 -0.1625  0.0061  0.1323
13777W        W33311   0.489   8.182   3.019 -0.0895 -0.2211  0.2699
13778W        W33312  15.428  12.710  12.760 -0.2281  0.0854 -0.0898
13779W        W33313  16.686   4.918   4.055 -0.2932  0.1019 -0.2608
13780W        W33314   6.515  14.469  11.821  0.3594  0.0135  0.1786
13781W        W33315  17.054  12.879   1.609 -0.2291  0.2660  0.0700
13782W        W33316   7.061  16.847   3.410 -0.2437 -0.0138 -0.2073
13783W        W33317  13.745   2.315   1.703 -0.1959 -0.2986  0.0716
13784W        W33318   1.870   2.352  12.246 -0.0744  0.0713 -0.0179
13785W        W33319   1.488  14.532  13.605  0.3037 -0.0346 -0.2203
13786W        W33320   9.025   7.085   1.550  0.0606 -0.1813 -0.1335
13787W        W33321   0.886   1.624  13.754  0.1263 -0.0142  0.2851
13788W        W33322  16.140  14.043  11.044  0.0449 -0.1003 -0.0705
13789W        W33323  15.710   0.480   0.604  0.2822 -0.2263 -0.0276
13790W        W33324  17.002  18.361  10.727 -0.2976  0.0867  0.1326
13791W        W33325   8.630   9.361   3.412 -0.0052 -0.4384  0.3315
13792W        W33326  18.063   3.572   1.917  0.3252 -0.2576  0.1974
13793W        W33327  13.143  17.688  13.780 -0.0435 -0.0706 -0.1684
13794W        W33328   9.130   6.167   0.867 -0.2547 -0.0666 -0.0779
13795W        W33329  13.399   2.702  11.221  0.0533 -0.1288 -0.3079
13796W        W33330   8.175   2.060  10.899  0.0789  0.3077  0.0657
13797W        W33331  12.667  16.599  12.804  0.2440  0.0888  0.1275
13798W        W33332   7.649   7.391   1.494  0.0853  0.3100 -0.0753
13799W        W33333  12.394  18.238  12.054  0.4723  0.1028  0.1854
13800W        W33334  13.770   6.131  12.201  0.2190  0.0705 -0.0442
13801W        W33335   8.783  12.905  12.032  0.1493  0.1484  0.3350
13802W        W33336  13.186   9.163  11.773  0.1105 -0.0492 -0.1085
13803W        W33337   8.693   2.451  14.237  0.1966  0.0896  0.3587
13804W        W33338   6.587  17.204   0.301 -0.3199 -0.1435 -0.0119
13805W        W33339   8.182   9.039   3.233 -0.0106  0.2352 -0.1728
13806W        W33340   0.485  12.464   0.059 -0.0813  0.0352  0.4407
13807W        W33341  14.873   6.247  13.874  0.0931 -0.2048 -0.1178
13808W        W33342  18.461  19.388  10.548  0.3949 -0.1611  0.1581
13809W        W33343  16.390  11.998  13.257 -0.0755  0.0658 -0.0815
13810W        W33344  11.449  16.010  11.757 -0.0301  0.1186 -0.1124
13811W        W33345  14.304   2.913   1.377 -0.1954  0.0969 -0.0520
13812W        W33346   4.696  17.681  11.710 -0.3381  0.0852  0.1140
13813W        W33347   1.041   8.007  14.206  0.0431 -0.1232  0.0601
13814W        W33348   4.922  15.816  10.945 -0.0736 -0.4687  0.0188
13815W        W33349  15.724   2.304   1.949  0.2737 -0.3745  0.2023
13816W        W33350   2.035  18.375  12.386  0.3814  0.3094  0.2865
13817W        W33351   9.616  10.349   3.124 -0.3975  0.1571 -0.4067
13818W        W33352   2.606  14.229   2.988 -0.1518  0.0999 -0.0719
13819W        W33353  16.161  13.905  10.516  0.0992 -0.0253  0.0379
13820W        W33354  14.695  16.326  10.701 -0.1351  0.3471 -0.1362
13821W        W33355   5.331  18.440   1.766 -0.2041  0.0005  0.1274
13822W        W33356   4.773   3.340  13.258  0.2249  0.0089  0.3226
13823W        W33357   7.988   4.496   2.664 -0.1325  0.0643 -0.1863
13824W        W33358   0.789  18.727  12.974  0.4661  0.1199 -0.1362
13825W        W33359  14.714   2.191   2.888  0.0835  0.3014  0.0335
13826W        W33360  10.821   6.841  13.523 -0.1503  0.2970 -0.2441
13827W        W33361   1.816   3.393   0.641 -0.0704  0.2101  0.1302
13828W        W33362   1.930   6.254   1.444 -0.1695 -0.4132  0.0459
13829W        W33363   4.151   5.573   3.076 -0.0315 -0.0660 -0.3203
13830W        W33364  13.738   3.779  14.203  0.5165  0.1130  0.1461
13831W        W33365  13.189   1.137  13.724 -0.0819 -0.2272 -0.1823
13832W        W33366  16.373   2.384   1.392  0.0620  0.0296  0.2586
13833W        W33367  15.466   1.637   0.348  0.1142 -0.3287  0.1877
13834W        W33368   3.479   6.703  10.414 -0.0979 -0.2227 -0.3030
13835W        W33369   5.507  16.010   2.217 -0.0360 -0.0403 -0.1759
13836W        W33370   3.451   0.638   3.081 -0.1074 -0.3007  0.1057
13837W        W33371   6.454   1.037   0.865  0.0503  0.1657  0.0196
13838W        W33372   2.164  15.157   3.793 -0.1542  0.0361  0.1797
13839W        W33373   7.254  11.068   3.066  0.2424  0.0022  0.1842
13840W        W33374  17.714   2.497   4.705  0.0330  0.1915 -0.0346
13841W        W33375  15.692  16.919   3.068  0.0254 -0.0737  0.1689
13842W        W33376   1.708   8.379   4.249  0.0327 -0.0326 -0.3289
13843W        W33377   0.911  10.032   3.675  0.1091  0.1252 -0.3082
13844W        W33378  13.522   9.480  14.190  0.4562  0.2085  0.1115
13845W        W33379  15.150  14.536  11.996  0.2240 -0.0000 -0.1012
13846W        W33380   3.599  19.412   0.604 -0.0499 -0.0548 -0.0824
13847W        W33381  18.253  13.965   3.255  0.1361  0.0283 -0.0130
13848W        W33382  19.283  16.887  12.337 -0.1414 -0.3086 -0.4076
13849W        W33383   5.389  14.746   1.783  0.3675  0.1942  0.3199
13850W        W33384  19.376   6.025  12.119  0.2613 -0.0721 -0.0295
13851W        W33385  19.064   5.884  13.628 -0.0812 -0.1448  0.0727
13852W        W33386   4.813  15.809  13.301  0.3461 -0.1815 -0.3256
13853W        W33387  10.128   0.762  14.024  0.0830 -0.1733 -0.2137
13854W        W33388   2.515   2.426   1.884  0.1551  0.1333 -0.1038
13855W        W33389  12.574   5.342  11.889  0.1862  0.1185  0.1372
13856W        W33390  12.498  18.727   3.448  0.0942 -0.1904  0.0040
13857W        W33391   1.524   6.849   1.958 -0.1872 -0.3697  0.1394
13858W        W33392   8.249   4.854   2.897 -0.0577 -0.0610  0.2218
13859W        W33393  15.658  12.208  14.134  0.1459  0.0121 -0.0597
13860W        W33394  18.113   8.907  10.080  0.2584  0.0666 -0.2135
13861W        W33395  17.287  16.434  13.225  0.0203 -0.1125  0.1719
13862W        W33396  16.596  16.041   3.898  0.1376 -0.0020 -0.1283
13863W        W33397  15.439  11.614   2.509 -0.0528 -0.0998  0.1266
13864W        W33398   7.045   7.459   1.996  0.0402 -0.2787  0.1646
13865W        W33399  10.316  19.185  12.135  0.2362 -0.3581  0.0675
13866W        W33400  14.868   5.813   1.131  0.0822  0.0106  0.2976
13867W        W33401  11.717  18.809   1.214  0.0017 -0.2772 -0.0740
13868W        W33402   4.577  14.293  14.201  0.2297 -0.1143  0.1102
13869W        W33403  18.942  11.588  10.955 -0.0778  0.0183 -0.0332
13870W        W33404  18.189   0.446   2.844 -0.0624  0.2271  0.3189
13871W        W33405   3.466   9.372   1.402  0.0088 -0.0098 -0.0171
13872W        W33406  11.956   8.617   1.072  0.3244  0.3050  0.0354
13873W        W33407   4.701  14.545  11.504 -0.1850  0.2827  0.1690
13874W        W33408   6.642   5.181   1.919  0.4649 -0.0409 -0.0904
13875W        W33409   5.350  11.882   4.522 -0.3212  0.1176  0.1787
13876W        W33410  13.593   7.446  10.017 -0.2621 -0.0604 -0.3244
13877W        W33411   6.456  14.582  13.362  0.0169 -0.2443  0.0196
13878W        W33412   7.804   5.395   3.324  0.2778 -0.0793  0.0217
13879W        W33413  10.513   1.707  10.885  0.0781 -0.0278  0.1971
13880W        W33414   7.906  17.793  10.636  0.3074 -0.1406  0.0203
13881W        W33415  12.121  11.917  12.484 -0.2682 -0.1078 -0.0405
13882W        W33416   2.003  18.942  11.437 -0.2719 -0.3649 -0.2046
13883W        W33417   8.903   1.156  14.053  0.0001 -0.4376 -0.2528
13884W        W33418   1.671   2.037   1.394  0.0006 -0.2276  0.2481
13885W        W33419   2.774   5.042  12.637  0.2026 -0.0622  0.0129
13886W        W33420  18.816   7.574  11.107  0.1558 -0.1662  0.2140
13887W        W33421   7.460  11.463   0.955  0.0212  0.4717 -0.2939
13888W        W33422   0.262  16.124  10.466  0.1196 -0.2700  0.0978
13889W        W33423  11.259  13.737  10.400  0.0619 -0.0888 -0.0321
13890W        W33424  17.779   3.459   2.362  0.1191 -0.2964 -0.0838
13891W        W33425   9.094  14.613  10.401 -0.1369 -0.0325 -0.1070
13892W        W33426   0.724  12.031  13.708  0.2276  0.3079  0.0670
13893W        W33427  16.359  12.219   3.042 -0.1071 -0.2383 -0.0129
13894W        W33428  14.960  19.306  13.181  0.2566  0.2953  0.0770
13895W        W33429  13.563   2.993   3.989 -0.2270  0.0663 -0.2647
13896W        W33430   1.155  11.165  14.351  0.2406 -0.0005 -0.0751
13897W        W33431   3.298   0.266   1.516 -0.0107  0.0233  0.2645
13898W        W33432  15.826   4.070  12.489 -0.1465  0.1687 -0.2308
13899W        W33433  13.486   8.781   1.937  0.2389  0.3180  0.2552
13900W        W33434   9.044  10.978  12.740  0.0039 -0.0858 -0.1893
13901W        W33435   8.699  13.926  14.207 -0.3268 -0.0356  0.0964
13902W        W33436  16.995   1.810  12.052  0.0193  0.0072 -0.3422
13903W        W33437  19.216   9.025  13.661 -0.1402 -0.3994 -0.0823
13904W        W33438  16.282   1.556   0.937 -0.1249 -0.0276 -0.3149
13905W        W33439  11.656  15.170  13.965 -0.0980 -0.1296  0.1405
13906W        W33440  10.618  17.753  12.620  0.0836  0.0176 -0.1359
13907W        W33441   4.870   6.993   1.303 -0.1153 -0.0998 -0.0907
13908W        W33442   3.151  10.732   1.119 -0.3645  0.1356 -0.0014
13909W        W33443  12.941  12.140  12.442  0.1719  0.4346 -0.0463
13910W        W33444   3.724   2.664   3.817  0.2167 -0.2051  0.0552
13911W        W33445  12.369   8.547  11.986  0.2313  0.3249 -0.0737
13912W        W33446  18.324  12.770  10.376  0.1208 -0.1139 -0.5587
13913W        W33447  11.059  17.241   3.806 -0.0096  0.2100  0.0602
13914W        W33448  14.014  19.470   2.916  0.0423  0.0959 -0.0735
13915W        W33449  10.830  14.179   1.574  0.3111 -0.0533  0.2030
13916W        W33450   4.067  17.118   3.699 -0.0097  0.2858 -0.1266
13917W        W33451  17.040   3.429  12.092 -0.0369 -0.2221 -0.0650
13918W        W33452   1.041   3.384   3.366 -0.2662  0.1906  0.0123
13919W        W33453  17.480   1.233   1.578 -0.1034 -0.1457 -0.2201
13920W        W33454  11.722  10.740  12.497 -0.0275 -0.2137 -0.3186
13921W        W33455   0.350   9.783   3.195 -0.2857  0.0148  0.0586
13922W        W33456  15.812   0.871   4.163 -0.0531  0.0895  0.1913
13923W        W33457   7.208   6.720  11.532  0.0142 -0.0522 -0.2107
13924W        W33458  16.995  10.127   2.145  0.1774  0.0750 -0.1533
13925W        W33459   1.107   0.304  14.053  0.3002 -0.0998 -0.3355
13926W        W33460   1.543  10.303   0.507  0.1923 -0.0406  0.0149
13927W        W33461  15.516   5.871  11.097  0.2132 -0.0652  0.1588
13928W        W33462  16.825   0.872  13.036  0.0373 -0.0879  0.1291
13929W        W33463  11.259  13.413   9.661 -0.2187 -0.2380 -0.2676
13930W        W33464  13.510   2.642   9.849  0.1717  0.0318 -0.1439
13931W        W33465  10.774  10.885   2.033 -0.2746 -0.0261 -0.1151
13932W        W33466  18.200  13.749  10.824 -0.0348 -0.0378  0.0808
13933W        W33467   8.579   2.352  11.589  0.0242 -0.1048  0.2449
13934W        W33468  11.055   5.443  11.549  0.2088  0.1329  0.1542
13935W        W33469   4.405   5.538  10.682 -0.3095 -0.0752 -0.0030
13936W        W33470  18.608  13.311  12.573  0.0358  0.0540  0.0962
13937W        W33471  14.359   0.675  14.277  0.3688  0.1184  0.3279
13938W        W33472   4.227  18.328  10.356  0.0493  0.1130  0.1654
13939W        W33473  14.575  17.343   1.723  0.2627 -0.2376 -0.1132
13940W        W33474   7.977   7.832   3.806 -0.0245 -0.3031  0.2836
13941W        W33475   8.540   9.898  13.893 -0.2489 -0.1519 -0.0615
13942W        W33476   4.697   8.429   1.724 -0.1737  0.0487 -0.0616
13943W        W33477  10.305   9.270   2.989  0.0874 -0.3298 -0.2485
13944W        W33478  16.554   7.411   2.330 -0.2633 -0.1953 -0.0850
13945W        W33479  13.158  12.058   1.893 -0.1430  0.2917 -0.0194
13946W        W33480  16.695  14.995   3.169  0.0159 -0.0499  0.1686
13947W        W33481  11.813   2.122  10.631  0.1787  0.0619  0.0535
13948W        W33482   2.938   8.422   2.943  0.2555  0.1797  0.0694
13949W        W33483  16.268  16.391   1.089 -0.0597  0.1176  0.1755
13950W        W33484  15.424  11.523  11.116 -0.1440  0.0573  0.0576
13951W        W33485   1.193   7.839  11.761  0.4517 -0.3291  0.5510
13952W        W33486   5.338   4.857   3.539  0.2698 -0.0864  0.0114
13953W        W33487  10.601  17.174  10.728  0.1292  0.3562 -0.1878
13954W        W33488  11.048   3.305  14.159  0.1606  0.1942 -0.0991
13955W        W33489   5.603   9.808   0.115 -0.1771  0.0607 -0.1049
13956W        W33490   7.329   7.680  10.401 -0.2011 -0.2826 -0.0387
13957W        W33491  14.461   2.102   0.090  0.2153 -0.0969 -0.3130
13958W        W33492  15.975  17.183   0.072  0.0613 -0.1557  0.0131
13959W        W33493  17.551   3.191   3.287  0.3771 -0.2886 -0.0243
13960W        W33494   8.478   0.373  11.352  0.1055 -0.1407 -0.1612
13961W        W33495   5.761   9.379  11.075  0.0546  0.0486  0.2076
13962W        W33496   4.706   3.646  10.344  0.0323  0.2345  0.0472
13963W        W33497  19.200  17.881   2.532  0.1240 -0.0469 -0.0224
13964W        W33498  18.345  11.350  10.235  0.0280  0.2839  0.0016
13965W        W33499   0.608  16.210  11.769  0.3038 -0.0413 -0.0575
13966W        W33500  18.490   3.466   0.913  0.2699 -0.1000 -0.1712
13967W        W33501  17.020   7.648   2.074 -0.0775 -0.2690 -0.1782
13968W        W33502   7.781  14.497   0.376  0.0856  0.2462 -0.1432
13969W        W33503  14.662   1.041   2.562  0.2441  0.0048 -0.1908
13970W        W33504   3.584  18.690   1.148 -0.0713  0.1727 -0.1275
13971W        W33505   7.152  19.322   4.035  0.0013 -0.0272  0.1980
13972W        W33506   5.472  10.962   1.593  0.1673  0.0446  0.0208
13973W        W33507  15.742   7.113  10.558  0.0742 -0.0901 -0.2131
13974W        W33508   5.195  15.036   3.186 -0.1145  0.0040  0.0700
13975W        W33509  12.329  18.526   2.489 -0.2201  0.3322  0.3055
13976W        W33510   1.887  19.293  10.218  0.0804  0.1467 -0.0022
13977W        W33511   6.186   7.969   2.140 -0.1129 -0.1444  0.0408
13978W        W33512   2.812  18.840  12.087  0.0797  0.0337 -0.0015
13979W        W33513   9.772  12.902   9.760 -0.0381  0.1172 -0.0591
13980W        W33514  17.450  12.106  14.189  0.1225 -0.1985 -0.0936
13981W        W33515  15.237   6.603   2.456 -0.2624 -0.0576 -0.1613
13982W        W33516  14.141  11.837   0.379 -0.0318 -0.0601 -0.0198
13983W        W33517   0.411   6.507   1.830  0.0495 -0.2531 -0.0966
13984W        W33518  10.466   2.622   0.269 -0.0571 -0.1261 -0.1833
13985W        W33519   7.329   9.698   4.590 -0.3395  0.1030  0.1293
13986W        W33520   5.194   7.869  11.624  0.0144 -0.1527 -0.0947
13987W        W33521  19.415   7.307  11.905  0.3102  0.2750  0.1056
13988W        W33522   5.069  15.231  12.225 -0.1369 -0.3087  0.0465
13989W        W33523  17.940   6.977   2.684  0.0496  0.0689 -0.0765
13990W        W33524  17.867  14.772   9.600  0.0045 -0.0845 -0.0642
13991W        W33525   9.187   5.247  12.112 -0.0041  0.0621 -0.0811
13992W        W33526   3.170   2.910   0.166  0.1592 -0.0518  0.1878
13993W        W33527   9.738   4.607   3.479 -0.2017 -0.0091  0.1018
13994W        W33528   9.056   1.963  14.155  0.1044  0.0169  0.1218
13995W        W33529   2.993  18.339  10.433  0.0065 -0.3698 -0.0875
13996W        W33530   1.334  10.603  12.351  0.0815 -0.1001  0.4238
13997W        W33531  18.937  16.318   3.115  0.0666  0.2447 -0.1215
13998W        W33532  16.731   7.656  14.202 -0.2019 -0.0257 -0.0670
13999W        W33533   0.508   8.013   0.055  0.3547  0.0270 -0.0940
14000W        W33534  10.449   1.635   1.711  0.3000  0.0182  0.0690
14001W        W33535  14.141  10.559  12.532 -0.0881  0.0893 -0.1623
14002W        W33536   3.172   2.819   3.358 -0.1852 -0.1600  0.0735
14003W        W33537   6.404   9.444   2.014  0.0099 -0.0368  0.2217
14004W        W33538   9.717  12.850  13.770  0.2835  0.0772  0.2098
14005W        W33539  14.312   0.463  13.751  0.1510  0.0538 -0.1074
14006W        W33540   6.234  11.206   1.026 -0.0333  0.4964 -0.1955
14007W        W33541  17.853  12.137  12.608  0.0629  0.2012  0.1822
14008W        W33542   9.483  15.597   3.410  0.3750  0.2848  0.3424
14009W        W33543  10.685  11.306   3.423  0.3495 -0.3034 -0.0361
14010W        W33544   4.724  18.413  13.692 -0.0417  0.0423  0.0418
14011W        W33545   9.557   9.922  13.945 -0.0588  0.0210 -0.0278
14012W        W33546   0.420  18.642  10.385  0.4824 -0.0728  0.1029
14013W        W33547  13.510  12.490   1.058 -0.0574  0.2981  0.0207
14014W        W33548   4.734   5.002   9.593 -0.0233  0.2266  0.1399
14015W        W33549   0.492   6.067  10.851 -0.0421  0.0157  0.0240
14016W        W33550  16.095   3.684   3.180  0.0318 -0.2520  0.1061
14017W        W33551   4.871  12.396   0.762 -0.0967 -0.1241 -0.1205
14018W        W33552   8.682  13.514   4.172 -0.2540  0.1469 -0.1878
14019W        W33553   0.555   7.806   2.043 -0.3136  0.0706  0.1389
14020W        W33554   2.118  15.943  10.763 -0.0221 -0.4004 -0.1360
14021W        W33555   6.858  10.293  12.007 -0.1737 -0.1084 -0.2388
14022W        W33556   2.302   4.751  13.550 -0.0047  0.0570 -0.4511
14023W        W33557  18.143  19.360   1.609 -0.2958 -0.1929  0.0174
14024W        W33558   6.160   7.435   3.814  0.1626 -0.2029  0.1733
14025W        W33559   3.004   3.997  10.993 -0.1855  0.2065 -0.4377
14026W        W33560  15.717   4.650   2.335 -0.1393  0.0959  0.1164
14027W        W33561  15.124  12.009   1.500  0.0955  0.0748  0.0315
14028W        W33562  10.013   2.879  13.722  0.0786 -0.1511  0.0315
14029W        W33563  15.606  19.407  10.364  0.0962 -0.2152 -0.1705
14030W        W33564   0.424   1.209  10.716 -0.2716 -0.0768 -0.2589
14031W        W33565  10.356   1.530   2.754  0.2414  0.2390  0.1342
14032W        W33566  15.045   6.245  11.479 -0.0112  0.1431 -0.0064
14033W        W33567  15.352   2.331   1.591  0.0109  0.1566 -0.1610
14034W        W33568   1.123  11.980   2.894  0.0597 -0.1420 -0.1294
14035W        W33569  12.111  17.454  10.474 -0.0969  0.0287 -0.5187
14036W        W33570  14.099   8.641  10.415  0.0498 -0.0288  0.0158
14037W        W33571  16.761  12.460  13.342 -0.2051  0.0475 -0.1021
14038W        W33572   4.102  12.661   2.863  0.0688 -0.3176  0.1250
14039W        W33573   3.479   9.697  12.014 -0.2779  0.1159 -0.4048
14040W        W33574  18.860   3.578   0.571 -0.0237  0.2048 -0.4483
14041W        W33575   7.819  16.433  11.327  0.1132 -0.1332  0.0166
14042W        W33576   1.902   6.815   9.422 -0.2218  0.1369  0.0098
14043W        W33577   8.000   2.059  13.311  0.1629 -0.0346 -0.0093
14044W        W33578   8.365   0.664   1.611  0.1283 -0.1009 -0.2010
14045W        W33579  13.206  18.440  12.666 -0.0947  0.0563 -0.1630
14046W        W33580  17.919   8.881  13.927  0.1716 -0.2570  0.2860
14047W        W33581  19.303  10.374  11.455  0.1920 -0.0098  0.0965
14048W        W33582   2.592   9.946  11.887  0.2293  0.1910  0.3064
14049W        W33583  13.128  19.361   3.173  0.0731 -0.0263 -0.0083
14050W        W33584   2.806  12.647   2.470  0.1998  0.2352 -0.1825
14051W        W33585  19.349  11.352  10.684  0.1513  0.1645  0.4317
14052W        W33586  19.085   7.231   0.743  0.4120 -0.2104 -0.0169
14053W        W33587   0.932  17.857  12.299 -0.0706  0.0829 -0.2716
14054W        W33588  13.080  17.578   1.402  0.1892 -0.1723 -0.2651
14055W        W33589  17.208   3.172   1.706  0.0126  0.4027  0.1122
14056W        W33590   4.321   8.124  13.166  0.0788  0.0717  0.0022
14057W        W33591   8.517   5.528   2.098  0.0929  0.2288 -0.0997
14058W        W33592  17.769  10.653   1.307  0.1048  0.2939  0.1774
14059W        W33593  19.506  11.840  12.613 -0.3763 -0.0828  0.2175
14060W        W33594   5.663   1.440   3.265  0.1088  0.1590  0.1541
14061W        W33595  12.571  11.230  12.576  0.3958  0.0819  0.0719
14062W        W33596  19.468   3.770  13.408 -0.1263  0.2470 -0.5058
14063W        W33597  16.283   9.805  13.226  0.1750 -0.0365  0.0803
14064W        W33598  14.701  14.121  12.067 -0.1843  0.1200  0.1800
14065W        W33599   7.723   2.396   2.768 -0.0490 -0.0037  0.2589
14066W        W33600   7.198  15.898   1.160  0.0113 -0.0932  0.1974
14067W        W33601  17.238  10.684   1.290 -0.0338 -0.0569 -0.2301
14068W        W33602   6.103   7.362  13.143 -0.0743 -0.4422 -0.1066
14069W        W33603  19.230   4.046   1.883  0.1057 -0.2420  0.2321
14070W        W33604  12.959  11.114  14.287 -0.0001 -0.2121  0.3421
14071W        W33605   4.853  12.826   1.870 -0.1469 -0.1203 -0.4020
14072W        W33606  10.106  15.675   2.341 -0.1037 -0.3264 -0.2118
14073W        W33607   0.441   0.301  11.666 -0.2213 -0.2815  0.1394
14074W        W33608   3.799   1.209  10.529  0.3340  0.0291 -0.2238
14075W        W33609  13.909  10.030   3.873  0.1064 -0.0901 -0.1080
14076W        W33610  18.337   9.250   4.345 -0.0236 -0.3725  0.0488
14077W        W33611   4.587   0.128  14.120  0.0039  0.0513  0.2237
14078W        W33612  11.122  16.816  14.003  0.3472  0.2218  0.0151
14079W        W33613  17.735   4.088   3.639  0.2136  0.0745 -0.0071
14080W        W33614   7.247  14.306  11.988  0.0668  0.1753 -0.0448
14081W        W33615   6.848   2.345  10.520 -0.1847  0.2247  0.1166
14082W        W33616  12.335   1.095   0.834  0.0206 -0.0543 -0.1164
14083W        W33617   9.181  18.004  13.991  0.0854  0.0289  0.1887
14084W        W33618  12.288  18.990  14.050 -0.0601 -0.1630 -0.0065
14085W        W33619   2.483  17.160   1.937  0.0313  0.1100  0.1746
14086W        W33620  14.039   0.069  14.259  0.0003  0.1325  0.0438
14087W        W33621  19.158   1.399  12.693 -0.2999 -0.1629  0.0549
14088W        W33622  16.527   7.714  12.873  0.2226  0.1871 -0.0069
14089W        W33623   6.770  11.264  11.182 -0.2538  0.0057  0.3083
14090W        W33624  14.663   1.947  10.555 -0.1709  0.2096 -0.0373
14091W        W33625  17.427   4.249   3.214 -0.2120  0.0160  0.0566
14092W        W33626  17.114   8.082   3.968 -0.0172  0.1080  0.2172
14093W        W33627   6.541  19.133   9.526 -0.1761  0.1783  0.1792
14094W        W33628  19.311   9.157  10.788  0.2364 -0.2013  0.3533
14095W        W33629  17.153   4.389  13.039  0.1424 -0.1440 -0.2939
14096W        W33630   3.248  14.470   1.620  0.1085 -0.4301  0.1669
14097W        W33631   1.131  14.134  14.362  0.1972 -0.0015 -0.1400
14098W        W33632   4.842  15.303   2.956  0.0171  0.2057 -0.1723
14099W        W33633   3.653   2.235   4.347 -0.0190  0.0849 -0.0781
14100W        W33634   3.537  16.019  13.230 -0.0474 -0.1988  0.0567
14101W        W33635  11.285  13.770   0.045 -0.2728 -0.1007 -0.3449
14102W        W33636   0.487  18.579   3.420  0.0488  0.1563 -0.0202
14103W        W33637  11.247   1.206  12.806 -0.0407 -0.0238 -0.1068
14104W        W33638  10.326   1.330   3.496 -0.4243  0.1370  0.1337
14105W        W33639  13.909  19.506   1.180  0.0612 -0.1281  0.3333
14106W        W33640   8.741   3.427  14.316 -0.1250 -0.0579 -0.1559
14107W        W33641   2.619   7.800  14.342 -0.0224 -0.0463 -0.1127
14108W        W33642   7.221   9.153  13.182 -0.2086  0.0987 -0.2681
14109W        W33643   7.188   9.077  10.667  0.1636  0.2472 -0.0159
14110W        W33644   6.496   3.462  11.716 -0.1083  0.2088  0.1966
14111W        W33645   5.418  13.357   1.998  0.0936 -0.0676 -0.1346
14112W        W33646   4.027   3.353   2.351 -0.2867 -0.1737  0.0800
14113W        W33647  18.976  14.360  12.573  0.0157  0.0188 -0.1350
14114W        W33648  16.530   2.802  13.661 -0.0424  0.2248 -0.1111
14115W        W33649  11.745   2.726   3.167 -0.0815  0.1004  0.1133
14116W        W33650   0.669  17.704  11.355  0.0557 -0.0109 -0.1676
14117W        W33651  13.653   7.481   2.943 -0.1677  0.0416 -0.1523
14118W        W33652  17.160   1.584   3.558 -0.0847 -0.1615  0.3773
14119W        W33653  10.881  16.204  12.823  0.0364  0.1645  0.0315
14120W        W33654   7.170   1.271  12.424 -0.1657  0.0508  0.1459
14121W        W33655  12.695  12.249   3.118 -0.1883  0.0124  0.1469
14122W        W33656  16.934   7.615  13.232 -0.1080  0.2914 -0.0573
14123W        W33657  19.437  16.288  10.086  0.1706 -0.0882  0.0319
14124W        W33658   9.083   9.832  13.674  0.1108 -0.2775  0.1336
14125W        W33659  19.447   5.355   0.419  0.2033 -0.2726  0.0796
14126W        W33660  11.673   2.854  12.505 -0.2703  0.2519  0.1170
14127W        W33661   2.972  13.590  10.451  0.0131  0.2602 -0.0370
14128W        W33662  11.413   5.690   0.879  0.2018  0.1866 -0.0781
14129W        W33663   1.102   7.193  12.414  0.1157  0.1145 -0.1436
14130W        W33664   6.073  10.678   2.890 -0.2440  0.0094  0.0783
14131W        W33665  11.831  18.514   2.698  0.1921 -0.3427 -0.4982
14132W        W33666   0.744  19.054   3.855  0.1054  0.1458 -0.0840
14133W        W33667   2.117  11.146   3.308 -0.0079 -0.2689 -0.0532
14134W        W33668   2.719  17.123  10.429 -0.2447  0.1337 -0.0085
14135W        W33669  15.898   4.255   3.542 -0.1674 -0.3682  0.0103
14136W        W33670   9.714   7.328  10.300 -0.0263 -0.2346  0.0072
14137W        W33671  19.507  11.508  13.256  0.1746  0.1301 -0.1846
14138W        W33672   0.399   4.156  14.203  0.0962  0.0385 -0.4915
14139W        W33673  18.035  10.204   0.014  0.0613 -0.0700 -0.4067
14140W        W33674   1.822  16.012   0.996  0.2033 -0.0219 -0.0937
14141W        W33675   3.240  11.004  13.344 -0.0246 -0.1631  0.0453
14142W        W33676   6.237   3.682  13.043  0.1977 -0.0148 -0.0382
14143W        W33677   7.313   8.181   2.625 -0.0227  0.1030 -0.2972
14144W        W33678  15.044   7.183  13.448  0.0801  0.2391 -0.0012
14145W        W33679   0.293   3.848   2.317 -0.1128  0.5091  0.0064
14146W        W33680   0.975   5.124  13.905 -0.2724  0.0595  0.2223
14147W        W33681   2.802   1.013   4.066  0.0075 -0.2075 -0.2329
14148W        W33682   4.992  18.723  10.355  0.0062 -0.1886  0.1384
14149W        W33683   5.193   2.808  12.580 -0.0999 -0.0829  0.2359
14150W        W33684   0.196   6.768  14.135 -0.0182 -0.0783  0.4974
14151W        W33685   9.278  14.958  10.725 -0.2205  0.2225  0.0318
14152W        W33686  19.103  15.614   3.561  0.0059  0.1659  0.1487
14153W        W33687   0.171  13.844  12.913 -0.2711  0.2361 -0.2517
14154W        W33688  18.461  14.484  12.620 -0.1899  0.3250 -0.2677
14155W        W33689  18.765  15.305   2.177  0.1165 -0.1475 -0.2825
14156W        W33690   7.766  13.501   4.392  0.2452 -0.0552  0.0783
14157W        W33691  12.347   5.558   0.262 -0.1178  0.3089  0.0160
14158W        W33692   3.192   8.242   3.820  0.1550 -0.4018  0.0713
14159W        W33693  14.809  10.981  11.333 -0.3888  0.0332 -0.1236
14160W        W33694   0.801   3.878  10.618  0.0952  0.2556  0.0606
14161W        W33695  16.381   3.445   1.955  0.0684 -0.0564 -0.2508
14162W        W33696   6.776  11.056  13.835 -0.0601 -0.1301  0.2606
14163W        W33697   9.834  10.432   4.358  0.0163  0.5036  0.1073
14164W        W33698   1.684   4.306   1.673  0.0837 -0.0678 -0.0168
14165W        W33699   5.428  10.705   0.646  0.3004 -0.0744 -0.0228
14166W        W33700   1.272   7.468  12.910 -0.1739  0.2114 -0.2713
14167W        W33701   2.670   3.419   1.927 -0.2369  0.1259  0.0620
14168W        W33702  18.947   1.860   0.321  0.0407 -0.0318  0.1097
14169W        W33703   9.074  10.776  11.762  0.1100  0.2911 -0.1332
14170W        W33704  15.595   0.792   2.875  0.0465  0.1616 -0.1553
14171W        W33705   1.836   8.904  10.503 -0.0904 -0.1101  0.3520
14172W        W33706   0.303  10.683   9.774 -0.2009 -0.1434  0.1029
14173W        W33707  13.889  13.951   0.199 -0.1633 -0.1232  0.0988
14174W        W33708  10.789  18.914   3.515 -0.0728  0.0790  0.2200
14175W        W33709   3.170  12.610   3.502 -0.0453 -0.0445  0.1585
14176W        W33710  11.529  11.671   3.930 -0.0795  0.1651 -0.3202
14177W        W33711   4.811   8.929  14.266 -0.3907 -0.1887 -0.1454
14178W        W33712  13.579   6.199   1.046  0.0354 -0.1092 -0.0504
14179W        W33713   9.308   2.683   2.621  0.1129 -0.0738  0.0219
14180W        W33714  13.917   7.919  13.483  0.0815 -0.0957 -0.2206
14181W        W33715  15.652   9.625  13.137 -0.2004 -0.0755  0.1525
14182W        W33716  13.810  13.263  10.485 -0.2209  0.1881  0.0203
14183W        W33717  13.373  12.192   1.495  0.3404 -0.2429 -0.0727
14184W        W33718   7.513   2.849   2.808  0.1684  0.1914  0.0484
14185W        W33719  11.703  15.617   0.520  0.2685  0.1724 -0.3211
14186W        W33720  19.136   2.204   2.661  0.1312 -0.1837  0.2031
14187W        W33721  18.986  18.707   3.437 -0.1383 -0.0801  0.3216
14188W        W33722  19.236  10.038   2.342 -0.2039 -0.2787 -0.0609
14189W        W33723   8.766  18.394  13.017  0.2336  0.0702 -0.0635
14190W        W33724  12.128   9.044  13.045 -0.1507 -0.3355 -0.1172
14191W        W33725  14.700   0.174   0.617 -0.1604  0.2893 -0.2159
14192W        W33726   9.765   3.403   1.718 -0.1555 -0.1808 -0.0167
14193W        W33727  17.554  15.806   2.774 -0.2508 -0.2581  0.0911
14194W        W33728  13.601   3.638   3.076  0.0768 -0.0518 -0.1675
14195W        W33729  17.514   6.151  12.723  0.0607  0.0886 -0.1040
14196W        W33730   5.246   5.606  14.213  0.2027  0.0251 -0.3053
14197W        W33731   6.342  17.793   3.370 -0.0210  0.0025  0.0456
14198W        W33732  18.449  18.205   3.747  0.3359  0.0514  0.0795
14199W        W33733  15.000  19.009  12.232 -0.0193  0.1242 -0.1257
14200W        W33734   3.697   2.013  10.050 -0.3506 -0.1355  0.3515
14201W        W33735  16.433  13.967  12.733 -0.3709  0.1964 -0.0764
14202W        W33736  15.554  12.789  10.332 -0.0279  0.1193  0.1420
14203W        W33737   3.191  11.521   1.051 -0.2991  0.2450 -0.0268
14204W        W33738   8.134   7.984  10.545  0.1773  0.1228 -0.0939
14205W        W33739  16.896  15.463  13.001  0.1631  0.1350  0.0984
14206W        W33740   9.437   8.493   0.315 -0.0995  0.1371  0.5214
14207W        W33741  10.874   4.494   0.440  0.2458  0.1365 -0.2266
14208W        W33742  13.116   2.535   2.575 -0.1271  0.1871 -0.0985
14209W        W33743   0.211   7.273   5.476  0.2250  0.0753 -0.2516
14210W        W33744  18.323   5.402  13.023  0.0146 -0.1302  0.1982
14211W        W33745   5.483   2.946  13.922 -0.2320 -0.0493 -0.1556
14212W        W33746  15.011   9.992  12.273 -0.2258 -0.0605  0.0664
14213W        W33747   3.284   4.914   2.055 -0.2528 -0.0423  0.0988
14214W        W33748  12.872  11.759   2.253 -0.2371 -0.0791  0.0492
14215W        W33749  17.332   4.620   1.493  0.3130  0.2467 -0.0254
14216W        W33750  17.645  19.149  10.807  0.0787  0.1539  0.1103
14217W        W33751  19.347  13.594  13.180  0.2415 -0.0966 -0.0340
14218W        W33752  15.177   9.192   4.361 -0.0909  0.0591  0.1516
14219W        W33753  15.092  19.331   3.978  0.1082 -0.0560 -0.2519
14220W        W33754  18.497  17.832   1.905  0.0544 -0.0898 -0.0804
14221W        W33755   5.261   9.779  14.017 -0.2668 -0.1338 -0.1922
14222W        W33756  16.591  13.069   1.780 -0.2269 -0.1191 -0.0353
14223W        W33757   1.607   2.278   0.966  0.0337 -0.1498  0.3295
14224W        W33758   3.398   4.286  13.123 -0.1282 -0.1193 -0.3243
14225W        W33759  16.735   4.896   3.533 -0.1295  0.2609  0.4383
14226W        W33760   0.771   5.134   0.040  0.1721 -0.5125 -0.3369
14227W        W33761   0.639   4.270   0.277 -0.3042  0.2136  0.1295
14228W        W33762  18.600  10.789  10.865 -0.5824  0.2510 -0.1046
14229W        W33763  14.667  13.677  11.735  0.0971  0.0554  0.1597
14230W        W33764   8.943   0.438   1.347 -0.3180  0.0702  0.1353
14231W        W33765   6.433   6.495   3.129 -0.0461 -0.2056  0.0798
14232W        W33766   8.497   2.972  14.311 -0.1590 -0.0062  0.0270
14233W        W33767   8.652   6.144   1.012  0.2197 -0.1383  0.0690
14234W        W33768   3.865  14.230   1.936 -0.3803 -0.0407 -0.2139
14235W        W33769   2.284  10.713  11.490  0.2601  0.1183 -0.2783
14236W        W33770   1.710  13.912   0.522  0.1107  0.1743  0.0466
14237W        W33771  10.940  14.122   3.275 -0.3007 -0.0660 -0.2548
14238W        W33772  17.590  10.618  10.393 -0.1093  0.0374  0.2824
14239W        W33773   6.059  12.968   3.602 -0.0090 -0.2737 -0.2935
14240W        W33774   0.290   0.209   0.538  0.1013  0.1319 -0.2482
14241W        W33775   7.938   6.459  13.608  0.0461  0.1280  0.0746
14242W        W33776  14.824   3.919   3.231  0.1650 -0.0447 -0.2079
14243W        W33777   9.024   3.256   0.709 -0.2211  0.0672 -0.1845
14244W        W33778  15.252   8.664   2.546 -0.1670  0.2213  0.2238
14245W        W33779   8.039   7.707   2.786 -0.1691  0.2655 -0.3805
14246W        W33780  12.875   9.317   3.068 -0.2411 -0.0363  0.2785
14247W        W33781   2.551  14.305   0.770 -0.2172 -0.0513 -0.2203
14248W        W33782  16.338   9.493   3.888  0.1123  0.1322  0.0574
14249W        W33783  11.177   3.118   2.924  0.1379 -0.1869  0.2241
14250W        W33784  13.164   2.364   3.122 -0.1997  0.2284  0.2874
14251W        W33785  19.475   9.976   4.569  0.2373  0.1432 -0.0905
14252W        W33786   6.207   7.126  10.415  0.1707 -0.3030 -0.0042
14253W        W33787   7.612   0.466  11.673 -0.0051  0.0397  0.2264
14254W        W33788  15.941  10.555  12.206 -0.0745  0.1970  0.3407
14255W        W33789   7.039   8.186  11.723  0.1071 -0.2717  0.0986
14256W        W33790   9.933  14.120  13.012  0.2889  0.1569  0.1017
14257W        W33791  11.732  13.351   0.534 -0.1273 -0.1561  0.2948
14258W        W33792   1.769  14.733  13.251  0.1595 -0.1516  0.0153
14259W        W33793  13.526  18.828  11.530  0.0439 -0.2187 -0.2592
14260W        W33794   8.657  11.751  11.300 -0.1286 -0.0065  0.2639
14261W        W33795  19.091  14.480   3.142  0.0425  0.0653 -0.0811
14262W        W33796  15.438   9.701   2.740  0.1815 -0.1000  0.1681
14263W        W33797  16.748   2.223   1.703 -0.2808  0.3742 -0.1522
14264W        W33798   4.924  16.831   4.322  0.0070  0.6062  0.1236
14265W        W33799   7.013  12.848  13.799 -0.0673  0.1454 -0.2050
14266W        W33800  14.959  17.418  12.792 -0.0882  0.1414 -0.1820
14267W        W33801   2.846   7.329  14.259 -0.0721 -0.1983  0.3325
14268W        W33802   6.235   7.472  11.897 -0.0815 -0.0892 -0.0673
14269W        W33803   4.747  16.161  10.593  0.1556 -0.1277 -0.1799
14270W        W33804   5.055   0.928   2.704 -0.0846 -0.0873  0.1715
14271W        W33805   9.696   4.431   2.124 -0.1481  0.0238 -0.2099
14272W        W33806   5.411  18.144  14.213  0.3462 -0.0443  0.0927
14273W        W33807  14.833  19.234  10.359 -0.1330  0.0750  0.0208
14274W        W33808  15.124  16.657  14.323 -0.0877  0.1473  0.2897
14275W        W33809   7.350   0.338  11.260  0.2025 -0.0826 -0.1536
14276W        W33810   1.889  15.566  10.965 -0.2525  0.0583 -0.0672
14277W        W33811  19.374  13.508  10.346  0.0317  0.0050 -0.0421
14278W        W33812  10.686  12.267   2.181 -0.0365  0.0985 -0.4916
14279W        W33813  11.987  11.231  10.878  0.2282  0.6013  0.4449
14280W        W33814   0.723   9.005   0.940 -0.0208  0.0083 -0.3589
14281W        W33815   4.319  14.504   3.999 -0.0111  0.2137 -0.0061
14282W        W33816   7.997   4.803   0.942  0.0407  0.1321 -0.0279
14283W        W33817  16.797  16.265   1.453  0.1497 -0.0002  0.1849
14284W        W33818  14.615  13.356   2.132 -0.1647 -0.0372  0.1936
14285W        W33819  13.238  12.896   1.247  0.1376  0.2711 -0.0481
14286W        W33820   8.175  17.295  14.316 -0.0334 -0.1702 -0.0116
14287W        W33821   0.626  18.157  11.997 -0.0158 -0.0794  0.0426
14288W        W33822   9.464   0.914  13.097 -0.0559 -0.2997 -0.2153
14289W        W33823   6.378  13.420   3.236  0.0862 -0.1513 -0.0091
14290W        W33824  10.912   0.001   2.158 -0.2225  0.1630 -0.0165
14291W        W33825   5.429   0.367  10.523 -0.0300  0.1805  0.2868
14292W        W33826   6.283   9.175   0.622  0.1342  0.0921  0.3023
14293W        W33827   6.348  15.939  14.074  0.1108  0.0694 -0.2596
14294W        W33828  18.026   3.328  14.358 -0.0656 -0.4206  0.4146
14295W        W33829  11.417  12.987   4.625  0.0161  0.2615  0.1176
14296W        W33830  16.243  13.248  10.845  0.0285 -0.3504  0.0111
14297W        W33831   1.461  12.728   4.252  0.3206 -0.2625 -0.0445
14298W        W33832   2.424   9.720  12.347 -0.1701 -0.0618  0.1174
14299W        W33833  18.488   3.463  14.281  0.1255 -0.1124  0.0651
14300W        W33834   3.438  15.420   3.715  0.0372 -0.2080  0.0738
14301W        W33835  14.880   0.498  13.557  0.4736  0.0132 -0.1783
14302W        W33836  16.295  19.004  14.221 -0.0973 -0.0360 -0.0089
14303W        W33837   4.507   8.003   0.360  0.4391 -0.1459  0.2237
14304W        W33838   6.628   2.782  10.236  0.2582 -0.0282  0.1012
14305W        W33839  16.683  11.950   1.600  0.0535  0.1069  0.3272
14306W        W33840   4.560  16.903  14.330  0.2779 -0.2863  0.0889
14307W        W33841   6.099  19.495   3.308 -0.0198  0.1072 -0.1286
14308W        W33842  14.309   1.460   5.114 -0.1846  0.1871 -0.0367
14309W        W33843  17.608  16.753   2.963 -0.0587  0.1056 -0.2076
14310W        W33844  12.342   2.263  13.349  0.1811 -0.0117  0.2648
14311W        W33845  11.852   1.995  12.545  0.1212 -0.2325  0.2485
14312W        W33846  13.161  11.704  12.231  0.1768  0.1840  0.1666
14313W        W33847  17.862  18.586  13.278 -0.2499 -0.1230 -0.0287
14314W        W33848  18.382  16.796  13.939  0.1075  0.0246  0.1335
14315W        W33849  19.165  11.308  12.958 -0.2114  0.2440  0.0432
14316W        W33850  17.667   5.686  12.515 -0.0879 -0.0178  0.2417
14317W        W33851   7.083  13.522  13.122 -0.2871 -0.1507  0.1489
14318W        W33852   4.688   3.034  13.788 -0.1301  0.1626  0.1232
14319W        W33853   0.134   0.208  12.092  0.5185  0.1906  0.2738
14320W        W33854   7.100   7.942  14.155 -0.0918  0.1350 -0.0888
14321W        W33855   2.986   2.186   3.647 -0.2284 -0.0267 -0.0082
14322W        W33856  16.793   6.306  12.310 -0.2942 -0.1669 -0.0614
14323W        W33857  10.517   2.131  13.771  0.1518  0.2971 -0.0831
14324W        W33858   7.678   4.506   1.219 -0.0384 -0.2485  0.2014
14325W        W33859   2.462  14.032   3.473 -0.2941  0.0424  0.4585
14326W        W33860  10.480   3.122   4.775 -0.1776  0.3000  0.2568
14327W        W33861   8.962   0.083   2.953  0.1003  0.0198  0.0732
14328W        W33862  12.237   2.390   3.469  0.0580  0.3187  0.0960
14329W        W33863   7.016   4.409   2.397  0.1793 -0.0654 -0.0347
14330W        W33864   9.530   8.208  13.786 -0.1774 -0.0825  0.0440
14331W        W33865  13.618  15.028  12.562  0.3486  0.2409  0.0370
14332W        W33866   4.957  17.863  12.041 -0.0885 -0.1251 -0.2291
14333W        W33867   7.385  12.559  13.080  0.0039 -0.2017 -0.3557
14334W        W33868   6.003  10.313  14.266  0.2875  0.1556 -0.0222
14335W        W33869  12.845  16.242  13.955 -0.0379 -0.1451  0.0739
14336W        W33870   6.198  16.408  13.339 -0.0058 -0.0233  0.2906
14337W        W33871   7.275  17.583  10.625  0.2257  0.1412  0.2972
14338W        W33872  11.380   6.554   1.525 -0.0402 -0.2009 -0.0957
14339W        W33873  15.144  13.450   0.638 -0.0598 -0.3581 -0.1306
14340W        W33874   6.619   8.712   3.889 -0.1817  0.2309  0.1282
14341W        W33875  13.891   0.078   3.725  0.1411  0.0410 -0.0689
14342W        W33876   2.041   3.560   2.581 -0.1206 -0.0937  0.2467
14343W        W33877  10.329   5.088  12.928 -0.2105 -0.0827 -0.1579
14344W        W33878   0.245  10.207   2.478  0.1127  0.0758 -0.1853
14345W        W33879   3.332  13.784   4.207  0.3135 -0.1378 -0.0011
14346W        W33880   9.652   0.555   3.607 -0.0622  0.1139 -0.1169
14347W        W33881   1.745  12.345   1.850 -0.0002  0.0715  0.2007
14348W        W33882  11.668   6.927  13.145 -0.1525 -0.2061 -0.0121
14349W        W33883  17.254  12.401   2.777 -0.4831 -0.0422  0.0038
14350W        W33884   6.208  17.808   0.193 -0.1097 -0.2179  0.1367
14351W        W33885  13.704   4.223  12.338  0.3951 -0.1624 -0.1304
14352W        W33886  10.686   9.338  12.972  0.0038  0.2302  0.1293
14353W        W33887   8.704   9.085   2.947  0.1223 -0.3670 -0.0264
14354W        W33888   8.373  13.647  12.629  0.0926 -0.1832 -0.1601
14355W        W33889   3.816   0.347   0.784  0.2788  0.3001  0.0085
14356W        W33890   6.370   1.294   3.856  0.0464  0.1778  0.2108
14357W        W33891   1.710  12.755   9.818  0.1590 -0.1677 -0.0538
14358W        W33892  10.885   6.457  10.249  0.3818  0.2868  0.2805
14359W        W33893  17.025   8.006   1.611 -0.2325  0.1492  0.2163
14360W        W33894  11.023   6.912   3.377 -0.2629 -0.0591  0.0056
14361W        W33895  16.658   3.727  11.996  0.2113 -0.1517 -0.1783
14362W        W33896  11.295   2.885   0.807  0.0232 -0.3560  0.2847
14363W        W33897   7.175  16.853   3.918  0.0990  0.0639 -0.1146
14364W        W33898  16.873   2.465   1.256  0.0496 -0.0117  0.0523
14365W        W33899   8.885  12.609  12.486 -0.0696 -0.4545 -0.0447
14366W        W33900  10.058  11.249   2.156 -0.2724 -0.0458 -0.0414
14367W        W33901   5.632  13.036  10.708 -0.1691  0.0965 -0.1732
14368W        W33902   3.493  15.211  11.182 -0.1007 -0.1591  0.0072
14369W        W33903  14.104  18.338   3.180 -0.2152 -0.1173 -0.1719
14370W        W33904  13.473  16.189  13.344  0.3045  0.0335  0.1045
14371W        W33905  12.605   0.072   1.643 -0.3882 -0.2726  0.0779
14372W        W33906  17.148  15.302  11.738  0.3698  0.1975  0.1191
14373W        W33907   2.050   2.002  10.076 -0.3172  0.1043 -0.0915
14374W        W33908   7.955  15.458   3.941  0.1600  0.2383 -0.1838
14375W        W33909   8.850   2.821  12.272  0.0100  0.0059  0.1583
14376W        W33910   1.496   5.941   5.168  0.1689 -0.2222  0.2054
14377W        W33911  14.473   5.691  11.622  0.1261  0.1445 -0.0902
14378W        W33912  19.424  14.772  10.028 -0.0578 -0.0298 -0.0503
14379W        W33913   2.144   1.604  12.425  0.2593  0.1332 -0.0766
14380W        W33914   7.994  12.704  13.501  0.0721  0.1055  0.0067
14381W        W33915  15.930  18.348  12.984 -0.0344  0.0785 -0.4297
14382W        W33916  15.934   3.701   3.646  0.1472 -0.1350 -0.1162
14383W        W33917   3.939  17.912  11.902 -0.1435 -0.3263 -0.2062
14384W        W33918  17.762   0.442   1.194 -0.2872  0.0793 -0.2803
14385W        W33919  12.436   7.496   0.213  0.0274 -0.2051 -0.0959
14386W        W33920  13.619   7.766  12.186 -0.0108  0.2129 -0.2802
14387W        W33921   3.006   8.728   1.455 -0.0546  0.1115 -0.0805
14388W        W33922  12.685   0.742   0.731  0.3870 -0.3093 -0.0863
14389W        W33923   5.129   3.054  11.791  0.1395 -0.1306 -0.1330
14390W        W33924   8.899  16.562  11.335 -0.3916  0.0951  0.0298
14391W        W33925  14.988  11.034   1.473 -0.0548 -0.0522 -0.3941
14392W        W33926   7.727  10.203   0.933 -0.1573  0.1435 -0.0297
14393W        W33927  16.008  10.936  11.006  0.1621 -0.2252 -0.0584
14394W        W33928  12.878  17.035  10.416  0.2225 -0.0156  0.1591
14395W        W33929   6.576  10.515  12.674  0.1495  0.1621  0.1752
14396W        W33930  19.368  13.650  12.449 -0.2098  0.0808  0.1130
14397W        W33931  16.944   5.712   1.606 -0.1096  0.0413 -0.1867
14398W        W33932  17.947   8.228   0.704  0.3090  0.0894  0.2794
14399W        W33933  13.306   2.050   0.654  0.1107 -0.0038  0.1073
14400W        W33934  14.705  13.958  10.370 -0.1713  0.2276 -0.1680
14401W        W33935  10.970  11.666  13.452 -0.0074 -0.2506  0.1788
14402W        W33936  12.420   3.695   1.573 -0.5177 -0.1388 -0.1014
14403W        W33937  10.073   7.811   1.358  0.0009  0.2740 -0.0917
14404W        W33938   4.323   6.362  11.937 -0.0145 -0.1251  0.2734
14405W        W33939   6.298  14.106  11.609  0.1256  0.0591 -0.0025
14406W        W33940   4.815  12.769   0.338  0.1948 -0.2513 -0.2834
14407W        W33941  11.518  12.861   0.702  0.1008 -0.1585 -0.0133
14408W        W33942  18.102  17.498   1.721 -0.0174 -0.1589 -0.2233
14409W        W33943   9.906  10.771   3.210 -0.1589 -0.1110  0.5092
14410W        W33944   9.450   0.447   2.360 -0.2887 -0.2091  0.2944
14411W        W33945   9.737   9.240   2.947 -0.0763 -0.1778  0.1463
14412W        W33946   2.399   4.454   1.245 -0.0054  0.0211  0.1367
14413W        W33947  12.192   0.034  13.508  0.1851  0.1187 -0.0768
14414W        W33948   0.518   8.370   2.121 -0.1310 -0.2314  0.0324
14415W        W33949  11.082   8.270   0.577 -0.0379  0.0147 -0.2016
14416W        W33950  19.194  12.693  13.179 -0.0293 -0.1441  0.1689
14417W        W33951   1.405  12.431   2.931  0.0404 -0.0219 -0.1392
14418W        W33952  13.825  14.496  10.734 -0.2675  0.0534 -0.0150
14419W        W33953  10.067   3.148  12.429  0.0805 -0.2333  0.0873
14420W        W33954   1.683  11.934  10.931 -0.0737  0.4042  0.2320
14421W        W33955  16.972   9.417  10.691  0.1222 -0.6297  0.0951
14422W        W33956   1.997  17.101   1.354  0.1066 -0.2389 -0.0043
14423W        W33957  13.891  17.440  14.202  0.2277 -0.0609 -0.1837
14424W        W33958   4.649  17.227   2.642  0.0808  0.0911  0.1219
14425W        W33959  13.394   9.174   0.310 -0.1356 -0.2051  0.0168
14426W        W33960  18.593  10.854  14.340 -0.0066 -0.0989  0.1453
14427W        W33961  10.102  14.198  13.854  0.0874  0.0784  0.1028
14428W        W33962  19.131  13.247   0.467  0.4310  0.1095  0.0223
14429W        W33963   5.725  10.731  12.166  0.1208  0.0469  0.2554
14430W        W33964   1.579  15.816  14.370 -0.0917 -0.4153 -0.0879
14431W        W33965  14.246  12.549  11.052  0.0912  0.3566  0.0220
14432W        W33966  10.683   5.791   0.620  0.1066 -0.3026 -0.2267
14433W        W33967   0.192   5.824   1.227  0.0830  0.1542 -0.1286
14434W        W33968  16.205   5.348   4.580 -0.3986  0.0502  0.2532
14435W        W33969  16.775  14.682   2.722  0.1358  0.0508  0.0811
14436W        W33970  15.250  17.154   2.359  0.3489 -0.0713  0.4763
14437W        W33971   1.231  13.255   1.651  0.1385 -0.0280 -0.0167
14438W        W33972   9.843   7.423  12.085 -0.1158  0.0759  0.0856
14439W        W33973   0.553  10.134   0.493 -0.0996 -0.1419 -0.0950
14440W        W33974  12.700  11.508   2.709  0.0485  0.0711 -0.0376
14441W        W33975   6.820  18.040   1.257  0.0421  0.2523  0.1168
14442W        W33976  18.904   0.234  12.424  0.1362 -0.1917 -0.0646
14443W        W33977  17.673  18.280   0.767  0.1643  0.1337 -0.0405
14444W        W33978   9.578   2.584   0.869 -0.1636 -0.0414 -0.2922
14445W        W33979   0.978   2.072  12.214 -0.3900 -0.3591 -0.1390
14446W        W33980  16.848   4.138   2.255  0.2541  0.1402  0.1504
14447W        W33981  14.016   1.553   1.341 -0.0010 -0.1048 -0.0179
14448W        W33982  14.336  15.142  10.948  0.2644  0.2445 -0.1833
14449W        W33983  17.720   1.305  14.320 -0.2065  0.3339 -0.1104
14450W        W33984   1.177  17.373  10.006  0.1419  0.2384  0.1209
14451W        W33985   2.208  12.412  13.635 -0.0335  0.0688 -0.0584
14452W        W33986   2.692   8.324  10.576 -0.1030 -0.3933 -0.0225
14453W        W33987  15.780  11.649   2.018 -0.3981 -0.1032  0.1299
14454W        W33988   3.381  10.151  11.729  0.1673  0.0871  0.0013
14455W        W33989   7.545  18.673  14.183 -0.0077 -0.0487 -0.1244
14456W        W33990   6.670  17.751  12.499 -0.0144  0.0984 -0.2125
14457W        W33991   9.920   4.130   0.020 -0.1308  0.1363  0.2082
14458W        W33992  16.579  13.658  10.715 -0.0992  0.0040 -0.0388
14459W        W33993  16.992  10.566   2.613 -0.1099 -0.1590 -0.1185
14460W        W33994   4.704   3.055   2.859 -0.2173  0.1049  0.0002
14461W        W33995  15.147   8.854  12.044 -0.0171 -0.0598 -0.3501
14462W        W33996   0.413  18.038   2.717 -0.0060 -0.2645 -0.1289
14463W        W33997   3.375  16.096   3.726  0.1956  0.2243 -0.2067
14464W        W33998   8.957   9.381   2.509  0.1315  0.0185 -0.0811
14465W        W33999   5.282   6.318  13.603  0.2397 -0.0169  0.2183
14466W        W34000  10.517   3.783  11.656 -0.1376  0.1329 -0.1083
14467W        W34001   6.666   0.768  14.029 -0.1023  0.2840  0.4853
14468W        W34002   6.110  17.920   1.477  0.1180  0.2033  0.1342
14469W        W34003   6.253   4.913   3.158  0.3377  0.1679  0.0279
14470W        W34004   9.194  15.805   2.798 -0.0840 -0.0415  0.2508
14471W        W34005   5.998  18.470  12.061  0.3973 -0.1940  0.3083
14472W        W34006   7.172  14.295  12.623 -0.2215  0.1585  0.2802
14473W        W34007  13.501   0.758  10.136 -0.2844 -0.3093 -0.2065
14474W        W34008   3.489   4.451  10.259 -0.1566 -0.0875  0.0492
14475W        W34009  18.472   4.094   4.000 -0.1336  0.1437 -0.2547
14476W        W34010  13.420   3.351   1.823  0.1625  0.2930  0.1177
14477W        W34011  11.695   6.406  13.192 -0.1709 -0.0919 -0.1582
14478W        W34012  15.257   8.489   0.351  0.1152  0.0999 -0.1015
14479W        W34013   6.819   5.791  13.394 -0.0561  0.0342  0.2544
14480W        W34014   7.780   1.791   3.735 -0.1876 -0.0333 -0.1307
14481W        W34015   0.719   9.308   0.524  0.0147 -0.2540  0.0059
14482W        W34016  14.125  13.780   2.830 -0.0724 -0.1741  0.1086
14483W        W34017   3.117   9.684   0.239  0.1040 -0.0784  0.1685
14484W        W34018   1.962   8.022   2.092 -0.0813 -0.1473 -0.1118
14485W        W34019  15.019  15.690   1.502 -0.1537 -0.0588 -0.1382
14486W        W34020   4.679   3.675   3.080 -0.1058  0.3780 -0.0790
14487W        W34021  15.143   5.913   1.614  0.1500 -0.0632 -0.0795
14488W        W34022   1.513  16.641  12.770 -0.1914  0.3357 -0.1636
14489W        W34023   7.977   8.701  13.505 -0.1662  0.0935  0.2715
14490W        W34024   0.182   0.395   4.069 -0.0037 -0.2586 -0.2013
14491W        W34025   1.724   8.786  11.138 -0.3547 -0.0150 -0.0499
14492W        W34026   9.991  17.615   2.426 -0.1196  0.3745 -0.1280
14493W        W34027   7.009   4.078   1.901  0.0781 -0.0275  0.3060
14494W        W34028  14.946  17.268  10.061  0.4550 -0.3245 -0.2398
14495W        W34029   1.986  13.775   1.457  0.1132 -0.0867 -0.0591
14496W        W34030   4.852   4.680   2.221  0.4181  0.1288  0.0615
14497W        W34031   7.560  18.349  10.989 -0.1348  0.1371  0.0961
14498W        W34032   0.868   8.694   4.275 -0.0842 -0.1616  0.2101
14499W        W34033   3.219   2.432   2.449  0.1026  0.2550  0.0787
14500W        W34034   6.439  19.229   2.026  0.3160  0.0426  0.2453
14501W        W34035   9.909   9.962  11.026 -0.1163 -0.0559 -0.1552
14502W        W34036   3.787   5.253   0.108  0.2351 -0.0898  0.0916
14503W        W34037  11.255  16.359   3.581  0.1028 -0.1244 -0.1776
14504W        W34038   2.770  13.637   3.398  0.0811 -0.2684 -0.1637
14505W        W34039  15.994  12.931  13.467  0.1209 -0.1814  0.2624
14506W        W34040  17.080  18.510  13.984 -0.1623 -0.0698  0.0409
14507W        W34041   7.587   7.987   0.474 -0.2299 -0.0121  0.0595
14508W        W34042   0.918  14.549  11.059  0.0856 -0.1654  0.0581
14509W        W34043  13.621  15.659   1.836  0.0490  0.1308  0.2815
14510W        W34044   2.994  14.511  14.124  0.0061 -0.0681  0.0504
14511W        W34045   8.789  15.780  10.923 -0.5196  0.3428  0.3330
14512W        W34046   5.471  15.944   3.099  0.2308 -0.1962 -0.0426
14513W        W34047   1.227  12.713   3.750 -0.3852  0.1463  0.3731
14514W        W34048   8.895   8.354  11.637 -0.1301  0.0551 -0.0726
14515W        W34049  14.320   9.940   2.973 -0.1210 -0.1032 -0.0216
14516W        W34050  15.958  17.819  11.404  0.0481 -0.0492  0.3303
14517W        W34051  13.356  14.050  11.515 -0.0279  0.0725  0.0364
14518W        W34052  13.189   7.792   2.057 -0.4015  0.0815  0.4459
14519W        W34053   8.377  12.516  13.265  0.2127  0.0188  0.0022
14520W        W34054   4.653   8.988   0.522 -0.1047  0.1506  0.1370
14521W        W34055   2.214   9.876   1.510 -0.3031  0.0993 -0.0073
14522W        W34056   5.183   1.760  11.560 -0.2008  0.2214 -0.0767
14523W        W34057  11.101   0.987   1.725 -0.0280  0.0963 -0.3981
14524W        W34058  12.581   1.223  11.913 -0.1425 -0.1421 -0.0855
14525W        W34059  16.635  11.144  10.234 -0.3250  0.0712 -0.1264
14526W        W34060   5.015  14.450   1.656 -0.0919 -0.1057  0.1682
14527W        W34061  11.735  16.751  10.883 -0.1513  0.1607  0.1131
14528W        W34062  18.570   9.768   3.430 -0.0307  0.1143 -0.0700
14529W        W34063  12.932   9.093  10.172  0.5052 -0.5311  0.1759
14530W        W34064  16.077  18.970   0.388 -0.0335  0.2183  0.2646
14531W        W34065  16.422   6.040   3.186  0.1854 -0.4526  0.2344
14532W        W34066   7.370  16.962   0.035  0.2319  0.1446  0.0955
14533W        W34067   7.520  14.978   0.112 -0.0811 -0.1661  0.2386
14534W        W34068   1.717   9.118   1.687 -0.0319  0.0926  0.2110
14535W        W34069  11.214   1.540  13.263  0.0978 -0.1556  0.2504
14536W        W34070  11.985   6.183  14.173 -0.0176  0.1807 -0.0062
14537W        W34071   8.772   9.731   9.873  0.1731  0.3332 -0.0922
14538W        W34072  10.792  10.910  10.258 -0.1785  0.0508  0.2109
14539W        W34073  19.100   8.847  14.235  0.1220 -0.5018  0.1366
14540W        W34074  12.411  15.268  12.424 -0.0717 -0.0850  0.1085
14541W        W34075  12.702   5.270   0.031 -0.1895  0.2541  0.2154
14542W        W34076  10.037  13.696  13.782  0.2270  0.2669  0.1257
14543W        W34077  13.114  10.378   0.502 -0.1998 -0.3854  0.3051
14544W        W34078  16.381  17.600   2.843 -0.2281  0.0013  0.1860
14545W        W34079  12.831  16.370   0.236 -0.0294  0.2028  0.0967
14546W        W34080  13.951   5.107   2.426  0.0622 -0.3066 -0.2332
14547W        W34081   2.711  10.846  11.350 -0.2862 -0.0954  0.2249
14548W        W34082  13.809  10.084   3.023 -0.2807  0.1989  0.0445
14549W        W34083   2.617  12.181   0.707  0.1683 -0.0390 -0.0170
14550W        W34084  14.912   7.846  12.515 -0.0792 -0.0534 -0.2514
14551W        W34085   5.098  14.297   4.544 -0.3534  0.3509 -0.1432
14552W        W34086   3.517  18.023  13.203 -0.2312  0.1030  0.2093
14553W        W34087   9.713   4.604  12.896  0.0842 -0.3624 -0.0164
14554W        W34088   8.336   1.562  13.680  0.0033  0.0924 -0.2157
14555W        W34089  14.379   7.759  12.553  0.1361 -0.0072  0.3465
14556W        W34090   5.521   7.283   1.976 -0.0416  0.1272 -0.0650
14557W        W34091   3.221  17.012   0.060 -0.2316  0.0236 -0.2862
14558W        W34092  17.819   9.356   3.025 -0.0299  0.1209 -0.2249
14559W        W34093  15.156   3.554  13.817  0.0492 -0.2687  0.0122
14560W        W34094  18.418   1.384  11.825 -0.0016  0.0029 -0.0745
14561W        W34095  10.282   7.498   2.189 -0.0967  0.0987 -0.0914
14562W        W34096   5.956   2.890  13.995 -0.1459  0.1519 -0.0562
14563W        W34097  13.439  19.467   4.528  0.1766  0.0074  0.0738
14564W        W34098   1.229  11.538   3.163  0.3543  0.4441 -0.1173
14565W        W34099  17.914  15.516   1.054  0.0922 -0.2025 -0.0064
14566W        W34100   1.026  19.081  14.280  0.0167 -0.1878 -0.2253
14567W        W34101   0.083   2.686  12.045 -0.1099  0.1800  0.2724
14568W        W34102  14.795  18.604   1.192 -0.1468 -0.2887 -0.1898
14569W        W34103  13.187   8.881  12.978 -0.0080 -0.3264  0.2212
14570W        W34104   0.456  15.176   3.781 -0.0403 -0.3522 -0.1607
14571W        W34105   6.438  16.054   2.116  0.0501 -0.1895  0.2002
14572W        W34106  10.756   6.491   0.794 -0.0013  0.1207  0.1419
14573W        W34107  15.290   0.958   0.988 -0.1213 -0.2995  0.2093
14574W        W34108   8.150   4.002   1.385 -0.2254 -0.0791  0.0446
14575W        W34109   2.518   5.458   0.430 -0.2096  0.0555 -0.0223
14576W        W34110   9.094  19.068  14.149  0.1458 -0.3077  0.0828
14577W        W34111   6.796   0.933  12.450  0.2584 -0.0339  0.3487
14578W        W34112  19.502   8.038   0.249 -0.2041 -0.0042  0.1340
14579W        W34113  10.483  16.081   2.232 -0.1536  0.0097  0.0810
14580W        W34114   6.940   4.484  13.833 -0.0538 -0.0332  0.3235
14581W        W34115  10.215   6.026  10.989  0.2044  0.3475 -0.2367
14582W        W34116  19.298   4.075   0.769 -0.2628  0.0187  0.1467
14583W        W34117   5.670  11.859   1.192 -0.1302 -0.3625 -0.0207
14584W        W34118   7.515  12.530  12.481 -0.0140  0.1463  0.1352
14585W        W34119   2.425   2.083  13.241  0.1131  0.2449  0.2581
14586W        W34120   1.482  10.643   2.554 -0.1611 -0.0394  0.2269
14587W        W34121   2.135   2.684  10.962 -0.0709 -0.1634 -0.0543
14588W        W34122  14.146   6.835  11.748  0.2531  0.3601 -0.0581
14589W        W34123  10.956   0.639   3.345 -0.0684  0.0659 -0.1011
14590W        W34124  18.102   0.048   9.701 -0.2186 -0.1504 -0.0897
14591W        W34125   4.236   7.521  13.175 -0.4516 -0.2768  0.0490
14592W        W34126   1.718  17.954   2.873  0.3302  0.3001 -0.1570
14593W        W34127   5.069  13.089   4.291  0.1680 -0.0418  0.2918
14594W        W34128  18.399  10.291   1.778 -0.1767  0.1278 -0.0788
14595W        W34129   7.831   0.001  14.281 -0.0926 -0.0376  0.1354
14596W        W34130   1.153  12.828   1.325  0.0089  0.0638 -0.2220
14597W        W34131   5.109   2.934  13.493 -0.4746 -0.0888 -0.2507
14598W        W34132   3.220  10.007   2.087  0.0195 -0.3722 -0.2055
14599W        W34133  10.016   1.423   1.458 -0.0713  0.1559 -0.3814
14600W        W34134   4.783   0.246  13.604 -0.6782  0.1908 -0.1067
14601W        W34135   5.184  14.886   3.752  0.0850 -0.1261  0.3030
14602W        W34136  18.117   6.535   5.029 -0.1208  0.1642  0.0098
14603W        W34137  19.058   0.556  12.898  0.1745 -0.0873 -0.0597
14604W        W34138  11.144   0.328  13.360 -0.4068 -0.2403 -0.1895
14605W        W34139  16.958   0.325   3.400 -0.6524  0.1638 -0.1686
14606W        W34140   2.758   1.183   1.235 -0.0165  0.2329 -0.3552
14607W        W34141   5.301   5.422   0.620 -0.0658  0.0567  0.2937
14608W        W34142   9.507   7.403   2.111 -0.0022  0.5730 -0.1030
14609W        W34143  10.642   9.682  13.312  0.2701 -0.0376  0.2261
14610W        W34144  15.021   4.464   1.563  0.1929 -0.1477  0.4385
14611W        W34145   6.861   0.822   3.050 -0.3346  0.2427  0.3737
14612W        W34146  17.387  19.008   2.778 -0.0116 -0.0565 -0.0366
14613W        W34147  10.446   4.005  13.428 -0.0116 -0.3644  0.0732
14614W        W34148   8.179   7.007   0.032  0.1641  0.1682 -0.0175
14615W        W34149  16.207  14.103  11.959  0.0890  0.1223  0.0635
14616W        W34150   5.306   3.536  10.552  0.1689 -0.0426 -0.0676
14617W        W34151   7.260  11.810  11.761 -0.2905  0.0031  0.3127
14618W        W34152  12.954  11.681   4.723  0.0648  0.2258 -0.0667
14619W        W34153  16.034   7.607   2.138  0.3243 -0.0940 -0.1962
14620W        W34154   7.066   1.553  11.419 -0.1068 -0.0772  0.2841
14621W        W34155  11.614  18.879  12.845 -0.2071 -0.1085 -0.3755
14622W        W34156   4.723  19.449   0.386 -0.1050 -0.0065  0.1470
14623W        W34157   6.379   5.710  14.246  0.3430 -0.1245 -0.0333
14624W        W34158  19.018   0.576  10.711 -0.1621 -0.3351  0.1605
14625W        W34159   5.355  19.502  12.900  0.3544  0.1379  0.0170
14626W        W34160  12.522   5.901   1.055 -0.0908  0.3832 -0.0442
14627W        W34161   2.558  16.316   9.797 -0.1985  0.1498 -0.2507
14628W        W34162  15.086  19.220   1.869  0.0716  0.3138 -0.1078
14629W        W34163   7.363  11.414  12.135 -0.0899 -0.1085  0.2424
14630W        W34164   7.693  18.631  11.919 -0.1996 -0.0813 -0.1577
14631W        W34165   6.995   8.709  13.887 -0.0508 -0.1943  0.0128
14632W        W34166   0.225   8.247  10.981  0.0328  0.0827 -0.0574
14633W        W34167  16.907  10.455   4.244 -0.2986  0.0641  0.2345
14634W        W34168   9.821  16.127  12.962 -0.2744  0.2303 -0.2889
14635W        W34169  13.595  13.586  13.700  0.1341 -0.2110 -0.1706
14636W        W34170  19.266  14.065  10.463 -0.2222 -0.0439  0.2729
14637W        W34171  12.174  14.119   0.671  0.1878  0.1240 -0.1761
14638W        W34172  13.452  10.347  14.260  0.0492 -0.3224 -0.3130
14639W        W34173  12.793   7.121   1.031  0.0333 -0.0029 -0.0748
14640W        W34174   2.895   8.880   2.807 -0.1267 -0.0391 -0.2360
14641W        W34175  12.880  16.015   0.633  0.1166 -0.0198  0.0541
14642W        W34176  18.313  17.393   2.949  0.1598 -0.0662  0.2475
14643W        W34177  10.669  14.320  12.280  0.2936 -0.2325  0.3228
14644W        W34178   6.231   4.683   2.165 -0.1350  0.2804  0.0038
14645W        W34179   6.818   1.925   1.676 -0.1475 -0.1748  0.0776
14646W        W34180   7.473  10.015  11.728  0.1118  0.2071 -0.0056
14647W        W34181   6.094   0.188   0.856 -0.1367 -0.1058  0.1456
14648W        W34182   2.299  10.825   1.246  0.2667 -0.1207  0.2099
14649W        W34183   5.055   6.849  12.233  0.0462  0.0328  0.2738
14650W        W34184   5.445   8.383   0.284 -0.0155  0.2095  0.0211
14651W        W34185  18.326  13.242  11.167  0.0084  0.2567  0.0967
14652W        W34186   7.047  17.254  13.558 -0.0874  0.0324  0.1481
14653W        W34187  14.213  14.255   3.662  0.1621 -0.1231  0.2180
14654W        W34188  15.168   0.964  11.405  0.3704 -0.1171  0.2783
14655W        W34189  11.523  12.160   1.857  0.0511  0.1725 -0.2748
14656W        W34190  10.367   7.928   2.341  0.4229  0.1034 -0.2104
14657W        W34191  11.597   4.268   0.509  0.0002 -0.2174 -0.1077
14658W        W34192   1.388   7.952   4.283  0.0112  0.2686  0.2163
14659W        W34193  10.093  16.952  10.688 -0.0465 -0.1517 -0.0797
14660W        W34194   0.407   6.184   3.380 -0.0708 -0.0715  0.2211
14661W        W34195   9.090   3.804   3.422  0.1780  0.0008 -0.1841
14662W        W34196   4.503  14.652   3.543 -0.0910 -0.1083  0.0208
14663W        W34197   6.194   3.500  10.477  0.1196  0.2672  0.2384
14664W        W34198   5.045   1.847   9.833  0.0979 -0.0350 -0.4754
14665W        W34199   1.836   9.600   2.863  0.0568  0.3265 -0.0664
14666W        W34200  11.059  18.859  13.798 -0.0100 -0.1903 -0.1248
14667W        W34201   4.131   9.854   1.079 -0.1930 -0.0178  0.2190
14668W        W34202  14.680  17.487   0.297 -0.2627 -0.3749  0.1427
14669W        W34203   2.113   7.089   0.844  0.2224 -0.1685 -0.2049
14670W        W34204   7.947   8.323   3.771 -0.1694  0.1590  0.0697
14671W        W34205   2.710  13.913  11.767  0.2287 -0.3874 -0.0613
14672W        W34206  18.240   2.159   2.227  0.1539 -0.0151  0.0001
14673W        W34207  14.054   6.790   3.362  0.1420  0.1536  0.0213
14674W        W34208  17.700   3.235  13.113  0.2143  0.4865  0.0299
14675W        W34209  14.361   8.227  13.639 -0.1848  0.3380  0.3486
14676W        W34210   3.476   6.259   1.361  0.0656  0.0582  0.2764
14677W        W34211  16.413   7.805   0.714 -0.2223  0.0818 -0.0801
14678W        W34212   7.544  14.455   1.851 -0.3319  0.1656  0.0199
14679W        W34213   1.059   4.519   3.637  0.0330  0.3489  0.1156
14680W        W34214  19.404   0.867  10.930 -0.0834 -0.2354  0.0927
14681W        W34215  16.175   0.767  11.270  0.0219  0.0537  0.0503
14682W        W34216   8.168  10.329   0.573 -0.2040 -0.2382  0.0093
14683W        W34217  15.940  16.877  10.902  0.0509 -0.2919 -0.2746
14684W        W34218   4.946   9.974   0.488 -0.1848 -0.1331  0.0498
14685W        W34219  11.462  10.993  13.269  0.0583  0.1138 -0.0742
14686W        W34220   6.173  17.899  13.681 -0.3754  0.1486 -0.0587
14687W        W34221   0.963  18.918   0.825  0.0651 -0.0312 -0.0926
14688W        W34222  10.981  10.092   0.572  0.2113  0.2747  0.0088
14689W        W34223  17.211   5.251  12.915  0.4051 -0.2730  0.1500
14690W        W34224  12.243  11.514  13.227  0.1119 -0.0418 -0.0683
14691W        W34225  10.220   9.012   0.498 -0.0770 -0.0276 -0.1089
14692W        W34226  18.865  12.280  12.706  0.0229 -0.0416  0.3349
14693W        W34227  11.583  10.877   2.436  0.1329 -0.6234  0.0507
14694W        W34228   6.281  16.740  13.696 -0.0290 -0.2445  0.0864
14695W        W34229  14.984  14.197  13.909  0.0012 -0.2040  0.0688
14696W        W34230   6.988   4.634   3.325  0.1564 -0.2134 -0.0850
14697W        W34231  12.515  16.561  11.970  0.2110 -0.0038 -0.1105
14698W        W34232   9.735   3.096   2.712 -0.2407  0.3089 -0.1532
14699W        W34233   1.904  13.481  12.822  0.4315 -0.2561  0.1452
14700W        W34234   4.451   1.598  10.250  0.2712 -0.0064 -0.2903
14701W        W34235   9.794  11.995   1.819 -0.1383 -0.0697  0.0094
14702W        W34236   0.428   7.110   3.063 -0.2117  0.0257 -0.1489
14703W        W34237   3.603   4.949   2.463  0.1064 -0.0876 -0.1486
14704W        W34238  11.129   5.787   3.075  0.1194 -0.0098  0.0848
14705W        W34239   3.412  12.748   4.232 -0.0269 -0.0262 -0.1260
14706W        W34240  18.800   1.031  12.897  0.2231  0.0469 -0.1655
14707W        W34241   1.500  13.879  12.854 -0.0438 -0.1101  0.1259
14708W        W34242   2.902  15.545  12.016  0.0328 -0.1067  0.1683
14709W        W34243  17.052   0.099  11.337  0.1167 -0.0663 -0.1830
14710W        W34244   7.914   8.796   3.648  0.3152 -0.0426  0.1176
14711W        W34245   8.616   3.214  12.570  0.0145 -0.2836  0.1345
14712W        W34246  12.036  18.631   3.587  0.0350 -0.0325 -0.1029
14713W        W34247   0.761  10.601  13.136  0.1674  0.2262  0.1186
14714W        W34248  15.554  18.493   3.476  0.2953 -0.0706  0.3731
14715W        W34249   3.316   5.915  11.483  0.1398 -0.0433 -0.0906
14716W        W34250  16.371  11.592   2.233 -0.2597  0.0734 -0.1416
14717W        W34251   6.901  14.382  13.583  0.0388  0.1398 -0.0204
14718W        W34252   4.147   3.208  11.318 -0.0758 -0.2191  0.2877
14719W        W34253  14.647  12.136   3.330  0.0449 -0.2145 -0.2822
14720W        W34254  15.592   7.495   3.312 -0.1167  0.1105  0.0274
14721W        W34255   7.407  14.777  10.937 -0.1113  0.2050 -0.3078
14722W        W34256  11.895  18.488   4.102  0.2730  0.2862 -0.0486
14723W        W34257  12.959  11.713   3.819 -0.1923 -0.2155  0.1719
14724W        W34258  15.324   3.624   0.557 -0.2444 -0.0085  0.0816
14725W        W34259   7.265   1.464  11.976 -0.0383  0.1107 -0.0265
14726W        W34260  18.491  18.523   2.565 -0.0480  0.1159 -0.0391
14727W        W34261   0.313   1.025  13.287  0.0763  0.2137  0.0574
14728W        W34262   3.144  18.372  13.107 -0.0247 -0.2275  0.5061
14729W        W34263  18.242   8.766   4.290  0.1419  0.2671 -0.0989
14730W        W34264   4.911   4.473  14.126 -0.2637  0.0182 -0.0082
14731W        W34265  15.260  13.419   1.108 -0.1862  0.0025 -0.2244
14732W        W34266   4.061  11.592  11.932 -0.0476  0.0217  0.1142
14733W        W34267  18.813   9.179  13.887  0.0065 -0.0506 -0.0326
14734W        W34268  13.965  14.173   9.296 -0.1368 -0.3030 -0.1022
14735W        W34269  18.225   3.602   3.699  0.2607 -0.3005 -0.1204
14736W        W34270   9.241  16.509   2.031 -0.1660 -0.0015  0.1374
14737W        W34271  12.162   3.212   1.534 -0.0442 -0.0024  0.0559
14738W        W34272  14.616  15.400   2.293 -0.0294 -0.0582  0.0371
14739W        W34273  19.493   1.972  13.808 -0.0229 -0.0776  0.1441
14740W        W34274  11.240   6.871   2.525 -0.0543 -0.0363 -0.3064
14741W        W34275  18.169  14.111  12.210 -0.2292  0.1405 -0.0317
14742W        W34276  10.882  12.228  12.299  0.3730 -0.4138  0.0717
14743W        W34277  18.307   2.479  14.201  0.0798 -0.0897 -0.1367
14744W        W34278  16.169   2.414  11.226 -0.2529  0.0874 -0.0328
14745W        W34279   3.546   9.470  10.418  0.0053  0.0333 -0.1752
14746W        W34280   3.962  10.696   1.905  0.1633  0.1363  0.1812
14747W        W34281  11.449  16.438   2.747 -0.2586  0.2191 -0.0204
14748W        W34282   5.376  12.732   4.072  0.1004  0.0293  0.1735
14749W        W34283   4.974   9.721  11.145 -0.0144  0.2598 -0.1892
14750W        W34284  13.945  11.189  13.874 -0.3648 -0.1300 -0.0936
14751W        W34285  19.082   3.516   2.098 -0.1494 -0.1193 -0.0386
14752W        W34286   0.706  12.187  11.101  0.0444 -0.1640  0.4997
14753W        W34287   1.959  10.254  13.195 -0.2866  0.1264  0.1986
14754W        W34288   8.309  18.120   4.077 -0.0193  0.0478 -0.1369
14755W        W34289   7.669  12.298   4.036  0.6036  0.1052 -0.1731
14756W        W34290  11.740   9.648   4.630 -0.1030  0.2781 -0.2203
14757W        W34291   7.214   9.599   1.313  0.0986  0.0574  0.3158
14758W        W34292   5.639   6.933  11.468  0.1726 -0.1573 -0.2567
14759W        W34293  15.723  12.847   1.530  0.0728  0.0348  0.0509
14760W        W34294   0.775   8.327   0.375  0.1811  0.0466 -0.3362
14761W        W34295  17.155   7.525   1.449 -0.2113  0.3197 -0.3104
14762W        W34296  13.040  10.178  13.372 -0.1786  0.2069  0.0956
14763W        W34297  10.197  14.416   0.643 -0.2003 -0.0828 -0.0550
14764W        W34298   7.300  10.787  12.897 -0.0291 -0.0946 -0.1316
14765W        W34299   9.885  15.791  12.040  0.0209 -0.1154  0.2886
14766W        W34300   9.652   0.674  10.786 -0.0152  0.2291 -0.0474
14767W        W34301   0.683  16.728   2.320 -0.4748  0.3520 -0.0470
14768W        W34302   6.894   3.484   2.924  0.2376  0.2202 -0.2708
14769W        W34303   1.398  15.407   3.083 -0.1482  0.1289  0.1821
14770W        W34304  11.282   8.636  13.981 -0.2788 -0.0688 -0.0724
14771W        W34305   8.614   3.748  11.203 -0.0442 -0.2675  0.1604
14772W        W34306   3.403   0.374   5.097  0.0159  0.2183  0.0263
14773W        W34307  19.336   3.951   3.092 -0.2164  0.2452 -0.1004
14774W        W34308  10.227   6.813  12.121  0.1792  0.1958 -0.2611
14775W        W34309  15.892   0.702  12.146 -0.2829  0.2107  0.1046
14776W        W34310  13.336  18.103  10.349 -0.0308  0.1161 -0.2124
14777W        W34311   7.073  10.123   4.471 -0.1493 -0.0693 -0.0337
14778W        W34312  15.159   3.712   3.673  0.0471  0.0740 -0.2648
14779W        W34313  19.494  14.443   4.853  0.0485 -0.1539 -0.0656
14780W        W34314   4.846   8.131   3.395 -0.2376 -0.0689 -0.3242
14781W        W34315  13.803   4.432   9.557  0.1291  0.0304  0.1481
14782W        W34316  10.284   5.131   0.039  0.1864 -0.1162  0.2755
14783W        W34317   9.011   9.476  10.822  0.1364 -0.1653 -0.0061
14784W        W34318  16.506  15.130   0.892 -0.1591  0.1163 -0.3646
14785W        W34319  12.394  16.501  13.772 -0.0487 -0.0787  0.2877
14786W        W34320  18.795  10.932  13.437  0.1280 -0.1187  0.1034
14787W        W34321  13.838  17.839  10.340 -0.0914 -0.0650  0.1444
14788W        W34322  18.217  17.121   0.415  0.3074 -0.2923  0.1726
14789W        W34323   4.661  11.594  12.920  0.0321 -0.1899  0.1954
14790W        W34324  10.959   5.685  12.915 -0.1123 -0.4183 -0.1266
14791W        W34325  11.924   7.009  11.318  0.1602  0.1698 -0.0891
14792W        W34326   7.841  16.094   2.507 -0.0772 -0.1962  0.1720
14793W        W34327  11.171   9.271  11.365 -0.1441  0.1164 -0.3128
14794W        W34328  15.574   9.888   0.124  0.2307 -0.1122  0.2359
14795W        W34329   1.793  15.104   1.584 -0.0167  0.0254 -0.2990
14796W        W34330   6.218   7.075   1.055  0.2017  0.0479 -0.1322
14797W        W34331   6.942   7.086   5.046  0.0295 -0.1787  0.0606
14798W        W34332   1.867  18.773  10.427 -0.1412 -0.3556 -0.0021
14799W        W34333  11.617   9.282  12.001 -0.1861 -0.0680  0.0857
14800W        W34334   7.667  14.098   3.731  0.0006 -0.0550  0.2628
14801W        W34335   8.085  11.713  11.861  0.1483  0.3072 -0.3216
14802W        W34336   6.911   2.601   3.965  0.3690  0.1495 -0.0456
14803W        W34337  14.212  18.215   2.040 -0.0493  0.2165  0.0051
14804W        W34338   3.886   2.589  10.691  0.1245 -0.2468 -0.1907
14805W        W34339   7.813   3.799  13.264  0.1014 -0.1970  0.0043
14806W        W34340   5.839   6.019  13.539  0.3310  0.1033  0.1948
14807W        W34341   8.955   9.584   2.951  0.1560 -0.2326  0.1772
14808W        W34342   8.305   1.328  14.149 -0.0773 -0.1913 -0.0666
14809W        W34343  13.963  18.020   1.603  0.0101  0.6007 -0.1316
14810W        W34344  11.860   4.912  11.269  0.3059 -0.1395  0.0630
14811W        W34345   7.007   1.403   0.027  0.3704 -0.0061  0.0340
14812W        W34346   1.277   3.924  10.787 -0.2012  0.0516 -0.1479
14813W        W34347  10.298   7.758  13.817  0.2424  0.0365 -0.2733
14814W        W34348   7.714  13.481  13.205  0.2316 -0.2989  0.2604
14815W        W34349   2.918   7.831  13.112 -0.2534  0.3981 -0.1004
14816W        W34350  17.352   4.774   2.736  0.1039  0.0604 -0.0027
14817W        W34351  18.840  17.408   4.149 -0.2549 -0.0577 -0.3060
14818W        W34352   4.474  17.652   2.427  0.0601  0.2535 -0.0027
14819W        W34353   3.007   4.242   0.366 -0.4076  0.2391  0.1601
14820W        W34354  18.066  15.785   0.222 -0.2700 -0.0715 -0.1286
14821W        W34355   7.039  17.881   0.316  0.1365 -0.3104  0.3575
14822W        W34356  13.604   1.990   3.781  0.1284  0.2156  0.0924
14823W        W34357   4.471  12.372   4.191 -0.4188 -0.1058 -0.0755
14824W        W34358   6.321   5.303  11.788 -0.0198  0.0350 -0.0646
14825W        W34359   1.518   8.641  12.135 -0.1429  0.0706 -0.2190
14826W        W34360  14.369   0.961  11.918 -0.3116 -0.3256  0.0132
14827W        W34361   3.353   6.775   2.177  0.1346 -0.2985  0.3158
14828W        W34362   7.991  15.435  10.354 -0.1302  0.6116  0.0089
14829W        W34363   2.332   7.743  13.117  0.2531 -0.0935  0.2486
14830W        W34364   1.918  18.823  14.080 -0.2634  0.0006  0.0720
14831W        W34365  10.551   0.367   9.421 -0.0329  0.1956  0.1097
14832W        W34366   3.177   7.623   1.812 -0.1340  0.0829  0.0902
14833W        W34367  14.770   9.782   2.831 -0.4552  0.0171  0.2058
14834W        W34368  18.252  19.058  12.034 -0.1700 -0.0523  0.3165
14835W        W34369   7.380  15.685  13.407  0.0677 -0.1315  0.1725
14836W        W34370   7.237   1.562  10.516 -0.0667 -0.1439  0.1625
14837W        W34371   2.711  11.458   2.747  0.0129 -0.0452  0.0811
14838W        W34372   0.537   4.754   9.462 -0.1283  0.2168  0.1935
14839W        W34373  12.460   5.933   2.152  0.1260  0.0066 -0.2808
14840W        W34374   9.739  11.575   3.227 -0.0926 -0.1303  0.3613
14841W        W34375   8.259  12.909  13.004 -0.1634 -0.2673 -0.0815
14842W        W34376  10.962   6.540   2.167 -0.1679  0.0829  0.3439
14843W        W34377  10.806   9.663   1.665  0.1457  0.0508 -0.2717
14844W        W34378   4.652  14.909  12.098 -0.2622  0.0308 -0.1332
14845W        W34379   5.041   3.384   2.881 -0.3157  0.1972  0.3556
14846W        W34380   2.688  17.582   3.005  0.2150  0.3111 -0.2643
14847W        W34381  10.786   8.441   3.106  0.1875  0.0763  0.0729
14848W        W34382   3.315   8.785   3.074 -0.1132  0.0024 -0.1488
14849W        W34383   5.101   8.370   1.426  0.0040 -0.0815  0.0249
14850W        W34384   9.277  19.135   2.017 -0.2420  0.1455  0.0834
14851W        W34385   0.752   8.652  11.492  0.1379 -0.0799  0.3501
14852W        W34386   0.373  11.096  11.589 -0.0377  0.1338 -0.0431
14853W        W34387  17.938   9.132   1.810  0.0035  0.0438 -0.2440
14854W        W34388   7.098   7.299  12.778 -0.1831  0.2699  0.0170
14855W        W34389  10.364   0.080   9.739  0.2362  0.2164  0.1909
14856W        W34390  15.943  15.714   0.450  0.1619 -0.2038 -0.3080
14857W        W34391   0.276  15.607   0.418  0.1244  0.1049 -0.0964
14858W        W34392   6.554  11.559  13.866 -0.1887  0.1934 -0.0571
14859W        W34393   7.701   2.386   0.383  0.0007 -0.2297  0.1885
14860W        W34394  17.924   3.583  12.153  0.1809 -0.0962 -0.0807
14861W        W34395   7.972   6.958  10.935  0.1877 -0.2601  0.4890
14862W        W34396   5.974  18.258   2.674 -0.1234 -0.0678  0.0602
14863W        W34397   0.118  10.931  10.772  0.2744 -0.3407  0.1414
14864W        W34398  13.498  15.242   0.459 -0.0168  0.2001 -0.0592
14865W        W34399  13.268  16.097  12.392 -0.0065 -0.1969 -0.0822
14866W        W34400  18.479  19.390   0.643 -0.0023  0.2789  0.0409
14867W        W34401  17.080  13.446   1.701 -0.3051 -0.1045 -0.1733
14868W        W34402   6.693   3.934  14.373 -0.1248 -0.0372  0.1674
14869W        W34403  17.838  14.446  11.866  0.0417  0.2644 -0.1737
14870W        W34404   5.170  11.079   3.846  0.0751 -0.2314  0.0953
14871W        W34405  11.475   8.866   0.005 -0.1019 -0.0842 -0.2113
14872W        W34406   9.101   8.638   1.887 -0.1866 -0.5908 -0.2226
14873W        W34407   7.811   0.557   2.579 -0.0007 -0.0544 -0.2933
14874W        W34408  13.252   4.246  13.909 -0.1799  0.1556 -0.1021
14875W        W34409   8.352  15.434   3.212  0.2563  0.0606 -0.0800
14876W        W34410   5.812   2.103  14.215  0.0724 -0.1215  0.2771
14877W        W34411  15.111  11.549   1.486 -0.4087  0.1100  0.3481
14878W        W34412  15.556   7.123   3.984  0.0784  0.0106  0.3794
14879W        W34413   8.482  13.043   4.178 -0.0662  0.2298  0.0916
14880W        W34414  17.384  18.161   9.913  0.0804  0.0345 -0.0585
14881W        W34415   9.091   3.547   1.271  0.2159 -0.2168  0.0570
14882W        W34416  10.079   8.622   3.613  0.1047  0.1135 -0.1662
14883W        W34417  16.486  10.553  11.649  0.2738 -0.2192  0.3844
14884W        W34418  11.433  14.368   4.087 -0.2356 -0.1774  0.2070
14885W        W34419   8.585  10.686  14.283  0.0738  0.2687 -0.1764
14886W        W34420  10.331  12.843   3.255  0.3183 -0.0984 -0.0880
14887W        W34421  12.515   2.921   3.608 -0.4037 -0.0348 -0.1305
14888W        W34422   1.771   5.439   3.349 -0.2027  0.0440 -0.2677
14889W        W34423   5.687  13.592  14.052 -0.1258  0.0603  0.0544
14890W        W34424   5.011   7.607   9.317  0.2608 -0.3688  0.2184
14891W        W34425   2.809  12.172  11.805 -0.4005  0.1404 -0.2046
14892W        W34426   2.401   7.376   1.397  0.0678  0.0066  0.1517
14893W        W34427   7.230  11.500   1.597 -0.3003  0.1314 -0.2739
14894W        W34428  18.927   0.441   2.399 -0.3362  0.0952 -0.0522
14895W        W34429  11.573   7.172   4.013 -0.2341 -0.0024 -0.0210
14896W        W34430   6.683   4.629  12.762 -0.3022 -0.0018  0.0717
14897W        W34431   0.446   8.695  13.841  0.1730  0.1040  0.3993
14898W        W34432   9.338  11.959  13.954  0.0402 -0.1145  0.1092
14899W        W34433   8.709  19.047   2.409  0.1776 -0.0580 -0.1825
14900W        W34434   0.247  13.405  12.684  0.0539  0.0443 -0.0273
14901W        W34435   4.398  12.245   1.901 -0.1417  0.2363 -0.0757
14902W        W34436   0.865   2.436  12.538 -0.1413 -0.0557 -0.1940
14903W        W34437   3.147   6.546   2.845 -0.1559  0.2298  0.2556
14904W        W34438  15.943   3.519  13.511 -0.3267 -0.0073 -0.1341
14905W        W34439  14.601   9.927   5.112  0.0158 -0.3405  0.0405
14906W        W34440   6.042   4.142  12.780  0.1517  0.1767  0.0725
14907W        W34441  16.967   3.108  10.765 -0.1236 -0.0925 -0.1836
14908W        W34442  13.569  17.078  10.933 -0.2887 -0.1119 -0.0122
14909W        W34443   1.459   2.918   0.000 -0.4461 -0.2973  0.0669
14910W        W34444  13.449   4.608   3.994 -0.1267  0.0003  0.4035
14911W        W34445   2.213  10.468   2.027  0.0854  0.0508  0.1969
14912W        W34446   6.408   0.590   1.865  0.0985 -0.1201  0.3105
14913W        W34447  19.289  19.217   3.506  0.0709 -0.0588  0.2185
14914W        W34448   1.011  10.898   1.558  0.0397  0.0625  0.1937
14915W        W34449   8.513  14.158  12.713  0.2546  0.2548  0.3236
14916W        W34450  17.947   1.259   1.263  0.0706  0.2112 -0.1127
14917W        W34451   3.674   5.402   2.646  0.3995  0.1997 -0.0194
14918W        W34452  10.272  11.037   1.724 -0.0961  0.1240 -0.0884
14919W        W34453   1.248  10.758   0.200  0.1517  0.1549  0.2670
14920W        W34454  19.115   2.877  12.014  0.1056 -0.1662  0.0193
14921W        W34455  17.608  17.422   0.459 -0.4182 -0.0655 -0.2338
14922W        W34456   5.551  14.362  11.332  0.1273  0.1719  0.3179
14923W        W34457   6.667   9.753   2.385 -0.1880 -0.1408  0.0316
14924W        W34458   2.577   2.790  11.352  0.2094  0.1512 -0.1141
14925W        W34459   4.074  10.189   5.345 -0.0278  0.0924  0.1004
14926W        W34460  13.275  14.250   3.107  0.1815 -0.4011  0.1535
14927W        W34461   1.322  11.488  10.979 -0.1079  0.1577  0.0009
14928W        W34462  18.937  13.496   3.006  0.0499 -0.0435 -0.3703
14929W        W34463   6.508  17.101   2.271  0.1958 -0.0034  0.2751
14930W        W34464  15.599   0.941   1.939 -0.1279 -0.1356  0.0855
14931W        W34465   0.673  18.111  10.522  0.2218  0.0329  0.1901
14932W        W34466  11.479   4.682  11.417 -0.0475  0.4918  0.0879
14933W        W34467  13.021   8.828  10.677  0.4641  0.0130  0.1310
14934W        W34468   1.772   0.160   2.573  0.1259 -0.0258  0.0446
14935W        W34469  17.362   2.878   0.550 -0.0273  0.2153  0.0618
14936W        W34470   1.739   5.575   0.955  0.1214  0.1930 -0.1026
14937W        W34471  18.035   5.456  12.287  0.0372  0.1699 -0.0267
14938W        W34472  15.142   2.453  11.368 -0.0885  0.1341 -0.2466
14939W        W34473  12.309   0.086  10.175 -0.0273  0.0918 -0.1478
14940W        W34474  19.464  18.881   1.721 -0.1866  0.3286 -0.0465
14941W        W34475   9.781   4.900   1.102 -0.4099  0.1323 -0.0477
14942W        W34476  13.563  12.875   3.010 -0.2607  0.0926  0.0899
14943W        W34477   8.546  11.795  12.773  0.1967 -0.1862 -0.0861
14944W        W34478   9.018  11.158   1.276  0.3175 -0.1968  0.2113
14945W        W34479   4.515   6.497   2.224 -0.0508  0.0508  0.0742
14946W        W34480   1.896  17.823  12.442 -0.1065  0.0107 -0.1154
14947W        W34481   1.884   9.055   2.221 -0.0686 -0.2444 -0.0229
14948W        W34482  15.986   9.346   2.350  0.1840  0.1450  0.5144
14949W        W34483   4.350   1.447  11.694 -0.1060  0.2837 -0.0973
14950W        W34484  14.569  16.043   0.561  0.3818 -0.0141  0.2786
14951W        W34485  18.755  13.918   3.468  0.1009  0.2470  0.0541
14952W        W34486   4.562  14.412   0.693  0.3152 -0.0732 -0.2210
14953W        W34487  15.037  16.577  13.805 -0.0217  0.2814 -0.0576
14954W        W34488  12.358  12.905   1.090 -0.0387  0.2924 -0.1716
14955W        W34489   3.257  18.774  13.409 -0.0318 -0.0449  0.0618
14956W        W34490  14.708   7.549  12.875 -0.2445  0.2861  0.0018
14957W        W34491   4.355   8.521  12.220 -0.0357 -0.1883  0.0911
14958W        W34492  14.641   8.156   2.228  0.1856 -0.0658  0.0875
14959W        W34493  12.416  15.948  13.799  0.3035  0.3377  0.4113
14960W        W34494  13.806  16.160   1.612  0.1624  0.2979 -0.1223
14961W        W34495   7.796  14.749   4.117 -0.1620  0.0481 -0.0197
14962W        W34496  16.995  19.346   1.130  0.2240 -0.3348  0.0467
14963W        W34497   2.327   3.467  11.274  0.4504  0.1801  0.3501
14964W        W34498  10.281   3.037  10.453 -0.1547  0.0905 -0.2308
14965W        W34499   1.431   0.367   2.906  0.2473  0.0715  0.0104
14966W        W34500   4.709   4.676   5.241  0.0537 -0.1485  0.2302
14967W        W34501  10.803   9.654   2.329 -0.2279 -0.0714  0.0536
14968W        W34502  17.961   2.447   0.475 -0.2618 -0.2903 -0.0875
14969W        W34503  18.730  16.016   0.824  0.0438  0.2532  0.1212
14970W        W34504   6.501  12.696  12.163 -0.1844  0.0689 -0.0687
14971W        W34505   6.003   7.880  13.099  0.1024 -0.2215  0.0332
14972W        W34506   6.665   9.057   0.363  0.1037 -0.3924 -0.0074
14973W        W34507   7.702   3.622  12.604  0.3773 -0.0338 -0.1281
14974W        W34508   2.020  13.960   1.973  0.1596 -0.1414 -0.0694
14975W        W34509   3.602   2.493  10.213  0.1153 -0.0597  0.1398
14976W        W34510  14.704  12.252   2.424  0.2259  0.2253 -0.0220
14977W        W34511   2.862  15.291  10.117  0.2037  0.0617  0.0530
14978W        W34512   3.991   0.806  10.824  0.2004 -0.0949 -0.2076
14979W        W34513  18.548  18.942  10.318  0.0289  0.0282  0.0649
14980W        W34514   8.692   3.172  11.287  0.3907  0.2320 -0.1904
14981W        W34515  17.373   8.547   4.395 -0.1140 -0.1396  0.0575
14982W        W34516   7.873   9.116   3.996 -0.1519 -0.1001 -0.2609
14983W        W34517   8.340   5.032   0.678 -0.0049 -0.4617 -0.0588
14984W        W34518  17.761  14.703  10.690 -0.0903 -0.3186 -0.2188
14985W        W34519  17.422   1.280   2.080  0.1292 -0.2131  0.1201
14986W        W34520  11.873   7.912  11.159 -0.1680 -0.1096  0.0896
14987W        W34521  18.856  18.287   1.998  0.2153  0.3265  0.0950
14988W        W34522  15.510   0.436   4.525 -0.0010  0.1413 -0.0425
14989W        W34523   1.966  16.952   2.852  0.4742  0.1083  0.0628
14990W        W34524   5.767   3.672   1.028  0.1732  0.4969  0.1291
14991W        W34525  14.874   3.788   2.578 -0.3875  0.0760 -0.0730
14992W        W34526   2.833   5.170  11.845  0.1433 -0.0171  0.2750
14993W        W34527   9.870   7.702  13.020 -0.3663 -0.0563  0.0868
14994W        W34528   7.568   3.389   1.462 -0.1108 -0.3299 -0.0072
14995W        W34529  12.640   0.078  13.319  0.2591 -0.2007 -0.3448
14996W        W34530  12.370   8.896   0.858 -0.2917 -0.1619 -0.1112
14997W        W34531   7.687  16.194   0.926  0.0364  0.1622 -0.1260
14998W        W34532  14.032  14.483  12.840 -0.0542  0.2372 -0.1021
14999W        W34533  13.574  19.312  11.261  0.0734  0.1642  0.1697
15000W        W34534  14.940   5.155   9.847  0.0567  0.1128 -0.0195
15001W        W34535   8.999   9.283   4.235 -0.1467  0.2999 -0.2643
15002W        W34536  10.209   7.360   3.719 -0.0776  0.2522  0.1832
15003W        W34537  15.055   4.695   3.170 -0.2488  0.1596 -0.2128
15004W        W34538  10.396  10.842   3.113 -0.0541 -0.0678  0.0821
15005W        W34539  15.554  12.030   2.941 -0.0283 -0.2434  0.1511
15006W        W34540   9.948  12.522   3.061 -0.0512 -0.2074 -0.0826
15007W        W34541   8.868   0.683   3.598  0.0791 -0.2300  0.2874
15008W        W34542  12.984   5.618  11.665 -0.1446  0.1683 -0.1822
15009W        W34543  18.064   3.812  11.414  0.1175 -0.1080  0.1678
15010W        W34544   8.351  17.981  12.259  0.2601  0.1730  0.1708
15011W        W34545  14.217   4.938   3.710  0.0806 -0.1597  0.0089
15012W        W34546   4.482   4.268   1.424 -0.0296 -0.1220 -0.1612
15013W        W34547   7.583   3.922  11.650 -0.3906  0.0224  0.0248
15014W        W34548  11.898  13.178  13.988 -0.0130 -0.2144 -0.1784
15015W        W34549   7.709   3.721   2.752  0.0921  0.2890  0.2756
15016W        W34550  17.357  12.080  10.159 -0.2739 -0.3020  0.0718
15017W        W34551   5.939  12.071   0.780 -0.2372 -0.1786 -0.3569
15018W        W34552   8.566   3.141   1.581  0.0762 -0.2417  0.2272
15019W        W34553   5.745   1.293   1.654  0.2251 -0.2610  0.0573
15020W        W34554  13.244  13.616   1.695 -0.0690 -0.2552  0.0673
15021W        W34555   8.814   7.873  11.904 -0.2722 -0.1430  0.2403
15022W        W34556   7.362  14.233   2.296  0.0986 -0.0030  0.1211
15023W        W34557   8.336  10.782   0.509 -0.4405  0.0412  0.1654
15024W        W34558   4.767  15.634   4.681  0.2814  0.1642  0.0495
15025W        W34559  15.468  19.333   0.998 -0.3297  0.0541 -0.1160
15026W        W34560  14.800  17.800   3.815 -0.1576  0.2436 -0.5784
15027W        W34561  16.097   4.925  11.563 -0.1082 -0.0396 -0.0846
15028W        W34562   3.647  11.335   1.213 -0.1860  0.4035  0.2374
15029W        W34563  10.701   2.252  13.327  0.2104 -0.3430 -0.1710
15030W        W34564  11.470  12.393  10.347  0.0244  0.1116  0.0977
15031W        W34565   7.823  10.357   3.026 -0.1904 -0.1515 -0.1516
15032W        W34566   7.277  13.353   9.991 -0.3049  0.0428 -0.0704
15033W        W34567  15.753   3.182   5.593 -0.2236  0.1084 -0.0393
15034W        W34568  12.802  17.357   3.610 -0.1120  0.1512  0.3049
15035W        W34569  16.687  19.202   2.294  0.2414 -0.1251 -0.0989
15036W        W34570   3.457  15.977  11.136 -0.3838 -0.1012 -0.0461
15037W        W34571   4.106  13.282   0.322  0.1940 -0.0922 -0.0880
15038W        W34572   2.774   4.187   3.602 -0.1220  0.0234  0.2121
15039W        W34573   0.199  19.202   0.471 -0.2061  0.0281 -0.2760
15040W        W34574   1.168   7.649  13.868 -0.2443  0.3583  0.0125
15041W        W34575   6.711  14.741   2.047 -0.2125  0.0519  0.1673
15042W        W34576  19.197   2.678   0.803  0.1873 -0.1183 -0.1153
15043W        W34577  18.027  16.608  10.349  0.2564  0.3651 -0.3098
15044W        W34578  15.521  12.851  11.850 -0.1412  0.2735  0.2682
15045W        W34579   7.476  16.080  13.151  0.0106  0.0405 -0.0586
15046W        W34580   6.412   4.320  13.809 -0.0287  0.1025  0.0198
15047W        W34581   3.852  17.471   4.612  0.2370 -0.0687 -0.0991
15048W        W34582   0.077   6.933   1.838 -0.2032 -0.1265 -0.1738
15049W        W34583   5.506   5.477   2.441 -0.2012  0.0798 -0.4049
15050W        W34584   4.042   9.477  12.649  0.0206  0.2977  0.0751
15051W        W34585   9.116   0.011  10.717  0.0559 -0.0293 -0.1076
15052W        W34586  17.971  17.847   4.611 -0.0247  0.4998 -0.0751
15053W        W34587   6.144  15.985  13.564  0.3422  0.2033 -0.1567
15054W        W34588   3.619   4.125   3.721 -0.1274 -0.0992  0.1278
15055W        W34589   3.038  12.308  13.681  0.1816  0.0584 -0.4841
15056W        W34590   1.379  15.153   1.283 -0.0855  0.1064 -0.0002
15057W        W34591  11.980   5.330  10.964 -0.0012 -0.0305  0.0753
15058W        W34592  14.056  18.324  13.518  0.1035 -0.2653  0.0884
15059W        W34593   8.803   2.949  11.736 -0.2486 -0.0829  0.1309
15060W        W34594   6.015   4.584  13.610  0.0014 -0.2739  0.0293
15061W        W34595   6.700  15.472   4.415  0.0432 -0.0537 -0.0679
15062W        W34596   0.859   7.373   1.776 -0.2426  0.0134  0.1353
15063W        W34597   0.257  17.167  14.146  0.2093 -0.1264 -0.0148
15064W        W34598  19.195   2.205   0.640  0.3242 -0.1408 -0.1560
15065W        W34599   4.233   1.707   1.691  0.2823  0.1583 -0.0831
15066W        W34600  11.203  18.281  11.716  0.0736 -0.0946  0.1682
15067W        W34601   5.061   7.235   3.397  0.0779  0.2017 -0.1212
15068W        W34602   5.996  13.996  13.856  0.1574  0.0052 -0.1044
15069W        W34603   6.025  14.372   1.450 -0.2596 -0.1478 -0.0936
15070W        W34604  10.322  16.388  13.446 -0.1170  0.2001  0.0026
15071W        W34605  17.109   1.518   1.359  0.0084 -0.1826 -0.0067
15072W        W34606  13.366  15.635   4.740  0.4638 -0.0224  0.3225
15073W        W34607  18.237   0.806   1.810 -0.0201  0.1510  0.2115
15074W        W34608   7.339  10.922  12.335 -0.1841 -0.1559 -0.3563
15075W        W34609   0.514   0.817   3.803 -0.0536 -0.2737 -0.1566
15076W        W34610   8.680  13.213  13.857 -0.0059  0.2693 -0.0452
15077W        W34611  12.627  15.586   0.489 -0.1656 -0.2872  0.1974
15078W        W34612   2.143  17.165  14.120  0.0559  0.0950  0.1852
15079W        W34613  15.768   1.260   1.054 -0.0471 -0.0275 -0.1858
15080W        W34614  10.732   4.228  11.762 -0.0176 -0.0802 -0.2855
15081W        W34615  15.855  12.731   3.016  0.2202  0.1242 -0.2250
15082W        W34616  18.078  13.759  13.328 -0.0106 -0.3226  0.4279
15083W        W34617  17.503   2.555  13.703  0.0271 -0.0851 -0.3424
15084W        W34618   3.346   3.526   2.858 -0.1165  0.0914 -0.3295
15085W        W34619  17.706  13.923   3.578 -0.1142  0.0172 -0.0574
15086W        W34620   3.543  12.882  11.312  0.1055 -0.0601  0.2294
15087W        W34621  12.262   5.804   4.141  0.3240  0.0810 -0.1164
15088W        W34622  10.738   7.280  14.154 -0.0278  0.0964 -0.0859
15089W        W34623   7.917   2.797   2.475  0.1266 -0.1969  0.0554
15090W        W34624  10.439  16.125   2.767  0.1212  0.0134 -0.0766
15091W        W34625  17.793  15.365  12.908  0.2068 -0.0595  0.0685
15092W        W34626   9.056  17.459   0.843 -0.2556  0.0755 -0.1174
15093W        W34627   6.770   6.412   2.054  0.3931 -0.0343 -0.2203
15094W        W34628  16.903  13.880  12.916  0.0015 -0.0505 -0.0339
15095W        W34629  10.797   7.325   1.484  0.0629  0.0283  0.0331
15096W        W34630  12.321  13.029   2.144 -0.1656 -0.0321 -0.1005
15097W        W34631   9.236   3.192   2.546 -0.0270  0.0466  0.0821
15098W        W34632  16.846  14.262  11.485  0.0253  0.1425 -0.0113
15099W        W34633  14.570  16.123   2.739  0.0478  0.1483 -0.0471
15100W        W34634   7.752  10.231   0.198 -0.1992  0.2444  0.3219
15101W        W34635   2.234   8.416   1.579 -0.0684  0.2401  0.3231
15102W        W34636   7.656  11.724  10.899  0.1428  0.1090 -0.0380
15103W        W34637  10.880   4.567   2.764  0.1534  0.0812  0.0437
15104W        W34638   0.600  12.620   1.658  0.0164 -0.1442 -0.0797
15105W        W34639   6.989   8.956   0.002 -0.0091  0.1175  0.1346
15106W        W34640   0.488  17.288   3.932 -0.2207 -0.0616 -0.1081
15107W        W34641   2.024  11.890  12.146 -0.0728 -0.1665  0.2090
15108W        W34642   0.714   5.849  11.329  0.1791  0.0284  0.4909
15109W        W34643   8.188  10.257  11.139  0.1943 -0.0278  0.0581
15110W        W34644   9.395   8.013  10.767  0.1393 -0.4897  0.1436
15111W        W34645  15.959  13.406   0.549 -0.1147 -0.2438  0.3015
15112W        W34646  13.225  13.519   0.696 -0.0231  0.4976 -0.1200
15113W        W34647  10.628  13.995  11.896 -0.3576 -0.4043  0.2795
15114W        W34648  16.228  14.261   2.147 -0.1160  0.0242  0.0958
15115W        W34649  12.513   0.847  12.522  0.0179 -0.3412 -0.0611
15116W        W34650  10.292  13.423   1.594 -0.0075 -0.1084  0.0793
15117W        W34651   4.472   9.506  13.537 -0.0469 -0.1339 -0.1683
15118W        W34652   0.075  13.002   0.013  0.0712  0.0020  0.0117
15119W        W34653  10.801  12.985  10.836 -0.0162  0.0286 -0.0408
15120W        W34654   9.318  14.409  12.283  0.1253 -0.0889  0.2145
15121W        W34655   9.188   6.407   1.296  0.1196  0.0382 -0.3948
15122W        W34656   8.128  16.840   2.817  0.3590 -0.3926  0.0771
15123W        W34657   3.865   3.621  11.202  0.4953 -0.1739  0.0356
15124W        W34658   0.588   4.777   2.349 -0.1396  0.1573 -0.1956
15125W        W34659  14.306  14.743   2.992 -0.1830  0.2824 -0.2595
15126W        W34660  17.159   3.342  14.158  0.0974 -0.0816  0.2185
15127W        W34661   0.770   9.320  12.291 -0.2724 -0.0084 -0.2179
15128W        W34662   2.712  11.690   1.893 -0.1857 -0.1461  0.2608
15129W        W34663  10.925  10.634   2.824 -0.4398  0.2327  0.0133
15130W        W34664  16.801  15.560  10.226 -0.2135 -0.2099  0.3333
15131W        W34665   3.923  19.346  11.480  0.1386 -0.0906 -0.3028
15132W        W34666   1.047   4.089  12.263  0.1399 -0.0634 -0.0224
15133W        W34667  18.919   7.498  12.126 -0.0246  0.0130  0.0323
15134W        W34668  19.379   7.005   0.357  0.1314  0.1593  0.1250
15135W        W34669   6.713   6.051   3.774 -0.2832  0.0254 -0.1275
15136W        W34670   9.630  16.054   0.406 -0.0342 -0.1483  0.1631
15137W        W34671   5.762   1.633   2.728 -0.0592  0.2746  0.0011
15138W        W34672   7.806  12.898  10.547 -0.1207  0.3371  0.2521
15139W        W34673  11.062   7.444  11.923  0.2368  0.3618 -0.0882
15140W        W34674   1.315   8.733  13.937 -0.0127  0.0046  0.1149
15141W        W34675  16.467  15.843   2.242  0.1238 -0.4561 -0.0611
15142W        W34676  16.240   6.405   0.100 -0.1580 -0.1627 -0.1110
15143W        W34677   3.312   9.294   0.842 -0.2385  0.0559 -0.0157
15144W        W34678   3.142   8.015  10.645  0.1672 -0.0528  0.2035
15145W        W34679   8.201   4.200   0.867  0.1684 -0.0704  0.1434
15146W        W34680  13.239   8.620   0.075 -0.0643 -0.3416 -0.1285
15147W        W34681   3.162  15.434   0.115  0.0538 -0.0108  0.0077
15148W        W34682  11.060   2.326   1.409  0.1542 -0.1009 -0.1676
15149W        W34683  16.784  16.530   4.173 -0.3102  0.1473 -0.1170
15150W        W34684   5.121  18.737  11.371  0.0444  0.0444 -0.0036
15151W        W34685  11.567  10.284  12.656 -0.0603  0.1453 -0.2900
15152W        W34686  16.299   4.537  11.857 -0.1078  0.1831 -0.0489
15153W        W34687   8.628  12.655   3.158 -0.0743  0.0004  0.1193
15154W        W34688   2.400   6.686   2.196 -0.0761 -0.1239  0.0100
15155W        W34689   9.567  14.275  14.001 -0.0602 -0.0854 -0.0826
15156W        W34690  17.751   8.871   4.171  0.1618 -0.2418  0.2021
15157W        W34691   0.435  12.092  14.102  0.1251  0.0115 -0.0700
15158W        W34692  10.398   3.732   0.769 -0.0303  0.1369  0.1716
15159W        W34693   0.552  14.420  12.316  0.1663  0.3637  0.1727
15160W        W34694   3.238  15.453   2.259 -0.1556 -0.0275  0.1138
15161W        W34695  10.883   7.618  13.254 -0.2421  0.3629  0.0267
15162W        W34696   0.720  14.638  10.596 -0.0307  0.0204 -0.1681
15163W        W34697   6.428   7.023  12.009 -0.0395  0.2612 -0.0540
15164W        W34698   1.744   3.935   2.443 -0.4044 -0.0336  0.0334
15165W        W34699  16.918  13.798   1.414 -0.1169  0.1342  0.0576
15166W        W34700  14.370   4.997   0.049  0.2831  0.2733  0.0204
15167W        W34701   8.758  15.780   1.768  0.2482 -0.1161 -0.0450
15168W        W34702  12.442   5.864  10.638 -0.1735  0.2346  0.2043
15169W        W34703  10.099   1.812  13.747  0.0002 -0.2431 -0.0082
15170W        W34704  18.960  14.708   0.494 -0.1643  0.2724  0.1986
15171W        W34705  12.900   2.663   1.436 -0.2166 -0.0612  0.2397
15172W        W34706   0.499   8.459  13.336 -0.1649  0.0492 -0.0234
15173W        W34707   7.346   1.092   4.208  0.0450  0.0728  0.0364
15174W        W34708   2.060   8.591   0.692  0.1198  0.0660 -0.1395
15175W        W34709   5.117  14.902   0.176 -0.2215  0.0287  0.1392
15176W        W34710   8.093  13.307   2.710  0.0899 -0.0457  0.1320
15177W        W34711  11.837  13.653  13.005 -0.2137 -0.1220  0.2541
15178W        W34712   9.323  11.773   5.121  0.0242 -0.0103  0.1642
15179W        W34713   2.448   4.988  13.043 -0.0344 -0.1252  0.1497
15180W        W34714   8.926  14.749   0.918  0.4222  0.0181 -0.2018
15181W        W34715  11.674   8.113   4.037 -0.0200 -0.0504 -0.0235
15182W        W34716   5.073   1.143   0.773  0.2061  0.0061  0.1304
15183W        W34717  18.625   5.281   2.695 -0.0930 -0.1272  0.0892
15184W        W34718   7.087  13.911   3.509  0.4354 -0.0576 -0.1353
15185W        W34719   2.524   3.144  12.311  0.0266 -0.0918 -0.2041
15186W        W34720  16.720   9.016   1.414  0.3470 -0.3820  0.1129
15187W        W34721   9.744   9.640   1.853 -0.2089  0.1412  0.2167
15188W        W34722  13.343   0.880   3.211  0.2729 -0.2397 -0.0529
15189W        W34723  15.500  13.592   2.590 -0.1616 -0.2185 -0.1607
15190W        W34724  14.084  16.923   3.157 -0.2648  0.2259 -0.0906
15191W        W34725  17.742  10.401  12.416 -0.1500  0.0560  0.1586
15192W        W34726  17.630   2.723  12.764 -0.0709 -0.0111  0.1621
15193W        W34727   4.748   3.828   4.390  0.1449 -0.0808 -0.2000
15194W        W34728   4.804  12.094  12.093  0.1009  0.1376 -0.0187
15195W        W34729   9.555  18.982  10.506 -0.0307 -0.0788 -0.1817
15196W        W34730   2.266  13.562   2.247  0.0957 -0.1834  0.2199
15197W        W34731   9.255   8.153   3.447 -0.1892  0.1818 -0.1981
15198W        W34732  18.396  12.164  12.032 -0.0246  0.1423  0.3613
15199W        W34733   1.978  18.774  12.111 -0.1018  0.4695  0.0540
15200W        W34734  12.619  16.224   2.855  0.0510  0.1024 -0.0389
15201W        W34735   1.597  19.003  11.853 -0.3635  0.4280  0.1144
15202W        W34736   1.398  10.562   1.636  0.4303 -0.1285  0.0581
15203W        W34737  10.304  11.384   3.812 -0.1415  0.2750 -0.0944
15204W        W34738  11.217   3.367  13.363  0.0507  0.1581 -0.1353
15205W        W34739  16.745  16.699   1.779  0.0312 -0.2619 -0.2569
15206W        W34740   6.498   5.832  12.434  0.1844  0.1325  0.0179
15207W        W34741  11.523  11.396   9.341 -0.2166 -0.1229 -0.0033
15208W        W34742  11.045   7.064   0.922 -0.1740 -0.0048 -0.1906
15209W        W34743   7.828  12.857   1.385 -0.1324 -0.0687 -0.0538
15210W        W34744   6.625   3.880   0.448  0.1486  0.0246 -0.0769
15211W        W34745   7.183  18.097   3.284  0.0253  0.0809 -0.0163
15212W        W34746  15.027   2.647   2.742 -0.0896  0.0333  0.0048
15213W        W34747   0.226  18.477   1.350  0.1631 -0.2154 -0.2471
15214W        W34748  11.441  15.615   1.482 -0.3085  0.1064  0.0085
15215W        W34749  15.371  19.500   3.601 -0.2241 -0.0553  0.3000
15216W        W34750   5.228  19.167  12.114  0.1063  0.1262  0.4061
15217W        W34751  14.461  10.269   2.064 -0.2570  0.0389  0.2625
15218W        W34752   7.486   4.299   1.972  0.0412  0.4081  0.4213
15219W        W34753  18.334   5.441  11.892  0.1856  0.1818 -0.0524
15220W        W34754   6.947   5.591  14.145 -0.0247  0.0710  0.2749
15221W        W34755   4.997  18.373   1.432 -0.0436 -0.0435  0.0155
15222W        W34756   3.063  14.960  12.273  0.0159 -0.0199 -0.3894
15223W        W34757   4.663   7.561  12.405 -0.2046  0.1960  0.0743
15224W        W34758   5.908   5.902  11.080  0.5834 -0.2146  0.2084
15225W        W34759   6.326  18.080  14.148  0.1741  0.0320 -0.0742
15226W        W34760   0.994  16.877   0.377  0.1284  0.1227  0.0425
15227W        W34761  11.203  17.130   0.008 -0.1633  0.0166  0.3064
15228W        W34762  11.048  14.458   1.986  0.1252 -0.0593 -0.0447
15229W        W34763   2.936   1.087  11.849  0.0046  0.0637  0.0869
15230W        W34764  15.347   3.225  10.750  0.3109 -0.1137  0.2468
15231W        W34765   6.319  15.797  12.374  0.1542  0.0100  0.1786
15232W        W34766   1.124   6.892   0.770  0.0006 -0.1885 -0.0665
15233W        W34767   4.090   6.587  12.368 -0.0846 -0.0546  0.0411
15234W        W34768  19.247  14.904  12.478 -0.2319 -0.0515  0.1937
15235W        W34769  18.364   7.327  11.071  0.3785 -0.0161 -0.1991
15236W        W34770   2.605   1.375  11.676  0.0394  0.0741  0.1246
15237W        W34771   7.076   0.685  13.722 -0.0503 -0.0399 -0.0257
15238W        W34772  12.895  18.115  11.293 -0.1696 -0.3617  0.3667
15239W        W34773  19.212  14.869  10.600 -0.0840  0.2781 -0.0055
15240W        W34774  18.666   0.659  12.485 -0.0358  0.3026  0.1171
15241W        W34775  10.038   2.009  12.564 -0.0204 -0.0958  0.3457
15242W        W34776  14.312  14.993   2.262 -0.0232  0.0439  0.2535
15243W        W34777  18.546   0.147   1.897 -0.0864  0.0378 -0.1453
15244W        W34778  14.277  16.501  11.299  0.1266 -0.3333 -0.1483
15245W        W34779  11.213  16.390  13.773 -0.2204 -0.2666  0.0064
15246W        W34780  14.570  18.511  10.457 -0.2167 -0.0711  0.1579
15247W        W34781  11.095  16.646  12.776  0.4096  0.3855 -0.1217
15248W        W34782   6.484   1.216  10.998  0.1187  0.4124 -0.0523
15249W        W34783  12.522   0.382  13.790  0.2624 -0.3040  0.0771
15250W        W34784  14.742  17.682   3.286  0.0036  0.0051  0.1332
15251W        W34785  11.453   2.920   3.952  0.0870  0.2575  0.2228
15252W        W34786  18.034   5.828   9.566  0.2149  0.1743 -0.0697
15253W        W34787  14.439   7.292  10.435  0.0226 -0.0074  0.2211
15254W        W34788   2.787  14.878  11.044 -0.0912 -0.3353  0.0172
15255W        W34789   1.959   3.874  13.960  0.1084  0.1131  0.0335
15256W        W34790   5.824   5.857   3.058 -0.1787 -0.2046  0.1540
15257W        W34791   9.579   2.519  13.314  0.0904 -0.2590 -0.4726
15258W        W34792   0.959  14.796  13.748  0.1412 -0.2192 -0.0111
15259W        W34793  18.796  16.627  13.583  0.1655 -0.0033 -0.2581
15260W        W34794  16.651  13.878   3.696  0.1123 -0.0731  0.0048
15261W        W34795   6.168  11.020   0.141  0.0374 -0.1204  0.1610
15262W        W34796   6.539   6.568  13.923  0.2578  0.1146 -0.0809
15263W        W34797   5.733   4.236   3.641  0.1791 -0.2851 -0.1244
15264W        W34798  19.065  13.757   0.580  0.2045 -0.1829  0.0968
15265W        W34799   0.677   6.101   2.866  0.4401  0.0871 -0.3699
15266W        W34800   7.446   7.943  11.723  0.0506 -0.0588 -0.0384
15267W        W34801  15.186  18.868  14.239  0.0491 -0.0861  0.1853
15268W        W34802   3.404  15.875  14.301 -0.0252  0.1100 -0.2223
15269W        W34803   1.449  14.122   1.233 -0.0088 -0.1887 -0.1161
15270W        W34804   0.711  11.262  12.423 -0.1386  0.0731 -0.1970
15271W        W34805  15.723  18.548  10.199 -0.1412  0.1358  0.2123
15272W        W34806  12.322  13.027  13.144  0.1709  0.0657 -0.0967
15273W        W34807   1.331   5.112   2.689  0.3210  0.0757  0.0480
15274W        W34808  17.033  12.354   1.399 -0.1214  0.0708 -0.1403
15275W        W34809  14.099   8.017  10.718 -0.0822 -0.0811  0.0078
15276W        W34810  11.200  17.375  13.170 -0.0951 -0.0742  0.0450
15277W        W34811   8.308  10.009  13.407 -0.0845  0.1216 -0.3624
15278W        W34812   7.900   0.308  11.301 -0.1889  0.1445 -0.0754
15279W        W34813  11.952  17.175  10.990 -0.1073  0.0738  0.2821
15280W        W34814  12.491  11.096  13.072 -0.0712  0.2590  0.1440
15281W        W34815  14.217  15.665   0.323 -0.1871 -0.2991 -0.1718
15282W        W34816   7.653   8.276  11.042  0.2922 -0.1026  0.0517
15283W        W34817   7.834  16.288   4.421 -0.3191  0.1659  0.0937
15284W        W34818   1.638   0.510  13.940 -0.1041  0.1067  0.2838
15285W        W34819  18.979   6.279   2.163 -0.0798  0.0581 -0.1040
15286W        W34820   4.055   8.759  11.406  0.1456 -0.0818 -0.3285
15287W        W34821   9.557   7.194   2.557  0.2312 -0.1754  0.0921
15288W        W34822   2.261  19.405   1.515  0.1542 -0.3451 -0.0491
15289W        W34823   7.471  18.037  10.588 -0.0201 -0.0663  0.0036
15290W        W34824  14.778  11.522  14.098  0.0738  0.2258 -0.1340
15291W        W34825   1.069  17.010   3.064 -0.3444  0.0199 -0.1940
15292W        W34826  18.389   0.213   0.272  0.1126  0.2745  0.1147
15293W        W34827   5.155  14.787   4.271 -0.0292 -0.1027  0.0346
15294W        W34828  11.112  13.573   4.276 -0.0239 -0.0532 -0.3003
15295W        W34829  12.969   8.400  11.949  0.1281 -0.0028 -0.1293
15296W        W34830   6.525   6.542   0.118  0.1564  0.2611  0.2069
15297W        W34831  17.664   7.491   4.094  0.2688  0.0071 -0.1567
15298W        W34832  15.140  16.492  12.098 -0.1699 -0.1921  0.3167
15299W        W34833   8.689   8.576   3.966 -0.1165 -0.0609  0.1637
15300W        W34834  10.771   6.933   0.518  0.1811  0.3206  0.0495
15301W        W34835   9.229   5.789  12.300 -0.0267 -0.0990 -0.1729
15302W        W34836   0.255  13.436   2.665 -0.1096 -0.0576  0.0410
15303W        W34837   2.198   6.155   2.044 -0.2925 -0.3551  0.0157
15304W        W34838   7.383  11.862  11.299 -0.1824 -0.2106 -0.2033
15305W        W34839   2.600  19.150  13.438  0.0272  0.1002 -0.4119
15306W        W34840   7.947   1.543  13.336  0.3162  0.2590  0.1066
15307W        W34841  15.056  15.260  14.366  0.4510  0.2726  0.1219
15308W        W34842  11.325   7.874   1.546  0.0318 -0.2537  0.0172
15309W        W34843   5.427   0.094  12.396 -0.0612 -0.1450  0.2035
15310W        W34844   8.222  10.627  11.662  0.0620 -0.0748 -0.4011
15311W        W34845   7.508  12.007   2.899  0.0817 -0.2125  0.2135
15312W        W34846  16.780  13.663  12.439 -0.1554  0.2413  0.2825
15313W        W34847  17.854  19.498  11.303  0.2479 -0.1276 -0.0536
15314W        W34848  12.440   0.240  12.027  0.1060  0.2780  0.0570
15315W        W34849   3.982   8.557   4.364 -0.1221 -0.1764 -0.0814
15316W        W34850  13.943   8.567  10.905 -0.3058 -0.1660 -0.0007
15317W        W34851  14.326  16.608   2.808  0.4380 -0.0671 -0.1329
15318W        W34852  12.404   9.529   3.058 -0.0591 -0.4172  0.0293
15319W        W34853   2.593  13.039  13.341 -0.0739 -0.1283  0.1456
15320W        W34854   4.619  11.843   3.520  0.0094  0.2298 -0.1210
15321W        W34855  17.588  12.067  10.581  0.1021 -0.0860  0.0229
15322W        W34856  18.774  17.526   1.482  0.2838 -0.1806 -0.0510
15323W        W34857   6.639   5.235   3.321  0.3058  0.4209 -0.0777
15324W        W34858  16.583   7.804  11.829  0.0757 -0.2556  0.0901
15325W        W34859  10.777  13.183   2.464  0.3559 -0.3250 -0.0369
15326W        W34860   9.891   1.525   2.526 -0.1409  0.0383  0.0838
15327W        W34861   7.131   1.483   3.213 -0.0787  0.0799 -0.1447
15328W        W34862  13.551  16.143  11.992 -0.2286 -0.0312  0.0869
15329W        W34863  16.236   8.696  11.712  0.1727  0.0331  0.1471
15330W        W34864   1.943   0.094  10.643  0.3358  0.1781 -0.1923
15331W        W34865   1.715  15.647   2.390 -0.0920 -0.2197 -0.2680
15332W        W34866  14.818   2.100  11.595  0.3440  0.1611  0.1345
15333W        W34867   8.514   0.750  12.816 -0.1883 -0.0740  0.0091
15334W        W34868  15.497  16.552  11.791 -0.3179 -0.2013  0.1989
15335W        W34869   4.684  14.852   4.006  0.0727 -0.3489 -0.0452
15336W        W34870  14.313  18.051  10.239 -0.1591 -0.2478 -0.2433
15337W        W34871  15.665   2.429  11.370  0.1232 -0.2908 -0.0466
15338W        W34872   8.389  18.111   2.646  0.2300  0.0312 -0.0868
15339W        W34873  17.190   5.997   1.293  0.2098  0.0740 -0.0440
15340W        W34874  12.759  10.166  11.011  0.1545 -0.1692 -0.1881
15341W        W34875   9.550   5.812   3.776 -0.5586  0.0303 -0.1882
15342W        W34876   3.330  15.704   2.803  0.0829  0.0725  0.1498
15343W        W34877  13.441   3.733  12.600  0.1818 -0.1963  0.0258
15344W        W34878   7.263  14.810   1.100 -0.0425 -0.0461  0.1369
15345W        W34879   0.014  17.163  11.296 -0.1008  0.0121  0.1131
15346W        W34880  19.379   2.125  10.806  0.0863  0.2383 -0.1254
15347W        W34881   4.071  10.338   0.270 -0.0493 -0.0052  0.1624
15348W        W34882  14.323   2.498   1.075 -0.2404 -0.1074  0.4797
15349W        W34883   7.612  18.212  13.985  0.1784 -0.2130 -0.2572
15350W        W34884  13.744  13.023  12.481 -0.0097 -0.1988  0.0759
15351W        W34885   6.867  14.446  12.248  0.0179  0.2190  0.0826
15352W        W34886  10.437  19.432   0.326 -0.2435  0.1797 -0.1144
15353W        W34887   0.781   2.291   9.899  0.3601  0.1612 -0.1248
15354W        W34888  10.499   0.328   0.781 -0.3189  0.1301 -0.1501
15355W        W34889  13.996   8.683   0.138 -0.0887 -0.0210  0.3098
15356W        W34890  12.249   5.481   0.913  0.1715 -0.0793  0.2394
15357W        W34891   1.965  13.029   2.647 -0.0673  0.1402  0.0460
15358W        W34892   5.049   4.923  14.191 -0.1077  0.0094 -0.4948
15359W        W34893  15.974  12.194  12.877 -0.3160  0.2348  0.0385
15360W        W34894  16.610   6.404  13.589  0.0222 -0.4308 -0.1175
15361W        W34895  13.191  15.619  12.636  0.1096 -0.4204 -0.1374
15362W        W34896  10.024  17.347  13.239 -0.0114 -0.1837 -0.1224
15363W        W34897   5.949  17.422   3.257  0.1626  0.1950 -0.1138
15364W        W34898   0.733   4.279   3.887  0.2611  0.1847  0.0431
15365W        W34899  17.206   4.620   3.463  0.0120 -0.3475  0.2815
15366W        W34900  19.366  14.174  13.209  0.0073 -0.0826  0.1980
15367W        W34901   3.420  15.754   1.539 -0.0304  0.2850 -0.1873
15368W        W34902   7.003   1.428   9.558  0.1511 -0.2204  0.1350
15369W        W34903  16.492   8.122   3.403  0.1319  0.0641  0.2270
15370W        W34904   2.794   6.303  12.723  0.3954  0.1267  0.0942
15371W        W34905   1.427  14.599  12.700  0.2218  0.2297  0.2258
15372W        W34906  11.395  12.322   9.784  0.1319  0.0446  0.1217
15373W        W34907  11.699   9.960   3.193  0.2656 -0.1660 -0.2267
15374W        W34908  13.290  12.790  12.462 -0.3025 -0.3138 -0.1436
15375W        W34909   2.839   0.005   1.129  0.0791  0.3218  0.0512
15376W        W34910  18.517   6.986   2.571  0.1143  0.1592  0.1366
15377W        W34911  17.458  17.844  13.588 -0.0708  0.0466  0.3313
15378W        W34912  16.975  17.925  13.876  0.0630  0.3144  0.0801
15379W        W34913   1.394   9.190  14.180  0.0991 -0.2345  0.1724
15380W        W34914   2.886  12.789  13.841 -0.2965 -0.1668 -0.0219
15381W        W34915  17.933  18.867  11.150  0.4061 -0.0477  0.3044
15382W        W34916   0.365  13.095   3.008  0.0961  0.1408  0.1176
15383W        W34917  15.730   9.985   1.595 -0.3929  0.1068 -0.0147
15384W        W34918  15.798   4.688   3.796 -0.0546 -0.1103  0.1439
15385W        W34919  16.255  13.381  13.340 -0.1706  0.0801 -0.0020
15386W        W34920  11.540   1.090  13.169 -0.2348 -0.3636 -0.0287
15387W        W34921   0.795  18.088  11.079 -0.3966  0.2920 -0.0331
15388W        W34922   6.634   6.578   1.607 -0.1422  0.1009  0.1116
15389W        W34923  12.610   9.828   0.827 -0.1724  0.3047  0.0545
15390W        W34924   1.378  11.980   1.529 -0.1870  0.1790  0.2483
15391W        W34925  17.711   7.441   1.373 -0.4259  0.0049  0.1040
15392W        W34926   9.529   1.553   3.884  0.1194  0.3841  0.3077
15393W        W34927  17.096   7.075  11.578  0.3666  0.3680 -0.1852
15394W        W34928  18.804  17.233  11.677 -0.0079  0.1737 -0.1203
15395W        W34929   4.224   6.893   9.997  0.2753  0.0803  0.1250
15396W        W34930  17.573   6.715   1.816  0.1304  0.3356 -0.2627
15397W        W34931   1.689   9.283  13.066 -0.1323  0.1110 -0.1849
15398W        W34932   6.939  11.903  13.768 -0.0218 -0.1895  0.0762
15399W        W34933   4.608   8.137   1.120  0.1134 -0.2437 -0.1131
15400W        W34934  12.693   9.665   3.926 -0.1541 -0.2504 -0.2758
15401W        W34935  12.490   5.487  10.978 -0.0125  0.3981  0.0699
15402W        W34936   3.726   6.694  10.892  0.0950  0.0573 -0.3929
15403W        W34937  13.503  16.288  10.455 -0.3196 -0.1179 -0.2491
15404W        W34938  18.735   6.880   3.046 -0.2526  0.2255  0.1372
15405W        W34939  15.035   8.152  12.984 -0.0423  0.1060  0.0992
15406W        W34940  14.514  11.014  13.226  0.0491  0.1800  0.0918
15407W        W34941   0.821  15.842   9.254 -0.0418  0.1133  0.0562
15408W        W34942  11.351   6.468   3.612  0.0898 -0.2392  0.1516
15409W        W34943   1.894  18.966   3.703  0.0882  0.0268  0.2347
15410W        W34944  12.139  13.639  13.944  0.1266  0.3965  0.0016
15411W        W34945  12.783   6.560   3.318 -0.3158  0.1617 -0.0806
15412W        W34946   3.463   5.970   3.510 -0.0290 -0.2265 -0.0599
15413W        W34947  12.920  12.485  10.674 -0.0122  0.1542 -0.0248
15414W        W34948  11.675   9.373   0.053  0.3457  0.2194  0.0033
15415W        W34949  17.737  13.880  11.036  0.1316  0.2292  0.1026
15416W        W34950   3.786  18.836  12.485  0.0087  0.1548  0.2872
15417W        W34951   8.837  12.919   2.156 -0.0554 -0.2823 -0.0458
15418W        W34952  10.946  18.895   0.914 -0.0340 -0.1878  0.2204
15419W        W34953  17.010   0.167  14.375  0.0084 -0.0843  0.1327
15420W        W34954  10.407  10.526   1.792 -0.1337 -0.1488  0.1592
15421W        W34955  16.042   5.091  12.383 -0.0427  0.0517  0.3431
15422W        W34956   9.459   9.330   2.368 -0.0224  0.0017  0.2334
15423W        W34957   5.952   0.093  14.266  0.0087  0.1841  0.3117
15424W        W34958   0.364   5.757   9.680  0.0399 -0.0096  0.0441
15425W        W34959   9.733  11.435  12.052 -0.1201 -0.1817  0.1932
15426W        W34960  12.187   3.536  12.988 -0.0914  0.3217 -0.2114
15427W        W34961  15.281   9.443   0.045 -0.0334  0.0403  0.0136
15428W        W34962   1.446   1.328   0.133 -0.0375 -0.0946 -0.2854
15429W        W34963  16.219  18.620  10.291  0.3641 -0.1000 -0.0553
15430W        W34964  19.097   7.011   1.193  0.0963 -0.0603 -0.1735
15431W        W34965   8.023   6.882   1.507 -0.1328 -0.1147 -0.0972
15432W        W34966   1.343   0.862   2.616 -0.3042 -0.1310  0.0832
15433W        W34967   9.938  18.705  11.959  0.1355 -0.1141 -0.0462
15434W        W34968   7.809   0.216   0.909 -0.0197  0.2445 -0.2805
15435W        W34969   4.381   2.037  14.232 -0.0367 -0.4695 -0.0135
15436W        W34970  10.910   8.352   1.545  0.0315  0.0478 -0.1303
15437W        W34971  10.014   6.487   0.342  0.2857  0.2528 -0.3037
15438W        W34972  13.832  14.274  12.460  0.1503 -0.0394 -0.0976
15439W        W34973   4.706   0.032   3.471 -0.0049  0.3115  0.2117
15440W        W34974   6.862  16.096  14.154 -0.1662 -0.3587 -0.0536
15441W        W34975  16.141  13.803  13.130 -0.0212  0.0764 -0.0998
15442W        W34976   8.248  14.071  11.713  0.0162 -0.0787 -0.1878
15443W        W34977   5.396   3.968   0.723  0.0198 -0.3044 -0.2321
15444W        W34978  10.200  19.191  10.057  0.1467 -0.1056 -0.1258
15445W        W34979  13.533   1.935  10.643 -0.1502  0.0220  0.0985
15446W        W34980   9.234  17.984  13.016 -0.0677 -0.0181 -0.1646
15447W        W34981   0.511   2.436   2.598 -0.4432 -0.1660 -0.2250
15448W        W34982  17.289  13.549   2.263  0.0053  0.0086 -0.0307
15449W        W34983  12.791  17.796   1.827 -0.1163 -0.1932 -0.4979
15450W        W34984   7.204   3.029   3.121  0.0604 -0.1712 -0.2367
15451W        W34985  12.525   5.553   1.422  0.1255  0.2743 -0.1742
15452W        W34986  16.031  11.856   2.904 -0.1452  0.1449  0.2022
15453W        W34987  13.226  19.235   9.206  0.0099  0.0707 -0.0886
15454W        W34988   7.305   3.496  11.782  0.0498 -0.0290  0.1020
15455W        W34989  17.882  11.569   9.288 -0.0557 -0.0335  0.1616
15456W        W34990  14.230  10.581   2.419  0.0254 -0.0351  0.1204
15457W        W34991  15.256   7.938   1.399 -0.1271 -0.0820 -0.1447
15458W        W34992   4.597  16.163  11.149 -0.5162  0.3618 -0.1688
15459W        W34993   6.026  18.704   2.878  0.2138  0.0477 -0.2752
15460W        W34994  18.021  13.173   2.657  0.2192 -0.1692  0.2671
15461W        W34995  12.999  10.248   0.991 -0.0861 -0.0971  0.1583
15462W        W34996  14.996   1.684  10.847  0.1331 -0.0811  0.1679
15463W        W34997   2.193   4.281  14.025  0.0585  0.0480  0.2303
15464W        W34998  18.768  10.800   1.330 -0.1583 -0.1646 -0.1196
15465W        W34999   3.996  17.827   3.254 -0.2140  0.3165 -0.1265
15466W        W35000  10.312  14.809  10.507  0.4316  0.3123 -0.3195
15467W        W35001   3.738  10.824   2.353 -0.1591 -0.1252 -0.2482
15468W        W35002  14.934  14.547  12.776  0.1283 -0.3684  0.0425
15469W        W35003  15.288   7.864   4.590 -0.0866  0.0393 -0.1186
15470W        W35004  17.665  14.926   1.893 -0.1784 -0.1252 -0.4000
15471W        W35005  16.703  11.102   2.712 -0.2535  0.0809  0.2995
15472W        W35006   7.340  10.312  12.183 -0.3144  0.0505 -0.0596
15473W        W35007   9.642  10.825   0.002 -0.4149  0.0730  0.0479
15474W        W35008  14.036  19.426  10.256 -0.0943 -0.0431 -0.0178
15475W        W35009   4.677   9.118   4.243  0.2001 -0.0584 -0.3553
15476W        W35010   7.659   1.668  14.125  0.0400 -0.1279 -0.2673
15477W        W35011  14.666  10.063  13.089 -0.2745 -0.1973 -0.4954
15478W        W35012   1.363   4.455  12.463 -0.1304  0.3795  0.1095
15479W        W35013  17.028   5.015  13.350 -0.0161 -0.1974 -0.1662
15480W        W35014  17.252  15.240   3.106  0.3881  0.0606 -0.2774
15481W        W35015   1.607   9.315   1.151 -0.0529  0.0274 -0.1956
15482W        W35016   4.542   8.850  11.200  0.3880 -0.1748 -0.0728
15483W        W35017  11.931  13.402  13.436 -0.0091  0.4117 -0.1798
15484W        W35018  14.377  15.194  13.850 -0.0126  0.3916  0.1204
15485W        W35019  13.898   0.449   1.386 -0.1935  0.1358 -0.3636
15486W        W35020  17.903   5.063  13.706 -0.0150 -0.3410 -0.1341
15487W        W35021  12.361   8.500   3.250 -0.2656  0.0714  0.3240
15488W        W35022  15.740   7.679   4.743 -0.0767 -0.2013  0.1184
15489W        W35023   1.749  14.619   4.008 -0.0578  0.1260  0.0403
15490W        W35024   8.780   7.462   4.030  0.2665  0.3308  0.1839
15491W        W35025   1.358   2.413  14.088  0.2166  0.0610  0.2369
15492W        W35026  15.561  16.568  10.022 -0.0672  0.2012  0.0536
15493W        W35027   5.745  10.240   3.044 -0.2444 -0.1644 -0.0426
15494W        W35028   5.041   6.476   1.554 -0.1732  0.1623  0.1586
15495W        W35029   0.641   5.668   2.341 -0.2106  0.2251 -0.1618
15496W        W35030  18.656  18.843  13.584 -0.1636 -0.0973 -0.1999
15497W        W35031  16.412  16.330   2.912 -0.1523 -0.0215  0.1034
15498W        W35032   9.055  14.684  13.159  0.1865 -0.0885  0.1954
15499W        W35033   1.077  19.515   0.146  0.2351 -0.1298  0.3127
15500W        W35034  11.793  17.356  11.796 -0.0261  0.0086 -0.1327
15501W        W35035   5.454  15.488  11.985 -0.0669 -0.0540 -0.1754
15502W        W35036   4.578   7.209  13.352 -0.0810  0.0080 -0.2325
15503W        W35037  13.588  17.797  11.568 -0.2249  0.2358 -0.1864
15504W        W35038  18.571   3.472   1.972  0.0705 -0.0861  0.0125
15505W        W35039   2.326   0.827   1.134 -0.0871  0.0557 -0.2559
15506W        W35040  18.424  14.668   1.401  0.2810 -0.1104  0.0503
15507W        W35041   7.384  15.300   1.929  0.1501  0.0411 -0.0711
15508W        W35042  14.907   5.364  11.573 -0.1474 -0.4022 -0.0810
15509W        W35043  13.185   9.709   4.747 -0.5441 -0.1004 -0.0083
15510W        W35044  18.427   0.623  14.280  0.0191  0.0868  0.0198
15511W        W35045   6.287   3.506   3.638 -0.2853 -0.2402  0.0283
15512W        W35046  12.409   9.056   3.207 -0.1700  0.0332 -0.1924
15513W        W35047  17.312  13.303   3.829 -0.3020  0.1126  0.0351
15514W        W35048   4.187  16.628   3.730 -0.1071  0.2883  0.0929
15515W        W35049  18.350   0.805  12.891  0.2873 -0.0293 -0.1318
15516W        W35050  19.009   5.170   3.040  0.1602 -0.0247 -0.2214
15517W        W35051   7.148  17.586   3.202  0.3045  0.0210  0.0687
15518W        W35052  11.934  10.600  11.130 -0.0654  0.1507 -0.2372
15519W        W35053  11.574   6.108   1.673 -0.5278  0.0896  0.0831
15520W        W35054  10.518  10.539   1.290 -0.2772  0.0479  0.2041
15521W        W35055   1.576   7.904  13.936  0.2452 -0.0741  0.0266
15522W        W35056  15.787   7.689  12.282  0.1135 -0.0298 -0.1406
15523W        W35057   3.936   5.488  12.002 -0.1944  0.4035 -0.2605
15524W        W35058   5.632   3.051   2.452  0.1331 -0.1173 -0.1972
15525W        W35059  19.072  14.579  12.134  0.2931  0.1286 -0.0531
15526W        W35060  18.409   2.887   3.709 -0.0535 -0.0387  0.0623
15527W        W35061  10.709  10.952   1.513 -0.2011 -0.0165  0.1351
15528W        W35062  16.516  13.007  13.503 -0.0959  0.1332 -0.0925
15529W        W35063  11.065  18.121  12.682  0.0241  0.0549 -0.1900
15530W        W35064  11.180   1.814  11.906 -0.2011 -0.2116 -0.0341
15531W        W35065   9.106  16.381   3.028  0.2987  0.1222 -0.0999
15532W        W35066  11.698   9.674  11.519 -0.0878  0.0253  0.3039
15533W        W35067   6.386  13.771  13.608 -0.1825 -0.0772 -0.0755
15534W        W35068   7.456  15.651   3.825  0.0319  0.1883 -0.0068
15535W        W35069  12.031  18.658  12.239 -0.4450 -0.0637 -0.2321
15536W        W35070   4.827  16.280  13.119  0.1975 -0.0512  0.0242
15537W        W35071  16.644  12.162  13.772  0.0755 -0.2447  0.0153
15538W        W35072   8.722   8.617  10.986 -0.0355  0.1329 -0.1720
15539W        W35073  19.187  17.803   1.663  0.2351  0.1621  0.1358
15540W        W35074  13.645   4.555  11.747 -0.0854 -0.3489 -0.1419
15541W        W35075   5.307   5.452  13.337 -0.1256  0.3705 -0.1614
15542W        W35076   8.272  19.438  11.169  0.0594  0.1755  0.2547
15543W        W35077  12.255   2.262   2.966  0.0063 -0.0654  0.0502
15544W        W35078  10.588  10.394  10.892 -0.3264  0.0583 -0.3313
15545W        W35079  18.820  10.921   3.905  0.0033 -0.4122 -0.1602
15546W        W35080  15.908   9.838   3.640  0.2210 -0.2015 -0.0083
15547W        W35081   8.846  14.391  13.556 -0.0325  0.1247 -0.0687
15548W        W35082   3.242  14.034   9.866 -0.1308  0.1065  0.0773
15549W        W35083  16.054   4.030   4.039  0.0019  0.1470  0.0315
15550W        W35084   1.561   9.832   2.034 -0.2294  0.3316 -0.0870
15551W        W35085   3.450  14.323  11.253  0.0494  0.2246  0.0085
15552W        W35086   3.835   3.034   3.445  0.1574  0.0211 -0.2496
15553W        W35087   5.400   1.510   0.861 -0.0249  0.4221  0.2237
15554W        W35088  14.662  15.896   1.118 -0.1568 -0.0187 -0.0413
15555W        W35089  12.457   0.207  10.618  0.0897  0.0237 -0.1566
15556W        W35090  10.250  15.189   4.910 -0.0805  0.0698 -0.0979
15557W        W35091  14.719  16.598   4.416 -0.0074  0.0889  0.3400
15558W        W35092   9.189  14.476  10.889 -0.5425  0.0421  0.6159
15559W        W35093  17.324  16.177   2.524  0.0120  0.0643  0.0367
15560W        W35094  17.737  13.346   3.526 -0.0745  0.0048 -0.2014
15561W        W35095  17.880  17.630   4.139 -0.2693 -0.1475  0.0739
15562W        W35096   0.313   8.632   3.561 -0.1449 -0.1628  0.2381
15563W        W35097  19.376  19.007  13.448  0.0952 -0.1300 -0.1147
15564W        W35098   8.159  10.005   3.909 -0.2057 -0.0230  0.1844
15565W        W35099  14.813  18.325   0.440  0.0370  0.1380 -0.2520
15566W        W35100  18.078   9.085  11.685  0.0882  0.2111 -0.0453
15567W        W35101  16.059  11.700  13.511  0.2787 -0.1644  0.0692
15568W        W35102  12.851  17.184   1.241  0.0266  0.1150 -0.1771
15569W        W35103   2.129   7.605   1.780 -0.0796 -0.0739 -0.1948
15570W        W35104  13.005  13.267  12.482 -0.1498  0.4066  0.2301
15571W        W35105  10.713   0.680  13.303  0.1203 -0.0888 -0.0429
15572W        W35106  13.112   0.240  12.612  0.2387 -0.3299 -0.0760
15573W        W35107  19.520  19.297   2.903 -0.0964 -0.1041  0.1321
15574W        W35108   2.232  16.151  12.272  0.3793  0.0761 -0.1152
15575W        W35109  16.016  16.072   1.865 -0.2132 -0.1394 -0.2011
15576W        W35110   6.406  16.644   0.246 -0.0734  0.0545  0.0942
15577W        W35111   9.255   6.213   1.815  0.0067  0.0191 -0.3173
15578W        W35112   8.828   6.291   3.737 -0.1839 -0.3233 -0.0359
15579W        W35113  12.589   0.867   1.192  0.3737  0.2401  0.1532
15580W        W35114   7.098  17.378  14.084  0.2920  0.0178  0.1801
15581W        W35115  12.926  15.269   0.208 -0.0547  0.0394 -0.0618
15582W        W35116   4.092  13.184   4.161 -0.0432  0.0532  0.1347
15583W        W35117   4.315  12.925  12.485 -0.0670 -0.3099  0.0054
15584W        W35118   1.483   5.803   4.470 -0.0166 -0.0871 -0.0760
15585W        W35119   6.256  14.493  12.441  0.1080 -0.2297 -0.1177
15586W        W35120   3.958   0.098   3.909  0.1628 -0.0003 -0.1779
15587W        W35121  10.078   8.487  12.127  0.0253  0.2910  0.0340
15588W        W35122   3.561   3.660   0.100 -0.1407  0.0952  0.0414
15589W        W35123   9.314  17.142  12.534 -0.2778 -0.0643  0.0625
15590W        W35124   2.026   5.752   2.252 -0.0125 -0.1966  0.2070
15591W        W35125   7.776  16.663   0.690  0.2179 -0.0491 -0.1428
15592W        W35126   8.857  17.157   0.475  0.1158  0.1556 -0.4374
15593W        W35127  17.460   9.458  13.281 -0.1137  0.3656 -0.1869
15594W        W35128   3.085  14.725  11.851  0.1435 -0.2089  0.0035
15595W        W35129   6.421  18.088  13.288 -0.6698  0.3796  0.2957
15596W        W35130   0.189  19.413   3.336  0.1294 -0.3441  0.0859
15597W        W35131   6.389  17.637   2.496 -0.0064  0.1817  0.0768
15598W        W35132  15.125  11.398  13.322 -0.0168 -0.3101 -0.2787
15599W        W35133  17.038   8.939  10.574  0.1469  0.4357  0.0065
15600W        W35134   0.988   9.911   1.853 -0.0468  0.0356 -0.1635
15601W        W35135  18.540   1.511  11.316 -0.0791 -0.1150  0.2951
15602W        W35136   4.251  12.947   0.626 -0.1651  0.0687  0.1204
15603W        W35137   9.562  18.802   1.079 -0.2319  0.2324  0.0717
15604W        W35138   3.375   7.021  10.763 -0.0230  0.1619 -0.0831
15605W        W35139   2.005   4.623  13.192  0.0206  0.2129 -0.1232
15606W        W35140   8.665  16.047  11.312  0.1730 -0.2594 -0.2605
15607W        W35141  10.776  17.802   1.814  0.1430 -0.1349  0.2087
15608W        W35142   8.167  19.273  12.591 -0.3397 -0.2829 -0.3189
15609W        W35143   5.330   9.277  12.939  0.0906 -0.1767 -0.0235
15610W        W35144   8.953  10.468   2.806 -0.2038 -0.1351  0.1952
15611W        W35145  16.341  14.329  11.398 -0.0577  0.1259  0.1074
15612W        W35146  16.003  18.718  13.888 -0.0847 -0.0095  0.1154
15613W        W35147   6.570  19.064  13.389 -0.0770  0.1586  0.0057
15614W        W35148   0.072   1.488   3.444  0.0712 -0.3752 -0.1320
15615W        W35149  17.218  17.950   1.552 -0.0406 -0.0109 -0.3573
15616W        W35150   3.037   1.129  12.343  0.2352  0.0463 -0.0157
15617W        W35151  16.321   9.944   1.608  0.1950  0.0889 -0.2534
15618W        W35152   8.711  17.991  10.375 -0.1447 -0.4190 -0.0959
15619W        W35153   6.588   4.402   0.325  0.0568 -0.1691  0.3308
15620W        W35154   5.519  15.200   3.927 -0.1805  0.1665  0.0961
15621W        W35155   1.474  16.211  12.415  0.0348 -0.0973 -0.0473
15622W        W35156  16.378   8.661  12.615  0.1099 -0.0389  0.0303
15623W        W35157  11.492  17.590   1.065 -0.0071 -0.1190  0.2252
15624W        W35158  14.379   4.628   1.034 -0.2776 -0.0768 -0.2619
15625W        W35159  12.201  16.205  13.411 -0.1865  0.1794  0.1390
15626W        W35160  17.885   7.923  12.126 -0.4060  0.2483  0.1359
15627W        W35161  12.811   7.497  13.518 -0.1718  0.0531 -0.0229
15628W        W35162   0.454   1.569  11.116  0.1753 -0.1534 -0.1688
15629W        W35163  17.743   1.072   3.018  0.3652  0.0270  0.0856
15630W        W35164   1.962   0.293  13.620  0.1763  0.1184 -0.0780
15631W        W35165   0.336   8.107  10.459  0.1277 -0.0930 -0.3164
15632W        W35166   1.578   7.546  11.696 -0.2819 -0.3744  0.1687
15633W        W35167   3.528   8.780   0.310 -0.1654  0.0054  0.0259
15634W        W35168   4.568  14.942   2.229 -0.0457  0.1327 -0.1217
15635W        W35169  10.439   4.312   1.013 -0.0165 -0.0097 -0.0067
15636W        W35170  14.893  12.624   1.235 -0.1061 -0.1760  0.1654
15637W        W35171   0.702  15.937  12.236  0.1792  0.1499  0.0878
15638W        W35172   2.051  13.488   3.025  0.0687  0.1649 -0.2511
15639W        W35173  17.992  18.612   1.749  0.0637  0.1480 -0.0822
15640W        W35174  19.361  15.335   1.310  0.1466  0.0860 -0.0069
15641W        W35175  11.551  14.850   4.216 -0.0524  0.0015  0.0140
15642W        W35176   8.551  14.990   1.871  0.0759  0.0571  0.0995
15643W        W35177   9.296  17.834  10.732 -0.1151 -0.1198  0.2277
15644W        W35178  11.489  18.608  13.963  0.2455  0.2398 -0.3216
15645W        W35179  13.939   2.124   2.125 -0.0725 -0.1104  0.1264
15646W        W35180   2.570  15.522   1.790  0.0009 -0.2326  0.1738
15647W        W35181   6.871  16.320   0.311  0.0381 -0.0073  0.2656
15648W        W35182   0.254  12.815   3.468  0.0002 -0.1406 -0.4966
15649W        W35183  10.987   2.579   0.155 -0.0716 -0.3254  0.3850
15650W        W35184  15.917   1.939   2.235 -0.1979  0.1195  0.2393
15651W        W35185  15.651  10.391   1.335 -0.2648  0.0387  0.2876
15652W        W35186  10.932   6.282   3.282 -0.0608  0.0530  0.3826
15653W        W35187  17.616   2.860  10.893 -0.3549 -0.0107  0.0115
15654W        W35188  13.456  15.389   0.977  0.1066 -0.0864 -0.3893
15655W        W35189   1.693  19.204  13.840 -0.0250 -0.2439 -0.1805
15656W        W35190   9.331  11.451  14.023  0.1253 -0.2225 -0.2139
15657W        W35191  14.682   5.115  10.473 -0.0350 -0.1507  0.1122
15658W        W35192  17.215  10.139   3.358  0.3733  0.1569  0.0385
15659W        W35193   9.197  15.475   0.821 -0.0622  0.0397 -0.0988
15660W        W35194   2.879   4.604   1.271 -0.3326 -0.0379 -0.0768
15661W        W35195  15.434   8.457   3.879 -0.1650  0.2727  0.0554
15662W        W35196  18.359   5.519  14.107  0.3817  0.0971  0.0651
15663W        W35197   3.732   7.533   1.957 -0.2792 -0.2307 -0.0597
15664W        W35198  15.240   9.403  10.095 -0.3679 -0.1203  0.0558
15665W        W35199   0.375   4.460   3.487 -0.1294  0.3724  0.1126
15666W        W35200  18.637   6.227  13.420 -0.3162 -0.0926  0.0730
15667W        W35201  17.661  15.557   9.944  0.2916  0.0686  0.2185
15668W        W35202   5.136  10.231   0.004  0.2057  0.1902  0.2860
15669W        W35203  18.815  11.957   0.194  0.0786  0.0585 -0.1042
15670W        W35204  14.161   0.126  11.857 -0.2667  0.0947  0.0277
15671W        W35205   5.219  11.167  13.581  0.0041  0.0821  0.0246
15672W        W35206  15.286  13.162   2.528 -0.1817  0.6185 -0.1775
15673W        W35207  18.646   8.445   2.608 -0.2613 -0.3680  0.0808
15674W        W35208  16.348   3.381  12.274 -0.0638  0.1253 -0.1152
15675W        W35209   6.649   9.532  13.661 -0.2199  0.0861  0.3904
15676W        W35210   5.929  17.394  13.374  0.1120 -0.1614  0.5496
15677W        W35211  12.086  18.043   2.897  0.0397  0.3498 -0.0040
15678W        W35212   3.550   2.436  12.408  0.3181 -0.3301  0.2271
15679W        W35213   7.973  18.159   2.234 -0.2139 -0.0993 -0.0647
15680W        W35214   7.226   2.019  11.761  0.1170 -0.1705  0.0281
15681W        W35215   9.758   1.820   1.601  0.1133  0.0450  0.1031
15682W        W35216   5.784   4.027  11.085  0.1078 -0.0579 -0.1992
15683W        W35217   5.512  14.957   9.531 -0.2621  0.1990 -0.2694
15684W        W35218  10.723   5.301  11.229  0.0889  0.2003 -0.0776
15685W        W35219   3.235   9.087  14.086 -0.2825 -0.0035 -0.0121
15686W        W35220   8.649   8.407   2.637  0.1168  0.1205  0.0161
15687W        W35221  11.538  18.174  12.627 -0.0866 -0.0838 -0.0698
15688W        W35222   4.469   1.202   1.712  0.1234  0.0933  0.0765
15689W        W35223   3.865  14.672   4.326  0.2045 -0.3393 -0.0849
15690W        W35224  11.998   1.480  10.140 -0.1711  0.2415 -0.0398
15691W        W35225  10.544   3.390   0.433  0.2690 -0.2028  0.0664
15692W        W35226   5.544  13.766   1.634  0.0019 -0.2975 -0.0531
15693W        W35227   5.535  17.973   0.263  0.1810 -0.0925 -0.0773
15694W        W35228   7.077   2.769   3.531  0.0327  0.2321 -0.2510
15695W        W35229   8.271   6.145  12.231 -0.0752  0.1830 -0.0771
15696W        W35230   4.198  17.654   3.677  0.0664  0.3377  0.3034
15697W        W35231   0.096  11.348  12.748  0.3157 -0.1041  0.1816
15698W        W35232   6.538   0.064  13.061 -0.1698  0.1819 -0.0467
15699W        W35233   3.312   1.378  13.434  0.0170  0.1304  0.3582
15700W        W35234   6.337   8.223   1.298 -0.0748  0.2043  0.0870
15701W        W35235  19.319   6.376   2.565  0.0350  0.2241  0.1333
15702W        W35236  13.159  13.769  13.726 -0.0492 -0.2239  0.3742
15703W        W35237   3.880  11.248  12.294 -0.0622 -0.0988 -0.3243
15704W        W35238   7.740  11.273  11.133  0.0816 -0.1388  0.0385
15705W        W35239  12.820  13.497   4.425  0.2944  0.2844 -0.1465
15706W        W35240  17.718   1.243  12.343  0.0540  0.3773  0.1449
15707W        W35241  19.098   8.318   2.836 -0.1645 -0.0176  0.1157
15708W        W35242  11.875   8.642  13.237  0.2347  0.1989  0.0425
15709W        W35243   1.875  17.506   3.662 -0.3305 -0.2005  0.2881
15710W        W35244  19.476   5.064  11.732 -0.2162 -0.2500 -0.0804
15711W        W35245   3.726   0.478   1.763 -0.1745 -0.2728 -0.2222
15712W        W35246  18.321   8.673  10.842  0.0328  0.3971 -0.3304
15713W        W35247  15.318   6.006   0.984  0.0191  0.1492  0.1951
15714W        W35248  10.443   9.503   4.210  0.1423  0.2004 -0.1163
15715W        W35249  15.933  10.865   4.009 -0.2300 -0.1791 -0.2595
15716W        W35250   2.371   5.870   0.196 -0.0775  0.0945  0.1619
15717W        W35251  16.684   1.978  10.589 -0.0517 -0.0699 -0.1951
15718W        W35252   2.331  10.173   4.728 -0.1141  0.0556 -0.3080
15719W        W35253   8.785   0.834  10.339 -0.0146 -0.2546  0.2403
15720W        W35254  11.010  17.796  11.763 -0.1464 -0.0038 -0.2094
15721W        W35255   1.359  15.068  12.898 -0.2273 -0.1123 -0.3717
15722W        W35256   7.460   1.091   3.222  0.5018 -0.0485  0.2488
15723W        W35257  14.876  16.741  12.632  0.0031  0.0216  0.1249
15724W        W35258  11.750  16.070  10.208 -0.0810 -0.1317 -0.0990
15725W        W35259   1.798   9.146   4.536  0.2913  0.2815  0.1699
15726W        W35260  15.843   6.789   4.227 -0.2135  0.0894  0.2373
15727W        W35261   9.423  15.975  12.212  0.1114 -0.0659 -0.4319
15728W        W35262  14.254   1.890   2.689 -0.1982 -0.0887 -0.0981
15729W        W35263   2.747   5.363   2.206  0.1481  0.1978 -0.0240
15730W        W35264   5.218  16.923  12.465 -0.1721  0.0700  0.0702
15731W        W35265  12.318   6.040   4.997  0.1541 -0.0443 -0.1455
15732W        W35266  13.147   3.428   3.158  0.0128  0.1561 -0.2264
15733W        W35267   2.300  14.207  11.023 -0.3544  0.1785 -0.2148
15734W        W35268  16.377   0.748  11.817 -0.2341  0.0490  0.1739
15735W        W35269  18.132  11.701  11.268  0.0738 -0.1962 -0.1408
15736W        W35270   4.975  11.506   3.233  0.3340 -0.1821 -0.0957
15737W        W35271   9.486   0.332  10.383 -0.0057  0.2640 -0.3575
15738W        W35272  13.502  13.027  13.742 -0.6086 -0.0841 -0.0410
15739W        W35273   0.220   5.582  12.970 -0.0909 -0.0910 -0.1040
15740W        W35274  10.249   6.628   1.382 -0.1190 -0.2294  0.2629
15741W        W35275   5.943   5.764   0.559 -0.0793  0.0862 -0.0997
15742W        W35276   8.193   3.634  10.576  0.1222  0.0570 -0.0518
15743W        W35277   8.069  11.904  14.045 -0.1039 -0.3316  0.0237
15744W        W35278  18.285  12.955   0.523  0.0926  0.1414  0.0100
15745W        W35279  10.940   5.833   2.623  0.0302 -0.2346  0.0257
15746W        W35280  18.924   1.574  12.113  0.3716 -0.5101 -0.3047
15747W        W35281  13.789  13.380   2.002  0.0724  0.0629 -0.4669
15748W        W35282   2.376   4.980   3.371 -0.1605 -0.1356 -0.1766
15749W        W35283  11.882  14.067  11.589 -0.0821 -0.1426  0.0276
15750W        W35284  14.608   4.502  12.095 -0.0000 -0.1803  0.2998
15751W        W35285   0.020  18.369  11.679 -0.1643 -0.1166  0.1272
15752W        W35286   7.074  19.007  13.376 -0.1399 -0.1102 -0.2191
15753W        W35287   1.535   4.882  12.019 -0.0052 -0.1169 -0.2182
15754W        W35288   2.832  18.698   0.077  0.0774 -0.5058 -0.2882
15755W        W35289   5.458   0.732   9.525  0.1271 -0.1106  0.1890
15756W        W35290   0.009  14.209   4.414  0.2593  0.0552  0.2071
15757W        W35291  13.969  12.224   3.620 -0.2890  0.2384  0.2359
15758W        W35292  12.999  18.555  11.555 -0.1833 -0.1724  0.2626
15759W        W35293  13.448  11.203   2.552 -0.1970 -0.0526  0.0733
15760W        W35294   0.595  16.101  10.903 -0.0072  0.2380 -0.0335
15761W        W35295   7.058  14.831  12.027  0.0388  0.3655  0.0554
15762W        W35296   6.244   8.362  14.075  0.1781  0.0975 -0.0188
15763W        W35297  13.365   6.437  12.224  0.1050  0.0319  0.1330
15764W        W35298  16.941   1.755  13.207 -0.0317 -0.1479 -0.0174
15765W        W35299   6.730  17.746   2.967 -0.2560  0.0485  0.2371
15766W        W35300  15.626   8.426   2.835 -0.0169 -0.0570 -0.2815
15767W        W35301   3.872   3.001   9.812  0.0838 -0.2558 -0.2661
15768W        W35302   5.982   9.574  13.499  0.3012  0.2746 -0.6600
15769W        W35303   0.781   1.802   1.482 -0.1209  0.0211 -0.0689
15770W        W35304  18.578   9.433   1.025  0.0328 -0.0318  0.0807
15771W        W35305   5.959  17.651   3.748 -0.2766  0.2112 -0.0871
15772W        W35306  15.196  15.622   2.402 -0.0159 -0.3321  0.1131
15773W        W35307  16.228  10.957  11.454 -0.0996 -0.1393 -0.0002
15774W        W35308   0.137   6.210   0.948 -0.1284 -0.3080 -0.3142
15775W        W35309  14.659  13.769   2.913  0.1443 -0.2897 -0.1298
15776W        W35310   0.788   7.372  12.902 -0.2112 -0.0290  0.1349
15777W        W35311  11.076   3.466  11.211  0.2328  0.1471  0.1746
15778W        W35312   9.432   7.781   1.531 -0.1013  0.2882 -0.1381
15779W        W35313  16.503   4.574   9.396 -0.1792 -0.2353  0.0963
15780W        W35314   8.984   0.834  13.245 -0.0564 -0.2663  0.0891
15781W        W35315  18.555   9.236  11.979 -0.0550 -0.0684 -0.0864
15782W        W35316  16.057  15.174   3.482 -0.0660  0.0808 -0.0748
15783W        W35317   9.053  10.459  12.937 -0.0565 -0.0181  0.0307
15784W        W35318   8.907   6.118  11.214 -0.2053  0.0063 -0.0388
15785W        W35319   2.973   1.759  10.424  0.0667 -0.0253  0.0142
15786W        W35320  16.997  17.365  12.878  0.1395 -0.1035  0.2388
15787W        W35321  14.723   8.908  12.434 -0.2286  0.1344 -0.0245
15788W        W35322   5.828  16.784  13.129 -0.1600 -0.3969  0.2940
15789W        W35323  16.603  12.510  10.831  0.1877 -0.1047 -0.0718
15790W        W35324   9.582   1.007   3.770 -0.2630  0.2075 -0.1808
15791W        W35325   6.236   2.575   3.146  0.0987  0.1166 -0.4181
15792W        W35326   7.468   0.891   2.344  0.1322  0.0812 -0.2844
15793W        W35327  12.857   5.173  10.855  0.0490 -0.1775  0.0889
15794W        W35328  13.868   4.237   2.386  0.2313 -0.2341 -0.1243
15795W        W35329   7.148  10.726  11.898 -0.0153 -0.5504 -0.0675
15796W        W35330  14.741  13.561   0.897 -0.2097  0.0132  0.0052
15797W        W35331  15.747  15.631  13.827 -0.0858  0.0097  0.2619
15798W        W35332   0.667   4.549   0.876  0.1750 -0.0523  0.0460
15799W        W35333   6.756   4.781  13.260  0.1835 -0.0421  0.0242
15800W        W35334   2.143  17.298  12.310  0.2155  0.1206  0.2641
15801W        W35335   9.534   2.920  14.118 -0.4903 -0.2368  0.0887
15802W        W35336  18.392   9.017   0.297 -0.0200 -0.1627 -0.0363
15803W        W35337  16.513  17.907  11.551 -0.2867 -0.0525  0.1174
15804W        W35338  16.179  12.517   1.433 -0.1548  0.1368 -0.1340
15805W        W35339   2.946  13.990   0.006  0.0441  0.3172  0.0049
15806W        W35340  16.392   4.189   2.491 -0.1318 -0.3375 -0.1415
15807W        W35341   7.219  19.293  13.725 -0.0657 -0.1042 -0.1468
15808W        W35342  11.514   3.912   1.950 -0.0580  0.0437 -0.2045
15809W        W35343   9.384   4.515   0.971  0.1284  0.0534  0.0099
15810W        W35344   4.431   9.302   3.797 -0.2941  0.2486 -0.3996
15811W        W35345   3.601   1.113   2.899  0.1082 -0.2635  0.3587
15812W        W35346   5.703  10.541   3.908 -0.1151  0.0132  0.1272
15813W        W35347   0.102   2.836   3.188  0.2644 -0.0650 -0.1715
15814W        W35348  16.865   7.091  13.236 -0.1724 -0.4143 -0.2350
15815W        W35349   0.580   3.100  13.658  0.1550  0.0834 -0.0227
15816W        W35350  11.430  10.212  14.196  0.1340 -0.2490 -0.1099
15817W        W35351   6.840   4.252   1.179  0.2240 -0.2708  0.0240
15818W        W35352  14.401   3.399   1.601  0.0801  0.2472 -0.0390
15819W        W35353  13.745   2.786  11.577 -0.4167 -0.0219  0.3114
15820W        W35354  11.559   1.297  14.007  0.0618  0.0077  0.0474
15821W        W35355  15.505  13.256   0.286 -0.2116 -0.3056 -0.1509
15822W        W35356   2.361   7.673   2.230 -0.0746  0.0715  0.1077
15823W        W35357  13.774   1.466  10.627 -0.0827 -0.0116  0.3097
15824W        W35358   9.197  16.753   3.390 -0.3194  0.0367  0.3035
15825W        W35359  12.374   4.111   0.752 -0.0865  0.4707 -0.0702
15826W        W35360   2.853   4.312   3.143  0.0481  0.2120 -0.1209
15827W        W35361  16.802  16.569   3.111 -0.0820  0.0492 -0.0859
15828W        W35362   9.845   0.359  13.401  0.0754  0.0093  0.3462
15829W        W35363  13.788   1.004  11.874 -0.3732 -0.0306  0.1243
15830W        W35364   0.303   2.936   1.909  0.1064  0.0513 -0.0116
15831W        W35365  10.412  11.493   1.350 -0.0715  0.0770  0.3722
15832W        W35366  15.351   3.009   3.380 -0.1393  0.5842 -0.0874
15833W        W35367   8.367   9.821   1.872  0.0014  0.2597 -0.1879
15834W        W35368  12.874  18.178  12.426  0.0222  0.3734 -0.0439
15835W        W35369  15.355  15.663   0.277 -0.2081  0.1542  0.1643
15836W        W35370  11.929   3.873  11.818  0.0395  0.1894 -0.0909
15837W        W35371   0.550  19.340   3.020 -0.2147  0.3469  0.0164
15838W        W35372   3.082   0.146   3.732  0.1392 -0.3860  0.1071
15839W        W35373   5.295  18.313   3.395  0.1616  0.1404 -0.1618
15840W        W35374  12.007  12.611  11.949  0.2272  0.1748 -0.5257
15841W        W35375  11.932   4.845   3.447  0.2116  0.3051 -0.2885
15842W        W35376  15.171  15.571  11.025 -0.0205 -0.2435  0.0365
15843W        W35377   1.079  13.016   0.532 -0.0678  0.1224  0.1080
15844W        W35378   1.414  15.027  13.471  0.0923  0.3313  0.1706
15845W        W35379  12.285   4.192   1.225  0.2289 -0.2495  0.1938
15846W        W35380  11.997  19.348   2.039 -0.2592  0.1653  0.1402
15847W        W35381   2.614  16.610  10.404  0.0532 -0.1845  0.1821
15848W        W35382   4.803   4.482  12.825  0.2067 -0.1545 -0.1382
15849W        W35383  13.504  10.054   0.346  0.1778 -0.2155  0.0016
15850W        W35384  13.510   9.896   1.219 -0.2006  0.2212  0.0886
15851W        W35385   7.418   8.944  12.780 -0.0253 -0.3104 -0.0869
15852W        W35386  15.430   3.920   4.669 -0.0567  0.2535 -0.0024
15853W        W35387  12.853   9.147  12.635  0.0682  0.2145  0.2810
15854W        W35388  15.549  17.425   1.936 -0.0406 -0.0835 -0.0489
15855W        W35389   3.792   4.361   4.458  0.1586  0.0622 -0.2152
15856W        W35390   5.344  19.380   2.366  0.0732  0.0544 -0.0671
15857W        W35391   4.966  18.659   3.537 -0.0524  0.1337 -0.1978
15858W        W35392   3.892  15.335   5.566 -0.2331  0.2575 -0.2573
15859W        W35393   2.482   0.267   1.861 -0.3121 -0.1316 -0.3062
15860W        W35394   3.889   9.805  14.107 -0.2469 -0.1785 -0.2088
15861W        W35395   4.241  15.438  11.627 -0.3691 -0.2657 -0.2151
15862W        W35396   8.486   3.752  10.178  0.0748  0.2074  0.0467
15863W        W35397  16.176   9.066   1.318 -0.1032 -0.1958  0.0603
15864W        W35398   7.729  11.830  12.198 -0.0255 -0.0450  0.1547
15865W        W35399   2.026   7.753  11.424 -0.1647  0.0225 -0.0096
15866W        W35400  14.537   3.307   3.873  0.0320  0.2596 -0.1664
15867W        W35401   7.280   0.691   3.999 -0.0383  0.0078  0.3283
15868W        W35402  12.674   1.446   1.822  0.0544 -0.1819  0.1028
15869W        W35403   5.532  15.493  12.831 -0.3163  0.0090  0.0378
15870W        W35404   6.075   4.901  11.689  0.2894  0.2285 -0.0280
15871W        W35405  16.772  17.903  10.661 -0.2870 -0.3254  0.1164
15872W        W35406  11.338   1.849   2.260 -0.0299  0.4621 -0.0008
15873W        W35407   5.557   5.409   9.785  0.0763  0.2187  0.3686
15874W        W35408   2.418   9.636  12.825 -0.0443  0.1301 -0.1130
15875W        W35409   8.070   4.677  13.990 -0.0110 -0.2803 -0.0863
15876W        W35410  13.296  17.061  11.664  0.4248 -0.0099 -0.0183
15877W        W35411  17.560  13.216   2.966 -0.3260  0.0986 -0.2337
15878W        W35412   7.962  18.779   0.133 -0.0919  0.1010  0.1984
15879W        W35413   4.931  15.288   3.981 -0.2007 -0.2850 -0.3792
15880W        W35414   2.031   4.851  12.214 -0.2868  0.2013  0.3626
15881W        W35415  19.238  16.017   1.992  0.0644  0.0689 -0.3724
15882W        W35416  16.274   3.448  11.710 -0.3893 -0.0924 -0.1395
15883W        W35417  16.418   9.359  10.597 -0.1857  0.2171 -0.0804
15884W        W35418   5.996  12.395   3.731  0.2191 -0.0248 -0.3568
15885W        W35419   1.708   9.473  12.584  0.5001 -0.0138 -0.0187
15886W        W35420   5.681  17.904  10.394 -0.0601 -0.0103 -0.2050
15887W        W35421   7.024  14.052  13.115  0.4062 -0.1340 -0.2642
15888W        W35422  14.713  12.771  12.584  0.3313 -0.0786  0.0513
15889W        W35423   6.478   1.384   0.114  0.0379 -0.2266  0.0539
15890W        W35424  11.630  13.518   2.641 -0.2181 -0.2853  0.2327
15891W        W35425   0.705   5.522  14.060  0.2949 -0.1551  0.0085
15892W        W35426   3.521  18.548  13.804  0.3140 -0.1196  0.1491
15893W        W35427   6.660  11.265   3.623  0.2736 -0.2400 -0.3530
15894W        W35428   7.914  15.440  10.856 -0.5333 -0.1012  0.3066
15895W        W35429  11.843   8.568   3.960 -0.1385  0.2840 -0.2613
15896W        W35430   2.881  12.846   9.639  0.0918 -0.3834 -0.0014
15897W        W35431   8.906  12.412   0.812 -0.4098  0.0810  0.0863
15898W        W35432  10.938   8.942  11.632  0.1629  0.3040  0.6000
15899W        W35433   5.158   1.785   0.011  0.0396 -0.2874  0.0117
15900W        W35434  11.348  14.349   1.175 -0.2416  0.0207 -0.2297
15901W        W35435   5.466   3.817  13.791 -0.2775  0.0465  0.3232
15902W        W35436  11.662   3.015  10.347 -0.1352 -0.2482  0.0751
15903W        W35437  18.650  11.081  11.693  0.0971  0.2920  0.1747
15904W        W35438  16.787  11.975   3.440  0.0046 -0.3306 -0.3667
15905W        W35439  14.277  14.223  10.437 -0.0512 -0.0999  0.1874
15906W        W35440   6.405  16.299  11.286 -0.3323 -0.0408  0.0729
15907W        W35441   9.854  10.817  13.774  0.1320  0.1777  0.0541
15908W        W35442   7.975   0.883  14.241  0.3251  0.1726  0.3705
15909W        W35443  11.208   6.569   3.021 -0.2077 -0.1962  0.1138
15910W        W35444  10.087   1.508   0.934  0.0963  0.1068 -0.4624
15911W        W35445   5.973  11.506   4.343 -0.4366 -0.0656 -0.0167
15912W        W35446  15.460   3.973  12.134 -0.1106  0.1944 -0.2208
15913W        W35447   2.016  16.389  10.590  0.1455  0.1569 -0.1214
15914W        W35448   7.389  11.289   3.963 -0.1658  0.2978 -0.2872
15915W        W35449   2.748   0.912  13.898 -0.1587  0.1743  0.0563
15916W        W35450  13.118   5.862  13.677 -0.0003  0.2115 -0.0687
15917W        W35451  15.949  11.278   0.847 -0.0785  0.1046 -0.0569
15918W        W35452  14.024  16.691   1.790 -0.1049 -0.0112  0.0214
15919W        W35453  15.745   1.862   1.746 -0.1330 -0.1049  0.0440
15920W        W35454  11.641   6.529  11.121 -0.3591  0.0944  0.0507
15921W        W35455   7.881   1.616   1.185 -0.2192 -0.1497 -0.2633
15922W        W35456   4.881   6.079   2.188 -0.1738  0.2267 -0.0801
15923W        W35457  16.875   5.519  13.442 -0.1909 -0.2879 -0.1407
15924W        W35458   2.711  10.825   0.896  0.4362 -0.0416  0.2259
15925W        W35459  14.353  13.051   1.908  0.3716 -0.1491 -0.0674
15926W        W35460   3.155  11.248   2.490  0.0987 -0.2654 -0.1203
15927W        W35461   7.297  15.814  10.125 -0.0724  0.1575  0.1687
15928W        W35462   7.793  15.173  13.979  0.1786 -0.1497  0.1113
15929W        W35463  14.000   8.399   3.684 -0.0295  0.1662  0.0252
15930W        W35464   2.786   1.334   3.037  0.2454  0.3069 -0.2274
15931W        W35465  13.588   3.842  13.128 -0.2182  0.1158 -0.0299
15932W        W35466   0.904   1.650  11.267 -0.2909  0.0331  0.0687
15933W        W35467  12.955   9.809   1.328  0.4052  0.1416 -0.3051
15934W        W35468  15.495  17.884  13.390 -0.0436  0.0172 -0.2138
15935W        W35469  17.680   9.971   9.209  0.0376 -0.0125  0.0443
15936W        W35470  10.336   5.611   0.922 -0.3321  0.3838 -0.0693
15937W        W35471  14.444   8.828  11.596  0.0139  0.2642 -0.3937
15938W        W35472  12.624  16.704   1.193  0.1479  0.0668  0.0566
15939W        W35473  18.555  17.050   1.609  0.1668 -0.1753  0.0486
15940W        W35474  18.615  17.009  11.289 -0.1763 -0.1887 -0.3015
15941W        W35475   7.378   6.314  10.622  0.0977  0.0778  0.2358
15942W        W35476   1.734   7.119   2.628  0.3001  0.0957 -0.3322
15943W        W35477   4.507   4.772  14.225 -0.0707 -0.0021 -0.0487
15944W        W35478  13.013   4.936  12.798 -0.0985 -0.0171  0.4014
15945W        W35479   2.135  13.621  12.324 -0.3051 -0.1420 -0.2140
15946W        W35480  17.180  15.301   1.081 -0.1116 -0.1719 -0.2643
15947W        W35481   1.544   6.933  12.444 -0.1948  0.2336  0.0224
15948W        W35482   5.182   6.915  11.324  0.0439 -0.1492  0.4917
15949W        W35483  14.418   9.379  10.772  0.3580 -0.1428 -0.0109
15950W        W35484  15.946  11.183  11.751  0.0145  0.1149 -0.2053
15951W        W35485   4.089   4.030   3.484  0.1839  0.1075  0.1684
15952W        W35486   4.146   7.700   1.665  0.1152  0.0635 -0.0237
15953W        W35487   6.697  18.068   2.226 -0.1374  0.0090 -0.0287
15954W        W35488   6.859  13.318   0.448 -0.0491 -0.2231 -0.2981
15955W        W35489   5.914   2.540   0.007 -0.0706 -0.2141 -0.2338
15956W        W35490  12.773  13.693   0.893 -0.0891 -0.0172 -0.0665
15957W        W35491   6.893   2.701   1.537 -0.0028 -0.0447  0.0539
15958W        W35492  18.224   4.685  13.547  0.2450  0.2673 -0.4281
15959W        W35493  10.217  10.765   2.192 -0.4058 -0.0748  0.0448
15960W        W35494  16.077  18.330  11.522 -0.2666  0.0914 -0.0378
15961W        W35495  14.797  10.510   4.170 -0.2904  0.0382 -0.1409
15962W        W35496  12.760  15.211  10.265  0.2169 -0.2002  0.3032
15963W        W35497   6.307   0.795  12.576  0.0846  0.0883 -0.0198
15964W        W35498   4.912  12.746  12.579 -0.1424 -0.0705  0.1251
15965W        W35499   9.544  12.845  11.765  0.2185  0.3496  0.0153
15966W        W35500   4.896  13.121  13.296  0.0171  0.0739  0.0349
15967W        W35501   9.459   3.799  11.113 -0.1489 -0.0418 -0.1184
15968W        W35502   0.790   8.902   2.808 -0.1190 -0.1969 -0.2860
15969W        W35503   2.934   6.547   1.305  0.1833  0.3553 -0.0389
15970W        W35504   0.732  13.912  12.163  0.2096  0.1644 -0.1419
15971W        W35505  12.959  18.356  10.225  0.2533 -0.1296 -0.0725
15972W        W35506  18.755  12.857   0.718  0.2365 -0.1274  0.2634
15973W        W35507  14.420  15.482   1.357  0.4208  0.0581 -0.1442
15974W        W35508   3.293  16.307   1.360 -0.0662  0.0082  0.0321
15975W        W35509  17.886  15.682  10.876 -0.0563  0.0319  0.2320
15976W        W35510  16.265   5.530  12.803  0.0312  0.4085 -0.3584
15977W        W35511  11.364  10.298   1.480  0.0480  0.1950 -0.1175
15978W        W35512  13.790  13.650  11.842 -0.1963  0.0076  0.5300
15979W        W35513   8.566   2.952  13.522 -0.1356  0.0630 -0.1388
15980W        W35514  15.321   0.138  13.413 -0.1649  0.2035  0.3062
15981W        W35515  19.076   4.377  10.717  0.0888  0.1798 -0.2878
15982W        W35516   6.876  12.483  13.223  0.0638  0.0650  0.0591
15983W        W35517   0.240   6.395   0.033 -0.0257  0.3325 -0.0570
15984W        W35518   6.282  14.571  14.128 -0.2903 -0.0863  0.1928
15985W        W35519  10.794   3.210   1.525  0.2124  0.0847 -0.2411
15986W        W35520   5.774  12.775  12.285  0.0259 -0.2678  0.0742
15987W        W35521   3.366   1.027  11.149 -0.0143  0.3576  0.1092
15988W        W35522  16.587   9.622  12.854 -0.4977  0.3465 -0.2081
15989W        W35523  18.764  11.254  10.584  0.1956 -0.0444 -0.2544
15990W        W35524   2.071  16.790   0.576 -0.2167 -0.0099 -0.1141
15991W        W35525   1.825  15.594  10.459  0.2051  0.2176  0.2064
15992W        W35526   9.541   5.655  13.922 -0.0134 -0.1380  0.2118
15993W        W35527  12.898  18.203   1.510 -0.2554 -0.3007 -0.0979
15994W        W35528  15.135   1.944   0.644  0.2789  0.0668 -0.1349
15995W        W35529   6.440  11.605   2.534  0.1625  0.0655 -0.1023
15996W        W35530   3.816   6.621   0.935 -0.0641 -0.1203 -0.0264
15997W        W35531  10.719  15.054   2.803  0.0466 -0.2371  0.1468
15998W        W35532   4.939  12.119  12.954  0.0483  0.2548 -0.1435
15999W        W35533  11.692   8.676  10.427 -0.1711  0.3128 -0.1803
16000W        W35534  17.272   2.665   4.544  0.0480 -0.1678 -0.1744
16001W        W35535  16.156   1.443   3.036 -0.0862 -0.0556  0.1697
16002W        W35536   9.214  13.180  12.023 -0.0323 -0.0386 -0.2646
16003W        W35537  17.345   3.484   2.871 -0.0848 -0.1700  0.2051
16004W        W35538   2.724   6.321   0.886  0.0587  0.1382 -0.1631
16005W        W35539  18.023  18.703  10.542  0.0564 -0.0145 -0.0137
16006W        W35540   9.028   0.760   2.246  0.1269  0.0753 -0.0074
16007W        W35541   1.422   7.711  12.220  0.1198 -0.1406 -0.0073
16008W        W35542  17.754   1.950   0.508 -0.0904  0.0453  0.0830
16009W        W35543  19.157  16.677   0.619  0.1356 -0.1905  0.0762
16010W        W35544   9.908   5.529   3.624  0.0051  0.1294  0.0389
16011W        W35545   1.985  17.423  10.331 -0.1322  0.0109  0.1239
16012W        W35546  14.506   0.093   2.776 -0.1801  0.1369  0.1094
16013W        W35547  16.695  17.398  10.745 -0.0198  0.3451  0.4514
16014W        W35548  15.280  16.058  13.617  0.1152  0.1980 -0.2131
16015W        W35549  15.365  13.473  13.540  0.3250  0.3318 -0.2237
16016W        W35550  14.789   6.254   1.904  0.1949 -0.1957 -0.0286
16017W        W35551  14.423  13.004   3.502  0.0464  0.4167  0.1662
16018W        W35552   3.559   2.119   2.770  0.0621  0.1800  0.0865
16019W        W35553   2.115  17.917   1.408 -0.0251  0.0610 -0.3846
16020W        W35554  10.677  16.400   3.144 -0.1530 -0.1623  0.1416
16021W        W35555  11.879   6.882   0.301 -0.1688  0.2451  0.3062
16022W        W35556  16.700   5.819  13.803 -0.0919 -0.1898  0.4296
16023W        W35557  10.752  15.074   1.519  0.1708  0.0165 -0.0307
16024W        W35558   9.770  16.789   2.148 -0.1700 -0.4313 -0.1077
16025W        W35559   3.131   8.660   4.094  0.1103  0.1080  0.0210
16026W        W35560  10.098  18.698   3.097 -0.0407  0.1508 -0.0687
16027W        W35561  16.440   7.946  11.214 -0.3609 -0.2396 -0.3480
16028W        W35562  12.543   2.222  10.701  0.2612  0.1400  0.2149
16029W        W35563  15.449   2.245  12.862  0.0028  0.2628 -0.0230
16030W        W35564  17.523   1.684  12.107  0.0320 -0.0284 -0.1836
16031W        W35565   0.498  12.065  11.755 -0.0929 -0.3930  0.0779
16032W        W35566   0.387   5.720   0.774 -0.3999 -0.2035 -0.1274
16033W        W35567   5.312  18.368  13.772  0.1532  0.0880 -0.2457
16034W        W35568  18.158   6.573  12.316  0.2124  0.0562  0.0259
16035W        W35569   2.865  11.842   0.297  0.1464 -0.0937 -0.1513
16036W        W35570   9.901   0.918   3.380 -0.1072  0.1072  0.2015
16037W        W35571   8.794   6.684   1.339  0.0547  0.1745  0.0146
16038W        W35572  15.278  11.605   2.006  0.3003 -0.2725  0.1548
16039W        W35573   1.047  16.688   1.332 -0.0200 -0.0462 -0.0929
16040W        W35574  12.049   0.546   3.655  0.0097  0.1966  0.1922
16041W        W35575   5.235   2.785  11.317  0.1974 -0.0004  0.0492
16042W        W35576   7.491  11.461   3.437  0.1254 -0.0240  0.3548
16043W        W35577  10.370   1.925   2.252 -0.1577 -0.0184 -0.1544
16044W        W35578   3.608   6.772   2.640 -0.1164 -0.0307 -0.0619
16045W        W35579   9.881   1.977  11.075 -0.3515  0.2030  0.2029
16046W        W35580   6.623  16.842   3.854  0.0534  0.0638 -0.0355
16047W        W35581  10.141  18.600   0.769  0.1119 -0.0634 -0.0453
16048W        W35582   4.302   6.944  12.994 -0.2460  0.0337 -0.2538
16049W        W35583   5.796  16.054   1.644  0.1501  0.6375 -0.0045
16050W        W35584   0.484   1.311  12.038 -0.0040 -0.4168 -0.2352
16051W        W35585   7.074   5.356  10.480 -0.0510 -0.3025 -0.1744
16052W        W35586  15.569   4.312  13.692  0.1610  0.0637 -0.0552
16053W        W35587  15.185   3.897   4.172 -0.0192  0.0607 -0.0038
16054W        W35588  11.548  13.790  12.456 -0.0811  0.0158  0.0095
16055W        W35589   4.399   3.487   2.718 -0.0162  0.0411  0.2084
16056W        W35590   1.133   8.242   0.721  0.2849 -0.1241 -0.1228
16057W        W35591  11.615  17.287  12.402  0.2112  0.0131  0.2450
16058W        W35592  19.019  16.100  11.715 -0.3640 -0.2574 -0.3240
16059W        W35593  10.269  10.600  12.273 -0.1897  0.0099 -0.0119
16060W        W35594   2.476  18.250  11.680 -0.2630 -0.1283  0.0525
16061W        W35595   1.934   1.412   3.475  0.0985 -0.2839  0.2368
16062W        W35596   4.557   1.275  13.037  0.2643  0.3026 -0.0440
16063W        W35597  18.212  10.169   0.589 -0.0362  0.0473  0.0595
16064W        W35598   4.948   2.106   0.322  0.6390 -0.2334 -0.3216
16065W        W35599  11.491  16.998   2.347 -0.1353 -0.0856  0.3300
16066W        W35600   7.534  18.655   0.435 -0.2462  0.3083  0.1568
16067W        W35601  11.878   1.009  12.610 -0.0352 -0.0744 -0.0202
16068W        W35602   3.090   4.297  12.156 -0.0462  0.0154 -0.2457
16069W        W35603  17.320   9.371  13.746  0.0955  0.0202 -0.0165
16070W        W35604  18.970   2.143   1.637  0.2906  0.2497  0.0627
16071W        W35605  14.875  14.958  11.209  0.1709  0.0649  0.2251
16072W        W35606  15.883  13.314   1.710  0.0523 -0.4447 -0.1380
16073W        W35607   9.709   1.569  12.468 -0.1182 -0.4160  0.4096
16074W        W35608  10.150  18.207  11.766 -0.2868  0.1332  0.0063
16075W        W35609  12.859  17.172  12.582 -0.1271  0.0675 -0.1973
16076W        W35610  15.557  17.683  11.074 -0.0522 -0.1129 -0.2075
16077W        W35611   7.097   1.121   2.053  0.1229 -0.1825  0.0156
16078W        W35612   5.609  13.671  12.539  0.3578  0.0567 -0.0748
16079W        W35613   3.709   2.276   1.280 -0.0093 -0.1457 -0.0153
16080W        W35614  13.296   3.291   0.522  0.4703 -0.0164  0.1170
16081W        W35615   2.256  13.845   0.682  0.2202 -0.1050  0.1306
16082W        W35616   3.594   6.698  12.225  0.5511  0.0942 -0.1597
16083W        W35617  19.291  16.315  12.447  0.3067  0.0025  0.1105
16084W        W35618   9.848  14.170   0.382  0.3051 -0.1012  0.0103
16085W        W35619   3.853  15.206  13.265  0.0451 -0.0973  0.2138
16086W        W35620  18.757   6.676  12.460 -0.2659  0.1446  0.4854
16087W        W35621   5.117  14.937   1.453  0.2195  0.1067  0.3133
16088W        W35622   0.535  14.302  13.644 -0.2932 -0.0411  0.0099
16089W        W35623  18.303  11.106   3.757  0.3382  0.0885 -0.3075
16090W        W35624   8.028  10.325   5.092  0.4149  0.0894 -0.2367
16091W        W35625   1.435  10.295  11.919  0.1736  0.0083  0.1142
16092W        W35626  11.286   3.133  10.647 -0.2081 -0.2021 -0.1895
16093W        W35627   2.350  11.092   2.821 -0.1747  0.2132  0.2351
16094W        W35628   3.346  16.557  13.830  0.0720  0.3843  0.2075
16095W        W35629  17.790  12.663   2.352  0.1074  0.0418  0.3770
16096W        W35630   5.678   5.783   1.040 -0.1226  0.0695  0.1020
16097W        W35631   9.360   5.913  13.389 -0.1443 -0.0280  0.0424
16098W        W35632  18.923   2.205   1.152  0.0802  0.1854  0.0095
16099W        W35633   9.389  17.251   3.894 -0.1934 -0.2216  0.1501
16100W        W35634  13.862   3.736   3.644 -0.4601  0.0026 -0.4804
16101W        W35635  11.047  14.990   1.891 -0.2843  0.1186 -0.1348
16102W        W35636  18.582   6.011  11.306  0.0468  0.1818 -0.0154
16103W        W35637   7.400  11.826  13.064  0.0360  0.4109 -0.0242
16104W        W35638   0.941   0.220   3.104  0.1234 -0.1528  0.1434
16105W        W35639   3.294   9.706  13.182 -0.4118  0.0491  0.1914
16106W        W35640   3.131  14.887   0.219 -0.0593 -0.2232  0.1994
16107W        W35641   8.760   1.166   1.681  0.2611 -0.2388  0.4432
16108W        W35642   0.849   0.758  10.818 -0.1431  0.2447  0.1123
16109W        W35643  13.365  11.810   3.514 -0.3220  0.1031  0.0979
16110W        W35644  10.796  16.759   1.704  0.3229 -0.2548 -0.2310
16111W        W35645  11.969   5.532   3.855  0.0937 -0.1623  0.0335
16112W        W35646  15.392   2.912  11.218  0.2094 -0.2550 -0.0459
16113W        W35647  15.799   4.449  11.031 -0.0579  0.0560  0.0480
16114W        W35648  19.189  11.768  14.203 -0.3099  0.1915  0.0968
16115W        W35649  16.767   0.036   1.917 -0.0930  0.1257 -0.2276
16116W        W35650  14.998   1.754  11.928  0.3450 -0.2742  0.0694
16117W        W35651  17.249  16.590  10.796  0.1771 -0.1088  0.1735
16118W        W35652  19.313  14.375   2.192  0.2384  0.0692  0.0809
16119W        W35653   8.018  10.671   0.911  0.3743  0.3246 -0.0108
16120W        W35654   9.068   6.030   4.062 -0.3294  0.1302  0.1032
16121W        W35655  15.198  17.951   1.095  0.0438  0.0436  0.1092
16122W        W35656   9.760   6.150  14.054  0.0263  0.3664 -0.0575
16123W        W35657   5.585  17.905  13.580 -0.1800  0.1897 -0.0949
16124W        W35658  11.172   7.776  14.090  0.0826 -0.2750  0.1876
16125W        W35659  12.282  18.765  13.119  0.1330 -0.0079  0.2441
16126W        W35660  16.922   8.318   3.142  0.0744  0.0721 -0.0076
16127W        W35661   3.065  16.374   0.841 -0.0375  0.3668  0.1660
16128W        W35662   3.374   2.469  11.384  0.0803 -0.2775 -0.0431
16129W        W35663   5.689   4.368   2.139  0.2517  0.2103 -0.0068
16130W        W35664  16.249   7.860   3.808  0.1079 -0.1273 -0.4475
16131W        W35665   8.759   2.674   1.366 -0.1451 -0.0184 -0.3196
16132W        W35666  11.577   8.023   1.950 -0.0117 -0.0205  0.0826
16133W        W35667  13.169  17.632   9.302 -0.1189  0.0590 -0.1559
16134W        W35668   7.112   8.202   2.023 -0.0283  0.0896  0.1860
16135W        W35669   8.274  10.615  10.769  0.1025  0.0340 -0.6403
16136W        W35670   4.412   1.388   1.253 -0.2749  0.0199  0.1205
16137W        W35671  15.486   0.730  10.954  0.0444  0.0504 -0.1688
16138W        W35672  12.374  15.094   9.237  0.0478 -0.1940  0.2845
16139W        W35673   9.542   6.326   0.150  0.1991  0.0805  0.3755
16140W        W35674   4.518   4.903  11.467 -0.1136 -0.0464 -0.2432
16141W        W35675   1.451   5.004  13.794  0.1383 -0.0032  0.3321
16142W        W35676  14.007   1.370  14.035 -0.1182  0.0914  0.2437
16143W        W35677   5.280   6.888  13.414  0.0372 -0.2630  0.3194
16144W        W35678   9.701   1.369   3.412 -0.1875  0.2527  0.0183
16145W        W35679  15.601   7.698  13.891 -0.2887 -0.4006 -0.0597
16146W        W35680  19.283  14.430  10.837 -0.0339  0.0438  0.0788
16147W        W35681   0.429  15.947   4.871 -0.2152  0.1168 -0.3105
16148W        W35682   0.447   1.469   0.787  0.2147  0.1899 -0.0861
16149W        W35683   9.934   3.669   3.128  0.0158  0.0077  0.4434
16150W        W35684  16.234   3.763   0.721  0.2434  0.0731 -0.1455
16151W        W35685  14.574   8.988   1.938  0.2492 -0.0415 -0.2431
16152W        W35686  11.474  18.832   2.468 -0.1530 -0.0333 -0.1403
16153W        W35687  17.017  13.267  13.281 -0.4006 -0.0566  0.3113
16154W        W35688  18.990  15.123  11.515 -0.0213 -0.1635 -0.2168
16155W        W35689  19.448  14.840   0.472 -0.1451  0.1970  0.2294
16156W        W35690   9.754  15.613  10.948 -0.2283  0.4087  0.1344
16157W        W35691  14.212  13.557   1.937 -0.3200 -0.0014 -0.0490
16158W        W35692  13.052  14.116  14.088  0.0500  0.0800  0.1608
16159W        W35693  15.470   4.141   0.397  0.1226 -0.0632 -0.3032
16160W        W35694   8.402   6.372   2.082  0.0312 -0.1701 -0.3542
16161W        W35695  17.014   0.786  11.669  0.1267  0.0183 -0.1174
16162W        W35696   6.613   3.790  11.254  0.1427 -0.0554  0.1615
16163W        W35697  14.932  12.320   2.947 -0.3291 -0.1889 -0.1404
16164W        W35698  10.197  16.180   1.414 -0.0092  0.1970 -0.0517
16165W        W35699   9.043   6.220  12.110 -0.1105 -0.1846 -0.0893
16166W        W35700  12.579   7.007  11.208 -0.2561 -0.0365 -0.0813
16167W        W35701   4.088  18.173   1.075 -0.3298  0.0600  0.1003
16168W        W35702   9.292  11.643  12.164  0.0980 -0.4405  0.2336
16169W        W35703  11.010   7.228   2.313  0.0355 -0.0077  0.1656
16170W        W35704   2.558   2.563  10.766 -0.0348 -0.0296  0.0366
16171W        W35705   9.609  12.269  11.938  0.0155 -0.0524  0.1102
16172W        W35706   5.689  18.928   4.166 -0.0730 -0.0603  0.1524
16173W        W35707  15.323   0.519   1.999  0.2462  0.0996  0.3058
16174W        W35708   4.316  13.383   3.767 -0.3289 -0.2243 -0.0425
16175W        W35709   9.342  14.013  12.731  0.0272  0.0372  0.2733
16176W        W35710  14.341  10.740  11.017 -0.1650 -0.4367  0.1693
16177W        W35711  13.602  11.890  10.659 -0.0987  0.1244 -0.1425
16178W        W35712  10.377   3.936   0.158  0.0919 -0.1122  0.0861
16179W        W35713  15.008  16.119   2.506 -0.1469 -0.2731 -0.0802
16180W        W35714   7.502   0.134   2.761 -0.0116  0.0608  0.1423
16181W        W35715  13.444  16.229  11.419 -0.1492  0.2376 -0.2282
16182W        W35716   2.425  11.263   1.715  0.0221 -0.0414 -0.1141
16183W        W35717  10.922   4.968   0.611 -0.0145  0.1681  0.1706
16184W        W35718  17.108   0.348  12.941  0.1587 -0.3029 -0.1411
16185W        W35719  12.011  16.966  10.520  0.0864 -0.1936  0.2313
16186W        W35720  15.461  17.360  12.980 -0.2479  0.1532 -0.1275
16187W        W35721   2.768  17.258  11.456 -0.1428 -0.1081 -0.0756
16188W        W35722  10.427   6.903   3.477  0.0800 -0.0100  0.1413
16189W        W35723   7.552  19.117  12.975  0.2569  0.1986 -0.0619
16190W        W35724   4.991  10.406   3.659  0.1300  0.1234 -0.1637
16191W        W35725  18.925   1.912  10.165  0.0652 -0.2562  0.0191
16192W        W35726   1.565   8.895   4.149 -0.1580  0.0705  0.0423
16193W        W35727   7.911  17.831  13.608  0.1084  0.1838  0.0905
16194W        W35728  14.366   3.523   5.250  0.0899 -0.1903 -0.1806
16195W        W35729   0.097  13.790   0.610  0.1520 -0.4511  0.0080
16196W        W35730  15.550  15.102   0.239 -0.0728  0.1774  0.1514
16197W        W35731  12.245   2.854   3.215 -0.0599  0.1570 -0.1314
16198W        W35732   0.788   2.325   4.852  0.0254  0.1016 -0.0268
16199W        W35733  13.066   9.158   1.836 -0.3119 -0.0240 -0.1013
16200W        W35734   1.403   2.318  11.261 -0.0718  0.2596 -0.0637
16201W        W35735   1.803   3.451  12.029  0.0116 -0.2543 -0.0722
16202W        W35736   9.333  12.657  13.522 -0.5276  0.0106 -0.1424
16203W        W35737  14.814   1.073   0.948  0.3023  0.0230 -0.0359
16204W        W35738   0.703   8.254  13.965  0.0010 -0.0681 -0.1130
16205W        W35739   3.721   0.583  13.881  0.0451 -0.2606  0.0756
16206W        W35740  19.263  16.693   3.505  0.1201 -0.2408  0.2095
16207W        W35741  14.041  12.905  12.952 -0.0257 -0.2473  0.0881
16208W        W35742   0.366   8.676   4.386 -0.2251 -0.1095 -0.0391
16209W        W35743  16.863  16.617   0.411 -0.0135  0.2262  0.1658
16210W        W35744   2.571  18.188  13.687  0.4881  0.1691  0.0658
16211W        W35745   8.774   9.135  11.572 -0.2477 -0.3280  0.0132
16212W        W35746  12.509   6.777  12.667 -0.0862  0.1379  0.1948
16213W        W35747   3.683   9.896   4.597 -0.1401 -0.0611 -0.0818
16214W        W35748   7.592   0.948  11.875  0.2075  0.1414  0.1619
16215W        W35749   1.070  17.370  10.520  0.0455 -0.1746 -0.2451
16216W        W35750   9.145   0.673  12.535  0.0749  0.0061 -0.0313
16217W        W35751  14.342   6.461  10.809 -0.3462  0.1899 -0.0645
16218W        W35752   2.528  16.725   0.709 -0.0776 -0.0385  0.0760
16219W        W35753  17.881   2.920   1.717 -0.0831 -0.1099  0.1151
16220W        W35754  13.573  18.115  13.588  0.2641 -0.0828 -0.2155
16221W        W35755  15.585   9.074  14.044 -0.1063  0.0456  0.0905
16222W        W35756  18.769   1.900   2.853  0.0922  0.1620  0.2349
16223W        W35757  17.392  11.114   1.521  0.0782  0.0759  0.1260
16224W        W35758   9.300  11.716   4.031  0.6276  0.1374 -0.2674
16225W        W35759   2.974   0.387   0.385  0.0008 -0.0347 -0.2703
16226W        W35760   8.472   2.186  12.339 -0.2469  0.1171 -0.5648
16227W        W35761  14.103   2.743   0.664  0.1587  0.4197  0.1632
16228W        W35762  17.129   3.720  11.640 -0.3093  0.0634 -0.0147
16229W        W35763   1.819  18.146   2.026 -0.0327 -0.0075  0.0724
16230W        W35764  15.805   2.221  13.368  0.0510  0.4724  0.1399
16231W        W35765  18.876   2.707  12.411 -0.1716  0.1242 -0.0523
16232W        W35766   2.885  11.291   0.300  0.0514  0.5383 -0.4941
16233W        W35767  13.533  16.027  10.997  0.1035 -0.0234 -0.0254
16234W        W35768   8.613   0.546  12.383 -0.5199  0.6030 -0.3806
16235W        W35769  13.777  11.785   1.229 -0.1593  0.1802  0.1535
16236W        W35770   8.709   5.188  11.292  0.0259  0.5633  0.1159
16237W        W35771  10.326  13.133   2.026  0.0862  0.5307 -0.1278
16238W        W35772  12.879  14.400  12.826  0.0555 -0.0426  0.0183
16239W        W35773   5.385  14.298  11.956  0.0594 -0.3287  0.0173
16240W        W35774  10.183  17.324   4.111  0.0442 -0.1351 -0.1036
16241W        W35775   8.064   1.418   2.878 -0.0387 -0.0858 -0.3070
16242W        W35776  16.611   1.876   0.062 -0.3108 -0.0236 -0.0054
16243W        W35777   6.111   9.509  10.209  0.0270 -0.1367 -0.3480
16244W        W35778   7.019   6.546  12.403  0.0063 -0.2960 -0.4023
16245W        W35779  15.493   6.273  12.845  0.1867 -0.1691 -0.1946
16246W        W35780  15.446  10.073  13.470 -0.0184  0.1948 -0.1240
16247W        W35781   0.169  15.704  13.329  0.0960  0.0253 -0.1719
16248W        W35782   0.558   0.957   2.164 -0.2641  0.0225  0.1144
16249W        W35783  17.673   5.941   1.182 -0.0812  0.3527  0.0682
16250W        W35784  14.278   5.025   1.341  0.2592 -0.0714  0.1657
16251W        W35785   6.513  19.306   1.357 -0.3068 -0.1838 -0.0912
16252W        W35786   5.611  17.635   2.914 -0.0614  0.0740  0.0019
16253W        W35787  18.922   0.576  11.616  0.0691 -0.2143 -0.0205
16254W        W35788   6.600   2.625   3.548  0.3267  0.0375 -0.1592
16255W        W35789   0.328  12.227  12.764 -0.2564  0.2745  0.1910
16256W        W35790  13.364   6.733  14.069  0.2078 -0.0113 -0.0483
16257W        W35791   3.487   8.625   4.431 -0.0651 -0.2933  0.1225
16258W        W35792   1.996  18.067   3.313 -0.1204 -0.0933  0.0467
16259W        W35793  11.399  14.266  12.504 -0.5288  0.1506 -0.0872
16260W        W35794   2.077   6.066  10.489  0.0254  0.0187  0.3327
16261W        W35795   5.867   3.625   4.989 -0.4633 -0.1416  0.3798
16262W        W35796  17.554  10.840   0.035 -0.0735  0.0507 -0.1376
16263W        W35797  12.918   9.014   1.178 -0.2027  0.4144 -0.1421
16264W        W35798   1.732  15.770   3.280 -0.0572  0.3198 -0.1114
16265W        W35799   0.622   5.732   3.202  0.0868  0.1557 -0.0756
16266W        W35800  19.203   9.583  10.230 -0.5909 -0.0545 -0.0746
16267W        W35801   7.261   4.608  10.972 -0.0344  0.0557  0.0112
16268W        W35802   8.851  14.741   3.287  0.0993 -0.0198  0.1777
16269W        W35803  13.454   0.445   0.661  0.0020 -0.1696  0.2794
16270W        W35804   1.875   9.951   0.756  0.0702  0.0712  0.0254
16271W        W35805  13.203  14.229   0.164  0.1590 -0.2397 -0.0892
16272W        W35806   7.721   4.964  13.326  0.0546 -0.0933  0.1988
16273W        W35807   0.642   5.497  10.949  0.3304  0.0744  0.1715
16274W        W35808  17.731  17.750  10.671 -0.0568  0.2392 -0.0470
16275W        W35809  13.506  10.437  13.304  0.1267  0.1793  0.3005
16276W        W35810   2.514   8.354   2.722 -0.4844  0.1528 -0.3252
16277W        W35811  16.074  16.658   0.110 -0.0838  0.0194 -0.1794
16278W        W35812  11.925  18.769  13.750 -0.1182 -0.1560  0.2255
16279W        W35813   6.443   4.612   1.772 -0.1384 -0.1431  0.0301
16280W        W35814  12.229  10.077   4.764 -0.2768  0.3776 -0.0165
16281W        W35815   5.138   9.252   5.186 -0.0526  0.1416 -0.2017
16282W        W35816   1.316  16.919  13.487  0.1367 -0.0396  0.1127
16283W        W35817   8.165   5.026  12.025  0.2098 -0.0622  0.0033
16284W        W35818  13.382   6.992   2.624  0.1054 -0.1728 -0.0664
16285W        W35819  14.125   5.995   1.726 -0.1188 -0.0055 -0.0905
16286W        W35820   0.221   1.210  13.805 -0.1240 -0.1757 -0.1150
16287W        W35821  17.208   5.933  12.430  0.2455 -0.1440  0.1039
16288W        W35822   9.104  10.014  14.211  0.3232  0.1821  0.1551
16289W        W35823   6.572   1.981   2.100 -0.1753 -0.0872 -0.3815
16290W        W35824  13.208  18.154   4.535  0.0837 -0.2625 -0.3277
16291W        W35825   4.381  11.989   0.602 -0.1696 -0.1627 -0.1708
16292W        W35826   1.478   0.119  10.510 -0.0768 -0.1079  0.1624
16293W        W35827  19.228  17.102  13.824  0.2082  0.1269  0.3406
16294W        W35828  15.298  12.388  11.915 -0.2927 -0.0819 -0.1750
16295W        W35829  17.343  17.496  11.069 -0.0336 -0.1872  0.0846
16296W        W35830  15.119  11.170  14.176 -0.2413  0.0507 -0.1063
16297W        W35831   8.016   7.066   0.948 -0.1437  0.2598  0.2277
16298W        W35832   0.813  19.517  11.679 -0.4460  0.0684  0.1845
16299W        W35833   2.222  19.382  11.516  0.0469  0.0233 -0.0406
16300W        W35834   6.214  17.033  11.609  0.1159 -0.0743 -0.2466
16301W        W35835  12.295   9.483  12.859 -0.0727  0.0086 -0.0233
16302W        W35836   6.795   3.456   0.655 -0.0272  0.4114  0.2975
16303W        W35837   7.597   9.333   1.488 -0.2537  0.0194 -0.0153
16304W        W35838   6.122   4.395   0.367 -0.3632  0.0419  0.1331
16305W        W35839  11.768  16.082  13.075 -0.1172  0.0796 -0.1159
16306W        W35840  18.561  17.718   3.831  0.1524 -0.2951  0.2533
16307W        W35841   7.832  10.771  14.180 -0.4520  0.1301  0.2193
16308W        W35842  13.810   0.478  11.856  0.0261  0.1511  0.1247
16309W        W35843  18.497   2.851  11.471  0.1048 -0.3408  0.1764
16310W        W35844   0.900   4.897  11.519  0.0337 -0.5253 -0.0869
16311W        W35845   2.772  16.821  13.728  0.5972  0.0593  0.1085
16312W        W35846   1.301   7.078  13.815  0.2888 -0.1917  0.2343
16313W        W35847  13.007   4.611  14.273 -0.0780 -0.0355  0.1030
16314W        W35848   4.921  10.888   0.738 -0.1308 -0.2288  0.2515
16315W        W35849   9.178  11.196  13.548  0.3475  0.2495  0.0113
16316W        W35850   3.481  14.770  11.505 -0.4074  0.0256 -0.1838
16317W        W35851  17.501   2.454   3.303 -0.0851 -0.0898 -0.0419
16318W        W35852  17.968   7.886  11.273 -0.1569 -0.1010  0.1204
16319W        W35853  16.306  11.687   0.167  0.2552 -0.4761 -0.1897
16320W        W35854   8.423  14.080   1.788 -0.0981  0.1987  0.3226
16321W        W35855  19.089  16.947   0.117  0.0810  0.0746  0.1787
16322W        W35856  18.434   2.620   0.486  0.2077  0.2015 -0.1581
16323W        W35857   3.827   1.292  11.022  0.0505 -0.0575  0.3005
16324W        W35858  12.542   5.775   4.533  0.0399 -0.1626 -0.2056
16325W        W35859  18.475  12.401  13.280  0.0199  0.2517  0.1950
16326W        W35860  10.789   0.809  10.779  0.1081  0.1161  0.1733
16327W        W35861   6.056  10.393  12.735 -0.2699 -0.0001  0.1405
16328W        W35862   3.144  13.995  12.453  0.2647 -0.3118 -0.0632
16329W        W35863  11.989   4.748  14.190  0.3235 -0.0799 -0.0596
16330W        W35864  17.481   3.231  12.157  0.3600 -0.3774  0.2800
16331W        W35865   9.147   7.429   9.519 -0.3087 -0.0765 -0.0785
16332W        W35866   2.956  10.963   2.058  0.2461  0.1699 -0.2215
16333W        W35867  12.058   6.792  13.479 -0.1941  0.2123  0.1226
16334W        W35868  15.777   2.907   3.784 -0.1916  0.0229 -0.3210
16335W        W35869  13.627  18.179   1.036  0.2028  0.2925  0.4588
16336W        W35870   2.658   1.897  11.559 -0.0182  0.0607 -0.1779
16337W        W35871  17.918  15.936  14.079  0.1320  0.0798 -0.1028
16338W        W35872  13.917   5.133  10.862 -0.1246 -0.1880  0.1086
16339W        W35873   6.432  19.252  11.883  0.0728 -0.1907 -0.0484
16340W        W35874   9.850  11.160   3.649  0.0207  0.0578 -0.0097
16341W        W35875  12.235  18.148   3.406 -0.0722 -0.1722  0.4269
16342W        W35876  12.731   7.617   1.096  0.2013 -0.0294 -0.1951
16343W        W35877   0.768   8.183   4.315 -0.0680 -0.2840 -0.0964
16344W        W35878   9.502  18.906   2.391  0.1742 -0.0767 -0.0024
16345W        W35879   1.118   9.439   1.084 -0.0615 -0.0155  0.0582
16346W        W35880  16.462  10.175  11.962 -0.2580 -0.0822  0.0828
16347W        W35881   0.948  12.867   4.232 -0.0432  0.0126  0.1251
16348W        W35882  10.476   2.646  13.645  0.2540  0.0575  0.0346
16349W        W35883   5.481  11.398   4.479  0.2432 -0.2346  0.3198
16350W        W35884  17.710   6.115  11.055 -0.0221 -0.1388  0.2552
16351W        W35885   8.531  14.901  12.051  0.0658 -0.2203 -0.1925
16352W        W35886   1.949  11.050  14.365 -0.2243 -0.2165 -0.1688
16353W        W35887  11.429  16.483   1.307 -0.3887 -0.0284 -0.1997
16354W        W35888   6.673  13.137  11.901 -0.0580  0.0193 -0.0431
16355W        W35889  10.141  15.499   0.597 -0.0438  0.3249  0.0155
16356W        W35890   1.578  12.428  11.027 -0.2059  0.2643  0.1705
16357W        W35891   2.134  11.372  12.956 -0.0400  0.1574  0.1818
16358W        W35892  14.271  16.071   0.065 -0.0225 -0.4239  0.3844
16359W        W35893   6.751  15.123  10.212 -0.1773  0.1261 -0.0056
16360W        W35894   9.558   7.145   0.853 -0.0282  0.3615 -0.1869
16361W        W35895   0.022   0.252   2.140  0.1523 -0.2439  0.1649
16362W        W35896   4.766   8.546  12.502  0.0631  0.0870 -0.1866
16363W        W35897  14.138   2.695  13.193  0.2908 -0.1461  0.2138
16364W        W35898   4.758   6.749   2.563 -0.1316 -0.2798  0.0277
16365W        W35899  14.204   6.513  12.147 -0.0683  0.2109 -0.0344
16366W        W35900  17.627  16.630   1.060  0.1586 -0.1703 -0.0808
16367W        W35901   7.761   9.155  13.200 -0.3151 -0.0464 -0.2078
16368W        W35902   3.858  17.797  12.755 -0.0641 -0.0499 -0.1458
16369W        W35903  18.703  19.439  13.199  0.3129  0.1402 -0.3806
16370W        W35904  13.240   3.692   2.692  0.3091  0.2166  0.0183
16371W        W35905   3.061   8.212   2.393  0.1115  0.0738 -0.0117
16372W        W35906   4.083  17.017   1.704  0.1880  0.4387 -0.3043
16373W        W35907  10.201  18.032   0.585  0.2739  0.4744  0.1255
16374W        W35908  16.715   0.474   1.251 -0.2872 -0.3158  0.1294
16375W        W35909  19.087   6.261  12.447 -0.1880  0.0704  0.0537
16376W        W35910  17.020  16.174  12.390  0.0334  0.0777 -0.1397
16377W        W35911  12.662  19.274   2.758 -0.1541 -0.1041  0.0138
16378W        W35912  11.618   4.875   2.358  0.1337 -0.1869  0.3025
16379W        W35913  16.317   3.075   2.979 -0.1480  0.2654 -0.2948
16380W        W35914  13.243  15.343  10.776 -0.2312 -0.1041  0.0491
16381W        W35915   4.655  12.107   1.479  0.0401 -0.1631  0.1363
16382W        W35916  10.386   1.544  10.062  0.1926  0.0994  0.1598
16383W        W35917   0.539  10.098  12.228  0.2193 -0.2224  0.1939
16384W        W35918   7.072  19.449   0.437  0.1271  0.0516 -0.1551
16385W        W35919  17.745   6.299   3.667 -0.3771  0.0837 -0.2331
16386W        W35920   7.572   7.036   1.162  0.1439  0.0483 -0.1050
16387W        W35921   7.435   9.013  14.070 -0.0164  0.2522  0.1971
16388W        W35922   3.425   9.203  13.265  0.0239 -0.0385 -0.0367
16389W        W35923  12.546   2.439   1.175 -0.1198 -0.1111 -0.2052
16390W        W35924  19.366  17.710  10.171  0.0280  0.2719 -0.0857
16391W        W35925  11.537  18.410  12.037  0.0109  0.2611 -0.0855
16392W        W35926  18.608   9.641  13.827  0.1962 -0.3657 -0.2739
16393W        W35927   8.393   6.369  12.838  0.0646 -0.0364 -0.3378
16394W        W35928   4.535  10.357   3.238 -0.1510 -0.2443 -0.4024
16395W        W35929  18.256  14.757  10.737  0.0908  0.1707  0.0073
16396W        W35930   2.409   1.022   0.115 -0.1463 -0.3279  0.1041
16397W        W35931   8.795  11.258  12.048  0.0382 -0.1223 -0.1036
16398W        W35932  14.122   5.252   3.080  0.3955  0.2921 -0.0907
16399W        W35933  16.902   1.751   2.565  0.0306  0.3303 -0.0258
16400W        W35934  15.592   1.170   2.479  0.0372  0.1596 -0.0947
16401W        W35935   9.752   6.899  13.624 -0.0818 -0.1131 -0.0834
16402W        W35936   5.471  14.516   0.100 -0.0910 -0.1825 -0.2612
16403W        W35937   4.485   0.050  11.317  0.0189 -0.0753 -0.0579
16404W        W35938  12.868   0.563  11.783  0.1893  0.0740 -0.2166
16405W        W35939  14.938  11.139  12.888 -0.1841  0.1025 -0.1310
16406W        W35940  19.350  17.739  12.961 -0.1785  0.0111 -0.0838
16407W        W35941  11.676   7.874  10.478  0.1443  0.3576 -0.0030
16408W        W35942   2.963   2.136  12.498  0.2674  0.0984 -0.2259
16409W        W35943  11.123  16.583  11.762  0.0979 -0.0716  0.3593
16410W        W35944  16.556  10.305   1.876  0.2364  0.0364  0.2279
16411W        W35945  12.199   4.433  13.148  0.2647 -0.0486  0.2852
16412W        W35946   0.957   3.527  10.978  0.2814  0.0323 -0.1740
16413W        W35947   4.422  18.356  14.117  0.2389 -0.0605 -0.0484
16414W        W35948   9.509   0.678  12.155  0.0258 -0.0071 -0.3980
16415W        W35949   5.084  15.859   1.213  0.0817  0.0205 -0.0714
16416W        W35950  10.063   4.715  13.698 -0.2271 -0.3229 -0.0994
16417W        W35951  14.061   8.425  13.214  0.2428  0.0664 -0.4169
16418W        W35952  10.434   9.130  11.700 -0.1263 -0.4402 -0.0285
16419W        W35953  12.678  19.167   3.294  0.0695  0.1385 -0.1473
16420W        W35954   0.007   9.815  11.493 -0.1194 -0.4366  0.0157
16421W        W35955   0.272   2.196   0.384  0.1714 -0.0846 -0.4338
16422W        W35956   3.949  17.679   2.259  0.1275 -0.0905 -0.0067
16423W        W35957  13.397   3.634  11.029 -0.0098  0.0572 -0.0977
16424W        W35958  12.679   5.242  12.404 -0.0116 -0.1948  0.1559
16425W        W35959   6.007  16.612   1.448  0.1668 -0.2392 -0.0043
16426W        W35960   7.220   9.826  13.794  0.3050  0.0172 -0.1332
16427W        W35961   8.935  10.892  13.224 -0.0434  0.1407 -0.0243
16428W        W35962   3.767   6.194  12.215 -0.1876  0.0643  0.0240
16429W        W35963  16.748  14.970  11.945 -0.1627  0.1242  0.1898
16430W        W35964   2.721   4.508  10.224  0.2003 -0.1208  0.3390
16431W        W35965   2.525  16.458  11.882 -0.0479  0.2987 -0.2263
16432W        W35966   2.506  15.482  11.681 -0.1201  0.0599  0.2462
16433W        W35967  17.861   0.827  11.252 -0.0395  0.0755  0.0293
16434W        W35968  19.188   0.780   2.813 -0.0384  0.2350  0.1418
16435W        W35969   4.364   4.225  12.912 -0.2153  0.0599 -0.2024
16436W        W35970   0.494   3.257  14.133  0.1480  0.2151  0.3351
16437W        W35971   9.541   9.041   5.150 -0.1240  0.1008 -0.1871
16438W        W35972   6.494   3.691   9.909 -0.0938 -0.1481  0.0519
16439W        W35973   2.336   2.253  11.141 -0.1437  0.3229  0.1339
16440W        W35974   8.229   2.098   3.668 -0.0687 -0.0775 -0.3242
16441W        W35975   6.624  13.625  13.216 -0.0523 -0.2959 -0.1331
16442W        W35976   0.367   9.543  11.803  0.1100 -0.0676  0.2137
16443W        W35977   2.510  10.360   4.260  0.0516  0.0669 -0.1656
16444W        W35978  15.714  15.561   2.509  0.0224 -0.1001  0.2191
16445W        W35979   4.901  10.780  13.609 -0.0140 -0.0256  0.0706
16446W        W35980  19.011   8.109  13.155 -0.1151  0.1372  0.1541
16447W        W35981   1.038  15.120  14.216  0.0756 -0.0208  0.0352
16448W        W35982  18.083  11.125   0.184  0.0169  0.2542  0.1596
16449W        W35983  10.713  15.796  11.762 -0.0882 -0.2624 -0.1214
16450W        W35984  16.046  13.932   1.610  0.1801  0.2580  0.1582
16451W        W35985  17.386   5.684   0.918 -0.1255 -0.2724  0.1383
16452W        W35986   2.148  16.334   1.424  0.0076  0.0446 -0.2853
16453W        W35987   1.148  18.478   4.534 -0.2864  0.0624 -0.1062
16454W        W35988   1.667   9.741  10.653  0.0133  0.0187 -0.3201
16455W        W35989   6.719  15.833   0.320  0.0463 -0.1607  0.0598
16456W        W35990   0.817  12.916   3.349 -0.1394 -0.1386 -0.0860
16457W        W35991  17.406  14.262  10.620  0.1622  0.1190 -0.2420
16458W        W35992   4.275  18.473   0.280 -0.1956  0.1137  0.3937
16459W        W35993  12.857   7.677   1.627 -0.0591 -0.2959 -0.1181
16460W        W35994   5.031  17.717  11.224 -0.0247  0.3227 -0.2632
16461W        W35995  10.170  17.808  12.977  0.1258  0.4664  0.1122
16462W        W35996   0.634   0.701  14.087 -0.1221  0.0514  0.2909
16463W        W35997   9.679  17.196   2.469 -0.3062  0.1893  0.0006
16464W        W35998   2.004   6.042  10.964  0.1656 -0.2655  0.0096
16465W        W35999   6.957  15.796  13.687  0.2189  0.2774  0.2028
16466W        W36000   3.583  15.637   4.602  0.0057  0.3042  0.1974
16467W        W36001  13.849   7.000  13.968 -0.1777  0.2539  0.2393
16468W        W36002   7.843   9.145  13.719 -0.1070  0.3295  0.0459
16469W        W36003   0.277   6.126   2.565  0.0705 -0.1201 -0.0753
16470W        W36004  12.670   5.557   1.869  0.1965 -0.1881 -0.1036
16471W        W36005  16.691   4.371   5.220  0.2999 -0.2588  0.0660
16472W        W36006   3.968   3.744   1.989  0.1609  0.1421 -0.2746
16473W        W36007   7.163   1.439  10.041  0.1777 -0.1478 -0.3780
16474W        W36008  11.131   9.946  13.230 -0.4469 -0.1524 -0.2326
16475W        W36009   4.959   5.065   1.353  0.0205  0.2193  0.0244
16476W        W36010  12.530  16.111  11.684  0.1213  0.2424 -0.1083
16477W        W36011   5.495   2.478  13.849 -0.0277  0.1964 -0.2708
16478W        W36012  13.571   3.226  14.348  0.3533  0.1368  0.3541
16479W        W36013  15.067  18.438  13.888  0.2154 -0.2407 -0.2099
16480W        W36014  17.446   0.043  11.036  0.0921 -0.1284  0.0188
16481W        W36015  14.972   4.269   2.893  0.0668  0.2018 -0.0197
16482W        W36016  16.033   7.732  14.155 -0.0161  0.1090  0.0570
16483W        W36017   2.594  10.060   2.966 -0.0794  0.0477 -0.0156
16484W        W36018   8.195   3.139   0.288  0.0838 -0.0553 -0.2002
16485W        W36019   6.675  11.522   1.268  0.0997 -0.4058  0.5147
16486W        W36020  13.144  15.509   1.452  0.0881 -0.0632 -0.4114
16487W        W36021   7.423   7.196  10.376  0.2975  0.1018 -0.0614
16488W        W36022  11.586   0.722   3.453 -0.2037  0.2083  0.2295
16489W        W36023  12.406   7.085  14.221  0.1638 -0.0201  0.0694
16490W        W36024  18.669   1.829  12.443 -0.2337  0.2941 -0.2537
16491W        W36025   1.136  12.203   9.452 -0.1946  0.5286  0.1340
16492W        W36026  18.277   4.184  10.023 -0.2046 -0.2532  0.0452
16493W        W36027   9.663  17.075   9.287 -0.0779 -0.0331 -0.4791
16494W        W36028   5.687   7.274  11.106  0.1273 -0.1177  0.1729
16495W        W36029   8.820   8.455   1.562 -0.0651  0.3244 -0.1707
16496W        W36030  15.813   9.105   0.600 -0.3246  0.0105 -0.1434
16497W        W36031   4.507  12.964  11.659  0.4646 -0.0786 -0.0975
16498W        W36032   5.459   4.329  12.396 -0.2681  0.0110  0.0416
16499W        W36033   2.998  11.031  14.259 -0.1729  0.0262  0.0267
16500W        W36034  10.062  15.659  14.092 -0.1351 -0.1134 -0.2798
16501W        W36035  15.251   5.415  12.909  0.1265  0.0825 -0.0003
16502W        W36036   0.789   3.732  13.269  0.1598 -0.1883  0.0729
16503W        W36037   7.596  11.208   5.307  0.4119 -0.1551  0.1018
16504W        W36038   7.569  15.680  10.508 -0.1030 -0.1274  0.0136
16505W        W36039  17.183  11.185  14.342 -0.0761 -0.2153 -0.0606
16506W        W36040   3.130   6.944   2.626  0.0290  0.0243 -0.1172
16507W        W36041  13.169   1.893  11.834  0.5467  0.1200 -0.4913
16508W        W36042   6.109  19.309  13.065  0.1735 -0.1809 -0.0790
16509W        W36043  17.544   5.276   4.236  0.0054 -0.2762 -0.0230
16510W        W36044  15.205   4.068   1.917  0.1839  0.1287  0.0309
16511W        W36045  13.049  15.426   3.491 -0.0090  0.0372  0.0269
16512W        W36046   6.806   8.995  11.036  0.1975 -0.0796 -0.2102
16513W        W36047   2.178   0.630   1.643 -0.1456 -0.1348 -0.2211
16514W        W36048  19.213   5.583   3.286 -0.3101  0.1157  0.0603
16515W        W36049   6.199   3.997  10.246 -0.1672 -0.1719  0.1704
16516W        W36050  17.774   4.605  12.414  0.2032 -0.0946 -0.0563
16517W        W36051  17.898  16.690   4.166 -0.2114  0.1746 -0.1959
16518W        W36052   0.777  11.476  14.231  0.4019  0.1486  0.3174
16519W        W36053  17.232   6.327  11.937 -0.0605 -0.0056  0.0463
16520W        W36054   2.047  10.185   4.291  0.0924 -0.4132 -0.0090
16521W        W36055   5.754  17.539   0.184 -0.0740  0.0409  0.1456
16522W        W36056   9.321  15.895  10.698 -0.1039  0.0460  0.0372
16523W        W36057   2.900  10.562   4.062  0.1604 -0.0920  0.0364
16524W        W36058  12.113   3.928  11.333 -0.2736 -0.2104 -0.4023
16525W        W36059  12.544  17.150  10.809  0.3430  0.1618  0.2665
16526W        W36060  12.790   3.310   2.777 -0.0702  0.0824  0.1061
16527W        W36061  13.438   5.804   1.996 -0.2032  0.3962  0.0649
16528W        W36062  17.901  11.027   1.711  0.2627  0.0521 -0.0210
16529W        W36063   7.210  12.598   3.154 -0.3908  0.0028 -0.1456
16530W        W36064   7.667   0.693   1.092  0.3826 -0.0199  0.0163
16531W        W36065  18.178  18.127   1.642 -0.2377  0.1168  0.0520
16532W        W36066  12.166   6.076   3.772 -0.0071  0.0321 -0.3499
16533W        W36067  16.281  16.487   3.875 -0.0728 -0.0832  0.1716
16534W        W36068  16.984  11.025  12.778 -0.0640 -0.3787  0.0916
16535W        W36069  12.009  10.946  13.301  0.1528 -0.2559  0.3676
16536W        W36070  12.617  12.241   0.563  0.1174 -0.0308 -0.0413
16537W        W36071   2.584   0.854   3.596  0.1111  0.0468 -0.2546
16538W        W36072   1.521  11.534  11.850 -0.0855 -0.0649 -0.1093
16539W        W36073  19.511   5.265  10.835 -0.0728 -0.2967  0.1240
16540W        W36074  18.869  12.512  12.218  0.0398  0.0350 -0.1461
16541W        W36075  16.753   1.194   3.820 -0.1421  0.0632 -0.1953
16542W        W36076  14.030   9.027   1.941 -0.0453 -0.0569 -0.0063
16543W        W36077  11.366   0.258  12.866  0.0535  0.3670  0.1488
16544W        W36078  10.567   7.925   1.888 -0.2555 -0.1238  0.3082
16545W        W36079  15.941  11.966   3.894 -0.0460  0.2348 -0.0717
16546W        W36080   8.359   0.092   1.186  0.0087 -0.0464 -0.0385
16547W        W36081   3.682  10.395   2.583 -0.1391  0.0957 -0.0232
16548W        W36082   3.180  19.103   1.958 -0.1864  0.0925  0.1651
16549W        W36083  14.066  18.006  13.873 -0.0659 -0.0766  0.1397
16550W        W36084   2.179   6.608   3.183  0.1126  0.0654 -0.2197
16551W        W36085  13.232   8.775   4.697 -0.0861  0.0283 -0.0088
16552W        W36086  18.244  14.472  13.796 -0.2482  0.0662 -0.0744
16553W        W36087   0.119   7.791   1.536 -0.3402  0.1482  0.1581
16554W        W36088   7.102  11.457  13.794  0.0839  0.0306  0.0958
16555W        W36089   0.632  15.388   0.017 -0.0257 -0.0798  0.0959
16556W        W36090   6.921   5.572   3.847 -0.0302  0.5837  0.2198
16557W        W36091  16.516   3.786  13.452  0.2912  0.3580 -0.0134
16558W        W36092   4.083   9.347   3.332 -0.0783 -0.0867 -0.0032
16559W        W36093   3.929  16.623   4.664 -0.0361 -0.1987 -0.2166
16560W        W36094  14.670   7.481  13.889 -0.0732  0.0254  0.0900
16561W        W36095   7.739  11.301   4.395  0.0548 -0.0905  0.1554
16562W        W36096  11.981   4.906   0.567  0.2015  0.0943  0.0040
16563W        W36097   2.893   9.361  11.022 -0.1951 -0.1754  0.1847
16564W        W36098  13.586  14.724  11.410  0.3312  0.0191  0.1658
16565W        W36099  13.614  18.468  13.161 -0.0456 -0.1709  0.2611
16566W        W36100  16.697   1.612  11.731  0.1658  0.2236  0.4418
16567W        W36101  18.270  19.145  12.557 -0.0884  0.0118 -0.0214
16568W        W36102  10.953   0.199   2.909  0.1383  0.2676 -0.0961
16569W        W36103   4.752  10.895   3.917 -0.0019  0.1395 -0.0537
16570W        W36104  13.457  17.597   3.075 -0.0865 -0.1816  0.2353
16571W        W36105  10.785   5.062  11.719  0.1608  0.3578 -0.2943
16572W        W36106  18.785   5.695  10.886 -0.3991 -0.1840  0.0447
16573W        W36107   4.096  15.030  14.010  0.1662  0.2823 -0.1160
16574W        W36108   0.062   8.873   0.180  0.1104  0.0466 -0.2382
16575W        W36109   9.808  14.732   2.892 -0.2268  0.3673  0.1913
16576W        W36110   2.136   9.240  13.377 -0.1116  0.0700  0.0979
16577W        W36111  18.227   0.579  12.143 -0.0480 -0.2654  0.0004
16578W        W36112  16.449  12.991  13.036  0.0461 -0.0120 -0.2279
16579W        W36113  18.044   2.665  11.449  0.0109  0.3524 -0.3411
16580W        W36114  16.464  14.564  11.846  0.0993  0.1595  0.0798
16581W        W36115  11.639   8.313  10.776 -0.0662  0.1819 -0.1791
16582W        W36116  18.057  11.312   3.276  0.0876  0.2390  0.0543
16583W        W36117  14.816  16.187  10.194  0.0009  0.2031  0.3761
16584W        W36118   9.497  15.217  12.744  0.2940  0.1946  0.1012
16585W        W36119  12.368   6.386   1.908 -0.0671 -0.0720 -0.1507
16586W        W36120  17.259  17.526   2.316  0.2313  0.2369 -0.0212
16587W        W36121   3.072  19.005   0.572 -0.0533  0.2833 -0.2192
16588W        W36122   8.422   5.400  11.744  0.1603  0.1404  0.0499
16589W        W36123  10.214  12.613   2.102 -0.2934  0.1638 -0.1364
16590W        W36124   7.523  12.205   2.447  0.0066  0.0104 -0.1318
16591W        W36125  19.487   0.721  10.413  0.2778 -0.2279 -0.1266
16592W        W36126   6.074   4.225   1.757 -0.4825 -0.0300 -0.1466
16593W        W36127  10.175  13.175  13.665  0.1864  0.0623  0.1481
16594W        W36128  11.040  18.469   3.389 -0.2204 -0.0262  0.1436
16595W        W36129   9.165  18.833   3.185 -0.0527  0.2469  0.2841
16596W        W36130   1.162   9.505  10.778 -0.0339  0.1778 -0.0827
16597W        W36131   1.593  13.158  12.583 -0.2703  0.0926  0.0110
16598W        W36132  13.764   5.966  13.401  0.3780  0.0763  0.2283
16599W        W36133  10.850   1.706   2.437 -0.4830  0.2574 -0.2412
16600W        W36134  16.537  17.515  11.881 -0.1209 -0.1347 -0.2104
16601W        W36135  16.116   5.263   1.621 -0.0599  0.2423  0.1363
16602W        W36136   2.402   3.195  11.727  0.1595  0.0612  0.1717
16603W        W36137   5.843  14.286   2.889 -0.0689 -0.2637  0.1829
16604W        W36138   5.322  18.716  13.342  0.1102 -0.0585 -0.1448
16605W        W36139   4.044   0.783   2.765 -0.1238 -0.0793 -0.0272
16606W        W36140  11.116   5.323  12.516  0.0469 -0.2378 -0.2726
16607W        W36141   2.399  16.797   1.528 -0.1115 -0.0013  0.1945
16608W        W36142   6.782  12.743  11.055 -0.0282  0.1451  0.0638
16609W        W36143   9.461   1.943  12.681  0.1161  0.1929 -0.0369
16610W        W36144  18.506  10.618  12.253 -0.4367  0.1139  0.1035
16611W        W36145   9.171   9.317  12.277 -0.0499  0.1179 -0.2285
16612W        W36146  13.181  12.795  13.342  0.2777  0.3298  0.0405
16613W        W36147   9.331  19.133  13.674 -0.0054 -0.0818  0.1742
16614W        W36148  10.186   3.987   1.240 -0.1582  0.0711 -0.1068
16615W        W36149   5.384  11.087   1.107  0.0669  0.2437 -0.0551
16616W        W36150   8.296   0.109   1.991  0.1629  0.1765  0.0002
16617W        W36151  16.216  11.794   4.921 -0.1306  0.0492  0.2069
16618W        W36152   8.043  12.577  10.876 -0.2570 -0.1121  0.0447
16619W        W36153   3.612   0.938   3.474 -0.0351  0.1967  0.0391
16620W        W36154  12.678   9.758  12.034  0.1269 -0.0105  0.1488
16621W        W36155  12.815   7.889  13.153 -0.3216  0.0105 -0.0461
16622W        W36156  13.085   4.730   2.188  0.2145  0.2487  0.2739
16623W        W36157  14.423  12.771  13.794 -0.1183  0.1060 -0.0507
16624W        W36158   7.793  10.781  12.287  0.3585  0.0411  0.0510
16625W        W36159  17.040  15.644  12.532  0.2513 -0.1742  0.0120
16626W        W36160  14.268  13.629  13.580 -0.0654 -0.0642  0.1142
16627W        W36161   1.718  13.527   0.076 -0.1741 -0.2117 -0.0807
16628W        W36162   5.353  12.424   4.438  0.1761  0.0402 -0.1764
16629W        W36163  11.918  15.598  10.306  0.2033  0.1795  0.1294
16630W        W36164   2.107   4.070   0.153  0.2130  0.2282  0.1076
16631W        W36165   2.220  13.680  11.852 -0.0571  0.0445  0.3065
16632W        W36166  17.809   2.539  13.166  0.0936 -0.0277 -0.1445
16633W        W36167   7.326  18.404  12.289  0.1237 -0.0600  0.3000
16634W        W36168  16.102   7.890  12.619 -0.2955  0.0559 -0.3501
16635W        W36169  16.376   4.574  14.248  0.1642  0.0437  0.2672
16636W        W36170   5.134  13.369  12.009  0.1891 -0.2025 -0.0429
16637W        W36171   2.363  10.204  11.545  0.0241  0.1462  0.0710
16638W        W36172  12.620   3.268  10.910  0.2605 -0.0818  0.0717
16639W        W36173   4.178  14.623   0.404  0.2367 -0.1231  0.1632
16640W        W36174   0.118  13.063  10.480 -0.0208 -0.2711  0.0103
16641W        W36175  12.673  10.705  11.038 -0.0494  0.2931  0.4946
16642W        W36176  18.537  16.271   1.236  0.1335 -0.2043  0.0566
16643W        W36177   8.746   2.189  12.778 -0.0540  0.1468 -0.2468
16644W        W36178   6.955   2.062   4.047  0.0548  0.0658 -0.0503
16645W        W36179   8.581  11.969  11.888  0.1805 -0.1348  0.0306
16646W        W36180  12.047  13.781   2.044 -0.0230 -0.0203  0.2156
16647W        W36181   0.744   8.645   3.264  0.0009 -0.5867  0.0543
16648W        W36182   3.595   8.590  11.093  0.2319  0.0626 -0.4479
16649W        W36183   5.904   6.239   1.081  0.0255 -0.0008 -0.2766
16650W        W36184   4.706  16.948  13.853 -0.0386 -0.2848 -0.3380
16651W        W36185  15.603  17.251  11.582  0.4452 -0.0344 -0.0326
16652W        W36186  12.443  17.064   2.579  0.0522 -0.3377  0.0818
16653W        W36187   0.985  14.269  11.952 -0.0372  0.1033  0.0284
16654W        W36188  14.266  10.187  13.950  0.3567  0.0848 -0.2464
16655W        W36189  16.247   8.856  10.915  0.1667  0.0775 -0.0403
16656W        W36190   1.165  18.974   1.816  0.1629  0.1391  0.1511
16657W        W36191   8.427   3.172   0.758  0.0013  0.3011  0.0736
16658W        W36192  17.822  13.565  14.162  0.1330 -0.1581 -0.0280
16659W        W36193   5.361   3.358  11.341 -0.2287  0.2371 -0.2926
16660W        W36194  14.969  10.243  13.445 -0.3796  0.2374 -0.0613
16661W        W36195  19.273   3.483   1.515  0.2862  0.2768 -0.5152
16662W        W36196  11.701   1.303   9.438 -0.1759  0.1918  0.0794
16663W        W36197  17.245   8.552  10.805  0.0461 -0.0778  0.2424
16664W        W36198  13.493  18.231  12.256 -0.2441 -0.1622  0.0390
16665W        W36199   0.869  14.148  11.351 -0.1287  0.3023  0.1722
16666W        W36200  17.890   1.389  10.088  0.0250  0.1284 -0.3304
16667W        W36201   3.122  18.080  12.345  0.0464 -0.1376 -0.0105
16668W        W36202  17.856   0.912  12.754 -0.2779 -0.1307 -0.1239
16669W        W36203   8.690  14.468  14.034  0.0164  0.1704 -0.1047
16670W        W36204   8.779  18.846  13.370  0.1927  0.1672  0.2049
16671W        W36205   6.797  12.850   1.668  0.0884  0.1779  0.1273
16672W        W36206   8.451  19.037   3.391 -0.2052 -0.0680 -0.1393
16673W        W36207  18.989   2.703   1.607  0.1803  0.0227  0.0514
16674W        W36208   3.456   7.991  11.634  0.2994 -0.2391 -0.2136
16675W        W36209   1.989  12.656  12.443 -0.0848 -0.0166 -0.1501
16676W        W36210  17.754   7.672  11.683 -0.0056  0.3191 -0.0942
16677W        W36211   4.304   2.345  10.851 -0.1309  0.0313 -0.0504
16678W        W36212   2.189  16.740   3.785  0.2442  0.0978 -0.1809
16679W        W36213   8.553   6.254   0.027  0.2737  0.0595 -0.3042
16680W        W36214  12.634   6.304   4.579  0.0026 -0.3265  0.0576
16681W        W36215   6.560  12.466   1.457 -0.0545 -0.2377  0.0100
16682W        W36216  12.803  13.172  13.248  0.0589  0.2615  0.2181
16683W        W36217  15.465  18.266   3.044 -0.2133  0.3341  0.0868
16684W        W36218   7.104   5.058  11.075 -0.0283 -0.2366  0.0185
16685W        W36219  18.278  18.499  11.481 -0.1111  0.0422  0.0020
16686W        W36220  12.800   0.949   3.326 -0.1769 -0.0847  0.0895
16687W        W36221  12.747   2.147  11.664  0.1577  0.2282 -0.2404
16688W        W36222   7.481  15.675  12.270  0.3106  0.3927 -0.0825
16689W        W36223   5.051  11.674  11.808  0.2742  0.0517 -0.2146
16690W        W36224   5.075   2.298  11.146  0.2773  0.0001 -0.1004
16691W        W36225  15.868  17.716  13.789  0.1752 -0.2162 -0.0482
16692W        W36226   5.171  14.629  12.346  0.3440  0.0692 -0.1556
16693W        W36227  14.265   4.041   3.443 -0.1509  0.1205 -0.0357
16694W        W36228  15.985   6.023   1.125  0.0930 -0.2862 -0.0791
16695W        W36229   1.463  14.311   0.488 -0.4068  0.1368 -0.1195
16696W        W36230   6.032  18.568  11.040 -0.1319  0.1638  0.2715
16697W        W36231  19.295   1.789  13.187 -0.0935 -0.0113 -0.1451
16698W        W36232  15.220   9.895  14.035  0.0053  0.0735 -0.1865
16699W        W36233   7.930  13.270   1.842  0.2713  0.0910  0.0076
16700W        W36234  13.181  18.919   2.145 -0.0003 -0.2375 -0.1875
16701W        W36235  11.450   1.840   3.638 -0.1042  0.0220 -0.1645
16702W        W36236   1.188  11.831   3.945  0.2381 -0.1494 -0.2574
16703W        W36237   6.666   7.100   0.710  0.5576 -0.3123 -0.4948
16704W        W36238   0.525  13.535   0.341 -0.0733 -0.0497  0.0515
16705W        W36239   2.590  19.183   4.358  0.0205  0.1537  0.1322
16706W        W36240  18.083  17.582   0.307 -0.1049  0.2517 -0.2980
16707W        W36241   1.214  12.401   0.887  0.1425  0.2222  0.2161
16708W        W36242   7.533   1.506   2.865  0.1473  0.1347  0.3848
16709W        W36243   7.866  10.179   1.950 -0.2542 -0.0774 -0.0834
16710W        W36244  15.640  10.776   0.950  0.1655 -0.2366  0.2559
16711W        W36245   6.219  10.201   2.895 -0.0953 -0.2675  0.0728
16712W        W36246   7.183  10.463  10.413  0.0815 -0.0276 -0.2776
16713W        W36247   9.359   1.972  11.181 -0.0847 -0.3487 -0.0646
16714W        W36248   1.977  11.036   3.748  0.0013 -0.1122 -0.0180
16715W        W36249  18.917   5.815  12.622  0.0541  0.0963  0.1203
16716W        W36250   3.752  16.390  12.442 -0.1969  0.1805 -0.1444
16717W        W36251  14.117   2.537  12.076 -0.0057  0.0138  0.5394
16718W        W36252  15.918   0.776   2.337  0.0540 -0.3134 -0.1753
16719W        W36253   2.272  12.361   1.580  0.3552  0.3957  0.1050
16720W        W36254   1.475   9.775   1.126 -0.2440 -0.0455  0.1809
16721W        W36255  11.390  15.838   3.427 -0.1062 -0.0540  0.0943
16722W        W36256  12.116  14.895  12.278 -0.1673  0.3039 -0.1777
16723W        W36257   3.017   2.855   0.689  0.1040 -0.1114  0.0733
16724W        W36258  16.701  18.110  11.120 -0.0278 -0.2034 -0.0200
16725W        W36259  18.789   4.260   0.613 -0.1620  0.2077 -0.0540
16726W        W36260   2.518   2.429  11.725  0.2276 -0.1976 -0.0125
16727W        W36261   4.533  13.858   3.916 -0.0035 -0.3200 -0.1306
16728W        W36262  17.300   0.802   1.691  0.0929 -0.2722  0.1601
16729W        W36263  11.734  13.214  11.741  0.1878  0.1030 -0.2770
16730W        W36264  16.629  18.428   0.786  0.0648  0.2085 -0.2390
16731W        W36265   0.778   9.372   3.135 -0.2560  0.1332  0.1030
16732W        W36266   5.470   3.966   1.772 -0.2909 -0.4034  0.0231
16733W        W36267   6.606  13.754   0.559 -0.1633 -0.5015 -0.0655
16734W        W36268  18.807  17.108  14.052 -0.2938  0.0991 -0.0303
16735W        W36269   2.120  11.484  14.207  0.0025  0.2709  0.1613
16736W        W36270  16.750  18.150   0.321  0.0570  0.3109  0.1647
16737W        W36271   1.230   1.907  13.939  0.0498 -0.0985 -0.0724
16738W        W36272  10.299  13.875  13.368 -0.0576  0.2547 -0.2620
16739W        W36273  12.361   3.284  13.876  0.0925 -0.1703  0.0840
16740W        W36274  19.301  17.920  11.256 -0.0394 -0.0309  0.1020
16741W        W36275   8.972  19.023   1.625 -0.2197 -0.0207 -0.3239
16742W        W36276  15.379  14.635   0.465  0.0070  0.0846 -0.0390
16743W        W36277   1.227   9.886  11.722  0.0786  0.0918 -0.1423
16744W        W36278   6.008  10.952   4.236 -0.0720 -0.1650 -0.0755
16745W        W36279   0.984  17.199   1.703  0.1379  0.0270 -0.2061
16746W        W36280  13.079   1.477   2.657 -0.0888  0.0693 -0.2259
16747W        W36281   4.447   3.438   4.023 -0.0498 -0.1271  0.0953
16748W        W36282  13.647   7.111   0.011 -0.1290  0.1492 -0.0270
16749W        W36283  13.539   9.926  11.676 -0.3877 -0.0255  0.2181
16750W        W36284  16.662  19.187   3.174 -0.4588 -0.0120 -0.0738
16751W        W36285  17.856   7.513   1.993 -0.0492  0.2111 -0.0408
16752W        W36286   4.977   7.972   5.192 -0.1647 -0.0836  0.0953
16753W        W36287   7.356   0.911  10.832  0.1517  0.0075  0.2126
16754W        W36288  10.637  11.889  13.880  0.2047  0.2906 -0.1087
16755W        W36289  14.554  14.238  11.623  0.4010  0.3142  0.0261
16756W        W36290  16.018   2.921  13.402 -0.1133 -0.3769 -0.1293
16757W        W36291  15.572  10.478   0.459  0.1558  0.1415  0.0647
16758W        W36292   1.940   7.169   1.335  0.0334 -0.0716  0.0663
16759W        W36293   2.998   7.269   1.268  0.1505  0.1551  0.1075
16760W        W36294  14.064  11.698   1.938 -0.3253  0.2279 -0.0651
16761W        W36295   0.183   1.233   1.831 -0.0582  0.2371 -0.0147
16762W        W36296  13.083  13.139  11.602  0.3566  0.2685  0.3009
16763W        W36297   4.834  16.139  13.740  0.3672  0.0893  0.1786
16764W        W36298   1.052  12.053   0.555  0.5751  0.2278 -0.1567
16765W        W36299   9.246  15.713  11.794  0.0561 -0.1647 -0.0487
16766W        W36300   6.581   0.444  13.608 -0.1015 -0.0093 -0.1722
16767W        W36301  17.031   4.388   2.819 -0.2462  0.1121 -0.3124
16768W        W36302  17.505   6.348   1.425 -0.1743 -0.2616  0.0292
16769W        W36303   3.005   8.184  11.677 -0.2203 -0.1879 -0.1320
16770W        W36304  18.564  12.759  12.603 -0.0375  0.2296  0.2454
16771W        W36305   4.442   1.727   2.133 -0.1175 -0.0811 -0.0121
16772W        W36306  16.713   8.824  12.302 -0.1981  0.0445 -0.1752
16773W        W36307  19.129   4.436  11.252 -0.0938  0.3696 -0.2389
16774W        W36308  11.599  11.492   3.454  0.3212  0.1099 -0.2152
16775W        W36309  10.261  18.540   0.305 -0.0652 -0.1537  0.0388
16776W        W36310  13.061  11.790   1.419  0.3065 -0.3020 -0.3497
16777W        W36311  18.131  11.077   2.222  0.0689  0.2017 -0.2917
16778W        W36312  15.161  10.175   3.903  0.0707 -0.2146 -0.0782
16779W        W36313  10.268   8.971  10.639  0.0573 -0.1171  0.0404
16780W        W36314  19.122   0.535   4.720  0.0333  0.2847  0.0973
16781W        W36315  15.171  12.073   2.580 -0.0374  0.0983 -0.0284
16782W        W36316  16.392   0.143  13.478 -0.0078 -0.2584 -0.2522
16783W        W36317   9.501   7.076  14.064  0.1134  0.0532 -0.3014
16784W        W36318  10.167   7.235  11.792 -0.1509  0.3355 -0.0921
16785W        W36319   0.949   3.089  12.463  0.1003  0.0248 -0.2005
16786W        W36320   7.890   0.214  12.275 -0.1895  0.2059 -0.0033
16787W        W36321  10.072   4.303   9.459  0.0110 -0.1925 -0.0343
16788W        W36322   8.239  10.833   3.997  0.2991 -0.4331 -0.2401
16789W        W36323  16.905   2.734   0.714 -0.3258 -0.1091  0.0637
16790W        W36324  17.827   9.725   1.540  0.1631  0.0832  0.0897
16791W        W36325  12.728  10.088  12.366 -0.1378 -0.1064  0.1848
16792W        W36326  13.418   0.571  12.937 -0.0200 -0.0509  0.3627
16793W        W36327  17.227  19.341  13.276  0.0349  0.1286  0.0937
16794W        W36328   3.189   1.800  13.575  0.0949 -0.1134 -0.3350
16795W        W36329  18.012  13.174  12.025  0.1345  0.1984 -0.0705
16796W        W36330   0.173   8.619   1.633  0.1583  0.2342 -0.4019
16797W        W36331  14.513  14.944  13.320 -0.0251  0.0589  0.2441
16798W        W36332  17.120   1.121  14.038  0.0366 -0.2019  0.0772
16799W        W36333  17.152   6.628   1.281 -0.3635  0.2789  0.2853
16800W        W36334   3.574  15.017  13.675 -0.0009  0.4157  0.2252
16801W        W36335  11.718  17.614  13.223  0.2061  0.0738 -0.1881
16802W        W36336   8.842  11.759   3.603  0.1727 -0.3026 -0.1254
16803W        W36337   2.723  15.258   3.522  0.1069  0.0413 -0.1362
16804W        W36338   3.541  10.996   1.952  0.0762 -0.2353  0.0257
16805W        W36339   0.999   3.077  14.019 -0.1980  0.2913  0.1154
16806W        W36340   9.659   4.006  12.552  0.1964 -0.1330  0.0508
16807W        W36341   6.520  13.673  10.695  0.3131 -0.0041 -0.1438
16808W        W36342  18.313  13.033  12.919 -0.0618  0.3602  0.2233
16809W        W36343  15.379  14.529  12.536  0.1897 -0.0050 -0.4605
16810W        W36344   0.900   3.899   3.408  0.2340 -0.2549 -0.3901
16811W        W36345  15.517  16.135  10.644  0.0726 -0.0867 -0.0358
16812W        W36346   7.663   5.799   3.616  0.0790  0.0085  0.4712
16813W        W36347  18.644  16.248   2.531 -0.1176 -0.0087 -0.1630
16814W        W36348  13.560  14.700  13.579  0.2363  0.0488  0.1506
16815W        W36349   1.927   2.433  11.301  0.2605  0.0249 -0.0642
16816W        W36350  19.412   7.495   1.123  0.2132  0.1395 -0.0167
16817W        W36351  13.164   2.244   3.631 -0.0167 -0.1782 -0.0656
16818W        W36352  16.185   7.508  11.947  0.1355  0.1639  0.0432
16819W        W36353  19.066   8.127   0.490  0.1103  0.1345  0.0093
16820W        W36354   4.110   6.549  10.602 -0.1543  0.1499 -0.0604
16821W        W36355  16.788  12.224   0.487  0.1829  0.2249  0.1983
16822W        W36356  10.510   1.954  10.330  0.0067  0.0950  0.0306
16823W        W36357  13.578   8.357  11.292 -0.1485 -0.1503 -0.0909
16824W        W36358  10.380   2.582  13.145 -0.0245  0.1523  0.1120
16825W        W36359   5.837  12.497   4.585 -0.4676 -0.1043  0.0316
16826W        W36360   8.598   4.740  11.166 -0.0740  0.0438  0.0133
16827W        W36361   2.234   5.295   2.455 -0.4065 -0.4181  0.1477
16828W        W36362  10.990  14.351  11.068 -0.2564 -0.0780 -0.0181
16829W        W36363   5.900  16.496   0.096  0.2064 -0.0755  0.2817
16830W        W36364  13.679  15.594  11.295  0.1741 -0.1261  0.0446
16831W        W36365  14.361   1.988  13.219 -0.1276 -0.1863  0.1129
16832W        W36366   1.439   3.449  12.480  0.1509  0.1847 -0.2597
16833W        W36367   7.356   6.690   2.691  0.0316 -0.2342  0.2098
16834W        W36368   8.808   6.639   2.400  0.3942 -0.1030  0.2516
16835W        W36369  10.362  13.871  11.503 -0.0925  0.0616 -0.1625
16836W        W36370  14.149  15.434  10.551 -0.1257  0.3350  0.0272
16837W        W36371   8.030   4.527  12.194  0.1936  0.0235  0.1786
16838W        W36372  15.548  16.588   3.379  0.3287  0.1112 -0.1568
16839W        W36373   3.463   5.723   1.358  0.1872  0.2232  0.3534
16840W        W36374  10.869  19.478  10.801  0.0035 -0.0317  0.4453
16841W        W36375   0.289  17.612   2.183 -0.2896 -0.0156  0.1103
16842W        W36376   1.545   8.533   1.456 -0.0855  0.0419  0.0433
16843W        W36377   5.037  14.540   1.156 -0.0595 -0.2104  0.2552
16844W        W36378  19.025   2.546   4.245  0.0902  0.0296 -0.2017
16845W        W36379  10.869  15.001  12.357  0.2864 -0.1896  0.3977
16846W        W36380   2.092   9.208   3.147  0.0235 -0.5022  0.0549
16847W        W36381  15.989   0.657  13.596 -0.0069  0.1298 -0.2787
16848W        W36382   2.519   3.392   4.034  0.1419 -0.1968  0.1300
16849W        W36383   5.303  15.491  13.341 -0.0223  0.2726 -0.2563
16850W        W36384  11.927  14.459  10.682 -0.0594 -0.1080 -0.1267
16851W        W36385   2.243   9.540  13.733 -0.2797  0.0883 -0.0628
16852W        W36386   1.475   0.693  10.059 -0.1795  0.2442 -0.1488
16853W        W36387  13.044   3.941  11.224 -0.2276 -0.2454  0.3412
16854W        W36388  10.803   4.246  13.112  0.4901  0.0258 -0.3650
16855W        W36389  18.008   9.679   0.100 -0.0338 -0.2074  0.1692
16856W        W36390  12.143   6.766   2.664 -0.3816 -0.0717 -0.2741
16857W        W36391   0.901   6.584  12.897  0.2153  0.1971  0.0059
16858W        W36392   1.530  18.540  10.732 -0.3669 -0.0346 -0.3065
16859W        W36393   5.684  18.144   1.590 -0.0852  0.0907  0.0521
16860W        W36394  14.922   5.889   0.218  0.0160  0.2849  0.0483
16861W        W36395   8.365   1.839  11.323 -0.0005  0.0280 -0.2113
16862W        W36396   1.216   7.587   3.283  0.0868 -0.0940  0.1067
16863W        W36397  17.055  15.750   1.917 -0.1651  0.1137  0.0261
16864W        W36398   8.611   7.482  11.224  0.3135 -0.0620 -0.2993
16865W        W36399  17.378   2.072   2.747  0.0685  0.0375  0.3818
16866W        W36400   3.696   3.397   0.995 -0.0107  0.5194  0.0835
16867W        W36401  19.074   6.274   4.830 -0.0148  0.0319  0.1371
16868W        W36402   5.384  18.273   0.645  0.2398  0.2617  0.3122
16869W        W36403  11.335  10.356  12.232 -0.1704 -0.0475 -0.0143
16870W        W36404  10.786   0.886  12.833 -0.0142 -0.0250  0.1422
16871W        W36405  18.485   6.298  12.551 -0.0872  0.0384  0.1313
16872W        W36406   9.367   7.969  11.376 -0.2707  0.0087 -0.0863
16873W        W36407   0.611  19.416   1.172  0.0833  0.3117  0.1966
16874W        W36408  12.176  19.068   1.056  0.0165 -0.0460  0.2529
16875W        W36409  13.571  10.870  12.952  0.0032  0.1142  0.0922
16876W        W36410  17.303   9.561  14.220 -0.2461 -0.3333  0.3221
16877W        W36411   9.554   9.945  11.660  0.1316  0.1198  0.0927
16878W        W36412   4.670   1.670   3.673 -0.3219  0.4513  0.0025
16879W        W36413  18.137  18.779   2.887  0.0472  0.3204 -0.0698
16880W        W36414  13.177   7.562  10.950  0.1522  0.3210 -0.2045
16881W        W36415  12.106   9.818   4.334 -0.1895 -0.1809 -0.2057
16882W        W36416  10.897  16.640  11.118  0.0428  0.1021 -0.0597
16883W        W36417   7.304  18.213   3.769  0.1490 -0.1221  0.4701
16884W        W36418   9.420   0.825   3.239 -0.0893 -0.2245  0.0200
16885W        W36419   6.688  15.861   1.294  0.0256  0.0553  0.1530
16886W        W36420  11.415   7.850  12.760 -0.0430 -0.0750  0.0596
16887W        W36421   9.489   0.325   0.239 -0.3069  0.0684  0.0736
16888W        W36422   5.174  16.771   1.565 -0.2521  0.0173  0.1165
16889W        W36423   3.717  13.021   1.746 -0.1155 -0.0034  0.3347
16890W        W36424  10.320  15.718   1.850  0.4276 -0.0524 -0.3553
16891W        W36425  12.498  11.249  10.939  0.0632 -0.1343 -0.0809
16892W        W36426  17.976  18.945  14.351  0.1459  0.3371  0.1361
16893W        W36427   5.492   9.803   3.618  0.1454  0.0771 -0.3061
16894W        W36428   7.208  11.834   1.168  0.2064  0.0901 -0.2640
16895W        W36429  17.018  11.279   0.827  0.1066 -0.1347  0.0933
16896W        W36430   3.897   1.791   2.532  0.3169  0.4330  0.0903
16897W        W36431  10.231  16.900  13.339 -0.3086 -0.0253  0.2040
16898W        W36432   0.893  10.863  12.708  0.0916 -0.0599 -0.0560
16899W        W36433   2.609   8.722   2.362 -0.1578  0.1732 -0.1682
16900W        W36434  13.135  18.333  13.209 -0.2052 -0.0254 -0.3594
16901W        W36435  17.543  12.625  12.046  0.1344  0.1183  0.0974
16902W        W36436   2.775   4.275   2.389 -0.1520  0.2191 -0.0422
16903W        W36437   5.652   1.508   2.279  0.0692 -0.0636  0.2393
16904W        W36438   5.881  17.708  14.109 -0.0511  0.3738  0.2950
16905W        W36439   3.136   6.893  11.199  0.0588 -0.2579 -0.2222
16906W        W36440   9.053   0.031   0.674  0.0712  0.4021 -0.3675
16907W        W36441  11.327   2.438   0.495  0.1604 -0.2460  0.0645
16908W        W36442   3.663  16.869   2.446 -0.2105  0.1670  0.3554
16909W        W36443   0.539  12.473   2.335  0.1920  0.0431  0.0650
16910W        W36444   6.862   7.998   0.434  0.0108  0.0471 -0.1987
16911W        W36445   7.349   9.766  12.124 -0.3259  0.0967 -0.0971
16912W        W36446   2.059   1.570  13.640  0.2193  0.0470  0.1650
16913W        W36447  10.744  18.494   9.028 -0.0372 -0.3665 -0.2609
16914W        W36448   7.685  12.265   5.243  0.0608  0.0194  0.2496
16915W        W36449   8.042   1.947  12.854  0.2060  0.0658 -0.0277
16916W        W36450  11.915   6.442   3.971  0.1396 -0.0560  0.1324
16917W        W36451   8.775  14.168   3.535 -0.1889  0.0064 -0.2434
16918W        W36452   3.261   2.296   0.107 -0.1834 -0.1851 -0.1139
16919W        W36453   8.436  18.996   0.063  0.0171  0.4055 -0.0964
16920W        W36454  14.934   2.736  13.470  0.3102  0.0257  0.4356
16921W        W36455   5.596  11.370   1.420 -0.0129 -0.1310 -0.3292
16922W        W36456  12.965   6.202  12.077  0.3369 -0.0191  0.1411
16923W        W36457   6.119   3.107  10.888 -0.0244 -0.0157  0.0405
16924W        W36458   5.423  19.119  13.743  0.3703 -0.2624  0.0559
16925W        W36459  10.939   9.475  12.448 -0.3567 -0.0959  0.1776
16926W        W36460   3.713  18.715   4.225  0.1250  0.2569 -0.1741
16927W        W36461  12.603  18.716  11.829 -0.2662 -0.1535  0.2780
16928W        W36462  12.364  17.783  12.298  0.0776 -0.1415  0.0297
16929W        W36463  10.171   3.569  12.618  0.2071  0.0185 -0.1444
16930W        W36464   5.052   5.965   1.711 -0.0817 -0.0006 -0.2428
16931W        W36465   4.016   4.385   1.314  0.2599  0.0728 -0.2705
16932W        W36466  18.506  14.590   0.415 -0.1215 -0.0967 -0.0016
16933W        W36467   0.053  13.051   1.783 -0.1059  0.0097 -0.1010
16934W        W36468  19.025   6.368   4.122  0.1910  0.0671 -0.1828
16935W        W36469   1.210  10.980  13.649  0.1375  0.3412  0.0682
16936W        W36470   0.684  18.589   2.893  0.0958 -0.1222 -0.2602
16937W        W36471  10.592  17.138  12.475  0.0358 -0.6085  0.1748
16938W        W36472  18.318  18.800   0.435 -0.3269 -0.1139 -0.0545
16939W        W36473   0.818   4.890   2.723  0.1506  0.0607 -0.2556
16940W        W36474  18.137  13.748   2.563 -0.0963  0.0919  0.3619
16941W        W36475   0.843  13.844  10.390 -0.0615 -0.2307 -0.0345
16942W        W36476  13.661  16.861  14.057 -0.1895  0.0421 -0.1171
16943W        W36477   7.361   2.442  11.409  0.0565  0.1697  0.2008
16944W        W36478  15.382   7.717   0.407 -0.2688  0.2355  0.4169
16945W        W36479  15.906   0.818   0.207  0.2178 -0.0277 -0.2097
16946W        W36480  18.077   5.195   2.488  0.1741  0.0569 -0.2536
16947W        W36481   9.202   1.175  13.568 -0.0393 -0.0388  0.3136
16948W        W36482  10.740  18.424   3.760  0.3694 -0.0671 -0.0139
16949W        W36483   8.909  15.913  13.925 -0.0175 -0.0777 -0.3142
16950W        W36484  10.197   2.884  12.038  0.1370 -0.0209  0.1901
16951W        W36485   5.642  12.047  11.118 -0.1449  0.0004 -0.0947
16952W        W36486  10.918   6.852  10.555  0.2807 -0.1520  0.0556
16953W        W36487   6.914  19.272   2.317 -0.0163 -0.2235  0.0405
16954W        W36488   7.291   3.375   5.204 -0.0370  0.1881  0.1483
16955W        W36489  17.213  12.578   3.330  0.1917 -0.1692 -0.0912
16956W        W36490   7.658   9.398  11.000 -0.0201 -0.0863  0.0106
16957W        W36491  18.079  17.187  13.854 -0.0452 -0.1001  0.2013
16958W        W36492   0.553  13.910   2.847 -0.0395  0.0388  0.3563
16959W        W36493   2.509  18.430  14.169  0.1190 -0.0034 -0.2909
16960W        W36494  10.269  15.512  12.018 -0.0458  0.0939 -0.0137
16961W        W36495  11.374   4.751   9.452  0.2677  0.2588  0.1717
16962W        W36496  13.535  12.915  11.315 -0.0140 -0.0579  0.2378
16963W        W36497  12.149  19.473  12.524  0.2835 -0.0310  0.0364
16964W        W36498  17.291   8.647   0.697  0.1272  0.3484  0.3114
16965W        W36499   4.692  10.072  12.444 -0.0223 -0.0706  0.1472
16966W        W36500   3.107   0.588  13.630 -0.0339 -0.0476  0.2100
16967W        W36501  18.742   3.279   3.562  0.1763 -0.0404 -0.0123
16968W        W36502   9.353  12.228   0.043  0.1926 -0.0285 -0.0783
16969W        W36503   0.001  11.744  13.738  0.0595 -0.2583  0.0438
16970W        W36504  17.299   4.367   4.049 -0.0039 -0.2401 -0.0146
16971W        W36505  18.014   6.363   9.774 -0.2420 -0.1958  0.1909
16972W        W36506   7.777   8.537   2.683 -0.2167  0.0758  0.2864
16973W        W36507   3.436  18.100   9.951  0.0659  0.2840 -0.3233
16974W        W36508   5.302  13.069   0.394 -0.0389 -0.1091 -0.2688
16975W        W36509   1.787  14.783   3.532 -0.0504 -0.0141 -0.0445
16976W        W36510   6.276  10.459   2.018 -0.3514 -0.1155  0.4628
16977W        W36511   8.885   7.063  11.314 -0.2112  0.3200  0.3180
16978W        W36512  18.021  16.220  12.905  0.0002  0.1435  0.1317
16979W        W36513  18.444   6.784   3.499 -0.0145 -0.1886 -0.2389
16980W        W36514  16.642   4.859  11.024 -0.3293  0.0075  0.1266
16981W        W36515  13.399  16.222   1.923  0.1067  0.3161 -0.5062
16982W        W36516  15.771   9.018   2.649  0.1841  0.0626 -0.1292
16983W        W36517   5.238   2.693   9.968 -0.2167 -0.1532 -0.0015
16984W        W36518   1.179   3.729   1.075  0.1445 -0.2919 -0.1209
16985W        W36519   1.275   4.552   9.106  0.1463 -0.1982 -0.1193
16986W        W36520  18.266  10.369   1.230  0.1447 -0.0654  0.0870
16987W        W36521  16.108   3.778  13.112  0.2221 -0.3567 -0.0853
16988W        W36522  13.985  12.282   2.604 -0.2013  0.0491 -0.1122
16989W        W36523   3.037   2.497  12.143  0.0205  0.2820 -0.0373
16990W        W36524  16.378   1.103  11.015  0.0855 -0.0136  0.1283
16991W        W36525  18.060   5.002  13.157 -0.2602  0.2839 -0.0776
16992W        W36526   5.526   5.466   2.986  0.2548  0.0017 -0.2828
16993W        W36527  16.826   9.035   3.316 -0.0837  0.3558  0.0324
16994W        W36528  16.338   0.798  13.949 -0.3292 -0.2484 -0.0382
16995W        W36529  18.514  14.218   1.823 -0.1579 -0.1166 -0.2838
16996W        W36530  11.736  15.653   3.140 -0.1531 -0.0396  0.4628
16997W        W36531  13.836  18.043   0.479 -0.3346 -0.0200  0.0074
16998W        W36532  10.579  18.439   0.742  0.2543  0.2245 -0.1158
16999W        W36533  18.996   9.312  11.775 -0.2421 -0.0372 -0.3501
17000W        W36534   4.028  16.602  11.964  0.0777 -0.3130  0.0532
17001W        W36535   9.476  14.943   2.519  0.1122 -0.0975 -0.1092
17002W        W36536   7.250   7.754   1.603 -0.1590  0.2030  0.0250
17003W        W36537   4.660   5.752  11.794  0.0529  0.1223 -0.0181
17004W        W36538   0.220   1.484   2.396  0.0766 -0.0079 -0.1529
17005W        W36539  14.085  13.349  13.178 -0.1042 -0.0061 -0.5078
17006W        W36540  13.903  12.126  13.322  0.1060  0.2125  0.0219
17007W        W36541   1.970  16.331  11.123 -0.0241 -0.1802 -0.2128
17008W        W36542   1.705   7.463  14.072  0.1701  0.0276 -0.2628
17009W        W36543   8.627   7.282   1.821 -0.1509 -0.1808  0.0138
17010W        W36544   0.080   8.666  12.362 -0.1342  0.1918 -0.2351
17011W        W36545  10.036   7.009   2.575  0.1927  0.0960  0.2634
17012W        W36546   5.531   1.060   1.129  0.0279 -0.1698  0.1126
17013W        W36547   0.070   4.410  11.062 -0.2047  0.3235  0.0429
17014W        W36548  15.722   1.166  12.087 -0.2011 -0.1987 -0.2443
17015W        W36549   1.891  13.067   3.222  0.1667  0.3002  0.1679
17016W        W36550  12.222   4.992   3.031 -0.1430 -0.0719 -0.4150
17017W        W36551  14.191  13.419  11.682 -0.3271 -0.0773  0.1839
17018W        W36552   6.191  18.106   2.274  0.2687 -0.0061  0.0393
17019W        W36553   2.909  18.766   4.630  0.4192  0.1299  0.1997
17020W        W36554  15.905   7.301  14.299 -0.1521  0.1672 -0.0519
17021W        W36555  15.297  17.745   2.977 -0.0974  0.0123 -0.4315
17022W        W36556  13.809  14.332   3.929  0.1841  0.0582 -0.2636
17023W        W36557  15.010  18.045  13.530 -0.0308  0.0361 -0.2204
17024W        W36558   8.306  10.963  12.015  0.0586 -0.1950 -0.2350
17025W        W36559  11.365   4.290  10.715 -0.2075 -0.0430 -0.0957
17026W        W36560   3.854  17.061   0.589  0.2218  0.2223 -0.0002
17027W        W36561   0.443   2.804  12.469  0.3051  0.0757 -0.0178
17028W        W36562   6.345   1.474  11.745 -0.1821  0.2998 -0.1111
17029W        W36563   8.287  14.248   2.270 -0.0032 -0.1656 -0.0759
17030W        W36564   7.633   5.083   1.302 -0.2231 -0.0335  0.2066
17031W        W36565   5.923   1.082   3.879 -0.0123  0.1058  0.1019
17032W        W36566   4.397  11.600   0.283 -0.1510  0.3124  0.3868
17033W        W36567  18.287  16.916  10.725  0.1850  0.0288 -0.1482
17034W        W36568  13.617   1.802  10.116 -0.1526  0.0421 -0.1516
17035W        W36569  16.351  14.583   2.477  0.0304 -0.0308  0.3738
17036W        W36570   6.178  11.434  12.783 -0.2643  0.1695  0.0332
17037W        W36571  13.072  12.226   3.643  0.0858  0.0521  0.1295
17038W        W36572  11.359  15.968  13.512  0.3189  0.0105  0.1631
17039W        W36573  18.069   2.068   0.089  0.3038  0.3796  0.0162
17040W        W36574   5.239   3.550  12.886  0.1270  0.0194  0.0079
17041W        W36575  18.226  18.212  11.040 -0.0920 -0.0584  0.0705
17042W        W36576  12.132  14.043   1.575 -0.1221  0.0258 -0.0527
17043W        W36577   3.561  14.567   1.170 -0.3656 -0.1012  0.0451
17044W        W36578   9.045   6.453  13.604  0.2465 -0.1253  0.3995
17045W        W36579  17.569  19.503  13.618  0.0140  0.1047  0.1454
17046W        W36580  13.130   4.529  10.023  0.1602  0.0318  0.2609
17047W        W36581  10.592  16.147  13.778  0.1681 -0.1124  0.0877
17048W        W36582  12.118   7.772  12.703  0.2685  0.0129  0.2674
17049W        W36583   1.426  15.584  12.999  0.1429 -0.2810  0.1999
17050W        W36584  18.386   3.695  11.047 -0.2756  0.0108  0.0667
17051W        W36585   3.466  11.896   3.013 -0.3125  0.0695 -0.0031
17052W        W36586  14.699  16.461   1.329  0.2283 -0.0982  0.1287
17053W        W36587  13.114  17.952  10.777 -0.1048  0.0518 -0.0788
17054W        W36588   0.323  13.595   1.083 -0.3028  0.0278 -0.2734
17055W        W36589   2.226  10.614  14.252 -0.0574 -0.1871 -0.1815
17056W        W36590  14.708   5.354  14.229 -0.1769 -0.1032  0.2296
17057W        W36591  12.025   8.078  11.618 -0.0102  0.0157  0.3196
17058W        W36592   8.235  13.585   1.615 -0.2286  0.2050  0.1427
17059W        W36593  13.775   5.151   1.349 -0.1025  0.2059 -0.1147
17060W        W36594  16.138  14.454   1.655 -0.0670  0.0534 -0.0272
17061W        W36595  11.925  10.950  11.517  0.2272 -0.0192  0.1432
17062W        W36596   6.302   7.815   1.612 -0.0293 -0.1036  0.1041
17063W        W36597  10.107  18.468  12.442 -0.3706 -0.2205 -0.4169
17064W        W36598  10.546   8.682   2.695  0.0638  0.0758 -0.2873
17065W        W36599  11.937  10.435  10.579  0.0272 -0.0198  0.3147
17066W        W36600   3.370   5.720   0.370  0.5133 -0.3379  0.2708
17067W        W36601  12.315   7.770  13.148  0.0181 -0.1792  0.0013
17068W        W36602   8.120   8.055  12.590 -0.0511 -0.1408  0.1576
17069W        W36603  11.443   9.420  12.442 -0.0617 -0.1246 -0.4784
17070W        W36604  18.993  14.373   1.798 -0.0664 -0.0809  0.1106
17071W        W36605  12.098   9.816   1.555 -0.2982 -0.1071  0.0855
17072W        W36606  17.665   8.160  13.013 -0.1902 -0.2150  0.1102
17073W        W36607  18.870  16.401  10.995 -0.2858 -0.1259 -0.2652
17074W        W36608   6.270   6.399   2.039 -0.1936  0.3998 -0.0250
17075W        W36609   2.955  12.160  12.804  0.0141 -0.0219  0.1227
17076W        W36610   3.388   3.587   4.410 -0.4157 -0.0501 -0.1613
17077W        W36611   5.516  13.936  10.845  0.0189 -0.3876 -0.0822
17078W        W36612   5.040   4.956  10.662  0.0842  0.4995  0.2397
17079W        W36613   9.761   6.551   0.944  0.1048  0.0900 -0.0239
17080W        W36614  15.904   0.110  12.833  0.1042  0.0734  0.2280
17081W        W36615   2.573   7.067   3.329 -0.0061 -0.0502  0.1922
17082W        W36616  15.465  16.376   0.769  0.1778  0.0693 -0.2319
17083W        W36617  15.664  11.861   3.434 -0.0915 -0.0504  0.1372
17084W        W36618   6.384  15.767  10.481 -0.0583 -0.2329  0.0519
17085W        W36619  14.441  13.443   1.530 -0.1565  0.0850  0.1113
17086W        W36620   2.942  10.176   0.366  0.0819 -0.0586  0.0617
17087W        W36621   6.378   9.363   2.536  0.2038  0.0511 -0.0944
17088W        W36622  10.492  10.385   3.641 -0.1230  0.3644 -0.0703
17089W        W36623   1.972   6.682   4.657  0.0554  0.3441 -0.0209
17090W        W36624   5.845  15.480  11.146 -0.0684 -0.0697 -0.1722
17091W        W36625   7.292  12.110  12.288  0.2357  0.1247  0.1726
17092W        W36626   1.095  11.668  11.367 -0.0900 -0.0010 -0.0765
17093W        W36627   0.534  18.732   0.524  0.0227  0.0062  0.0899
17094W        W36628  16.875  14.291  13.196 -0.1619  0.2092  0.2998
17095W        W36629  11.128   7.491  12.799  0.3304  0.1572 -0.2487
17096W        W36630  11.307   1.147   3.697  0.0537  0.1052 -0.0272
17097W        W36631   1.119   4.254   1.640  0.0471 -0.1339  0.2112
17098W        W36632   6.756   9.746   1.102 -0.0082  0.0038 -0.2451
17099W        W36633  11.718  18.984   2.986  0.0914  0.1361  0.0075
17100W        W36634   1.398   0.168   4.158  0.2314 -0.2010  0.2153
17101W        W36635   4.243   7.552   2.771 -0.1360 -0.3658  0.0640
17102W        W36636   9.088  13.338   3.515 -0.0516  0.3633 -0.2956
17103W        W36637  15.478   0.948  12.687  0.0640  0.1538 -0.1612
17104W        W36638  13.573   9.252   2.721 -0.0123  0.3544  0.2637
17105W        W36639  15.074  10.182   2.195 -0.1413  0.2482 -0.0782
17106W        W36640   6.861   0.206  11.316  0.1148  0.0817  0.0639
17107W        W36641  15.537   3.317   3.757 -0.0988 -0.2118  0.0486
17108W        W36642  12.612  14.564   0.420 -0.0209  0.1167 -0.2240
17109W        W36643  18.004  19.325  13.948  0.1376 -0.1492 -0.0457
17110W        W36644  17.495   6.996  12.633 -0.1230 -0.1002 -0.1173
17111W        W36645  12.091  10.217   2.571 -0.1435 -0.2189  0.0778
17112W        W36646   1.114   2.701  11.143 -0.0624  0.1375  0.2849
17113W        W36647   7.185   3.338   2.349 -0.0535  0.1640  0.0768
17114W        W36648   5.992  10.674  11.582  0.1777 -0.0655  0.1133
17115W        W36649  14.689  18.640   3.776  0.2799 -0.1911 -0.0604
17116W        W36650  13.366   0.392   2.996 -0.0531  0.0022 -0.0102
17117W        W36651  16.188  16.275   4.805 -0.0978 -0.1571  0.2105
17118W        W36652  16.713   0.592  11.349  0.0183 -0.0007 -0.2057
17119W        W36653   7.720   8.510  12.475 -0.0877  0.1752 -0.2345
17120W        W36654   7.110   8.706  11.938 -0.2816 -0.0779 -0.4018
17121W        W36655   4.298   2.373  12.463  0.0469  0.2030  0.0714
17122W        W36656   4.128   5.189   3.453  0.0412 -0.0109 -0.0482
17123W        W36657   8.348   3.231  12.043  0.1565  0.1603  0.0806
17124W        W36658   0.183  18.799   0.904  0.0638 -0.0787 -0.2136
17125W        W36659   7.038   5.586   0.585 -0.2556 -0.2426  0.0888
17126W        W36660  16.898  18.159  11.970 -0.1094 -0.2109 -0.0045
17127W        W36661  10.618   9.181  14.090 -0.0688 -0.0652  0.1897
17128W        W36662   0.119   4.047  12.038  0.0847 -0.2001 -0.2922
17129W        W36663   3.014  16.282   3.501  0.2714  0.0547 -0.0923
17130W        W36664   5.957  18.353  11.467 -0.3024 -0.3870 -0.2246
17131W        W36665   5.376   6.654   4.615 -0.0214 -0.2710 -0.0810
17132W        W36666   9.216   4.949   1.223  0.0245  0.0482 -0.1289
17133W        W36667   7.526  17.535   0.923  0.1041  0.1614 -0.0998
17134W        W36668  17.663   4.007  11.655 -0.0823  0.1927  0.2899
17135W        W36669  15.065  12.959  10.351  0.0228 -0.3802 -0.0489
17136W        W36670   2.777  10.048   3.448  0.1183  0.0149 -0.0368
17137W        W36671  12.955  13.711  10.609  0.0215  0.2695 -0.2164
17138W        W36672  18.346  12.214  10.942 -0.4720 -0.0940  0.1515
17139W        W36673  11.559   6.080  10.476  0.0158  0.0767 -0.0848
17140W        W36674  14.515  12.234   1.195 -0.0382  0.2525 -0.1377
17141W        W36675   1.323   4.686  10.555 -0.2487 -0.0200  0.1313
17142W        W36676   4.524   9.629   1.209 -0.2010  0.5417 -0.0243
17143W        W36677  14.535  17.518  11.689  0.0268  0.1415  0.0676
17144W        W36678   6.116  11.479   3.525  0.2420 -0.1827  0.3566
17145W        W36679   1.784   0.916  11.831  0.1938 -0.0263  0.1687
17146W        W36680  12.625  11.697  11.044  0.0432 -0.0712 -0.1595
17147W        W36681  14.735   4.973   2.466  0.3975 -0.3824  0.1058
17148W        W36682  10.337  11.677  14.236 -0.4240  0.0637  0.0600
17149W        W36683  17.656  18.124   2.750 -0.3849 -0.1654  0.2420
17150W        W36684   3.299  12.799  10.087  0.1530 -0.0934 -0.2332
17151W        W36685  10.161  17.629   1.175 -0.1796  0.0027 -0.0021
17152W        W36686   0.374  17.430  11.004  0.0767  0.4144 -0.3800
17153W        W36687  12.140   5.636   1.852 -0.1453  0.1766 -0.0152
17154W        W36688   8.996  14.285   3.099  0.0021  0.0652 -0.1385
17155W        W36689  12.205  15.900   1.464 -0.2073 -0.0988 -0.2759
17156W        W36690   4.480   5.013  13.786 -0.0713 -0.0854 -0.5114
17157W        W36691  13.300  18.437   2.980 -0.2676 -0.0551  0.0102
17158W        W36692  13.715  16.044  13.740 -0.2306  0.0529 -0.2983
17159W        W36693  10.375   8.149  12.963  0.0760 -0.0846  0.0142
17160W        W36694  13.865   7.951   3.041  0.1500 -0.0378 -0.2677
17161W        W36695   2.816  18.734  13.020 -0.1132  0.1723  0.0384
17162W        W36696   0.815   0.519  11.282 -0.2430 -0.2951 -0.1102
17163W        W36697  11.303  17.487   3.469  0.2809  0.0806  0.1329
17164W        W36698  16.807   7.660   4.911 -0.0155 -0.1148 -0.0837
17165W        W36699   5.528  11.929  11.637  0.2052  0.0776 -0.0429
17166W        W36700   7.777   7.126  12.282  0.2745  0.3682  0.0327
17167W        W36701  14.193  18.653  10.135  0.0444 -0.3765  0.1088
17168W        W36702   5.777  10.077  11.571 -0.2008 -0.0958  0.0984
17169W        W36703  14.368   7.865   0.095 -0.1577 -0.0261 -0.0053
17170W        W36704  16.287   4.584  11.243  0.5324  0.0471  0.0390
17171W        W36705  13.305   8.471   3.699 -0.0546  0.1809 -0.0919
17172W        W36706   2.083   6.564   3.833  0.0294  0.4591  0.0407
17173W        W36707   6.782  13.983  11.738 -0.0500 -0.2652 -0.2081
17174W        W36708   2.260   9.954   2.051 -0.2318 -0.0671  0.0979
17175W        W36709  14.933  13.523   1.624 -0.0801 -0.3695 -0.4372
17176W        W36710  16.890  10.296   3.725 -0.0162  0.2339 -0.1507
17177W        W36711  14.481   7.363  11.225  0.2712  0.0839  0.3357
17178W        W36712  17.544   4.196   1.388 -0.0650  0.1672 -0.0301
17179W        W36713  16.028  16.511   9.847  0.1274  0.0027 -0.0380
17180W        W36714  15.986  12.018  11.308 -0.3362 -0.0468  0.3908
17181W        W36715  12.051   2.398   5.142 -0.1895 -0.5900 -0.3699
17182W        W36716   4.574  13.007   0.999  0.0493  0.2086  0.0998
17183W        W36717   5.111   3.748  11.528 -0.1567 -0.0832  0.0912
17184W        W36718   2.605  18.675   1.361 -0.0238  0.1453 -0.3000
17185W        W36719   3.405  11.782   2.578  0.1117  0.1793 -0.0224
17186W        W36720  17.960   6.317   1.747 -0.3248 -0.1793  0.2952
17187W        W36721   5.004  17.031  10.892  0.3169  0.1724 -0.1059
17188W        W36722   2.238  18.911   1.785 -0.0925 -0.0382  0.0749
17189W        W36723   9.615  13.461   0.111  0.3712 -0.0005  0.0840
17190W        W36724  10.056   5.189  13.841 -0.2516 -0.0454  0.0030
17191W        W36725   5.648  16.467   1.917  0.0572  0.0153  0.1718
17192W        W36726  17.632  12.393   3.707  0.1855  0.2847 -0.0443
17193W        W36727  15.629  19.214  12.551 -0.0204  0.0180  0.3590
17194W        W36728   3.641   8.474   3.980 -0.0805 -0.0912 -0.2223
17195W        W36729  14.023  14.682  11.127 -0.1045  0.2673  0.2914
17196W        W36730   1.611  16.271   0.170 -0.2279 -0.2513 -0.0322
17197W        W36731   6.100   1.806  12.626  0.1589  0.1078 -0.0784
17198W        W36732   4.493   4.616  12.487 -0.3240 -0.0030  0.3798
17199W        W36733  10.642   9.993   1.951  0.1107 -0.1084 -0.0729
17200W        W36734   3.718  16.657   0.091  0.1230  0.0175  0.2511
17201W        W36735  18.543   4.412  10.693 -0.1448  0.2662  0.3381
17202W        W36736   0.928  15.154   3.960 -0.4715  0.0504  0.1090
17203W        W36737  10.511  14.319  10.553  0.4030  0.1548  0.1551
17204W        W36738   1.859   0.828   4.326  0.2503 -0.2568 -0.2917
17205W        W36739  15.708  14.028  10.301 -0.1906 -0.1675  0.1631
17206W        W36740   7.687   2.251  10.595  0.2305  0.1543 -0.1385
17207W        W36741   9.312  11.581   2.233 -0.0166 -0.1099 -0.1517
17208W        W36742   4.351  13.928  12.115  0.1531  0.1066  0.0933
17209W        W36743  15.543  11.307   1.689  0.2338 -0.0643 -0.0804
17210W        W36744   5.466   6.890   0.441  0.2290 -0.1838 -0.0720
17211W        W36745  15.208   6.980   2.107  0.0103 -0.1683 -0.0002
17212W        W36746   3.253   2.135   1.492 -0.0732  0.0612 -0.1417
17213W        W36747  13.329  17.279   0.944  0.1232 -0.0156 -0.0177
17214W        W36748   7.130   5.592  11.040  0.2559  0.0318 -0.2190
17215W        W36749   8.877  14.495  11.316  0.1023 -0.2711  0.1807
17216W        W36750   4.703  17.832  12.541 -0.0895 -0.2380  0.3436
17217W        W36751   6.228   7.932  11.015  0.2331  0.3332  0.2550
17218W        W36752   6.360  19.019   2.538 -0.1605  0.1242 -0.1340
17219W        W36753   9.132  12.074  10.970  0.0061 -0.1032  0.2224
17220W        W36754   1.716  10.572  13.535 -0.0129 -0.0081  0.0764
17221W        W36755   2.258  12.200   1.103  0.2596  0.0491 -0.0216
17222W        W36756   6.104  16.119   4.115  0.1498 -0.1082 -0.0050
17223W        W36757  16.498   3.906   1.518  0.0428  0.1130 -0.0743
17224W        W36758  13.474  17.547  10.728  0.2566  0.0045  0.1882
17225W        W36759  16.400   3.448  11.117  0.1639  0.2510 -0.0365
17226W        W36760   8.425  16.098  13.961  0.2884 -0.2357 -0.1909
17227W        W36761  16.832   9.958   9.504 -0.0874  0.2046  0.0877
17228W        W36762   4.734   8.662  13.009  0.0257 -0.2534 -0.1576
17229W        W36763  11.589   4.208   4.694  0.3019 -0.1031 -0.0027
17230W        W36764  11.767  18.332   3.206  0.1150  0.3406 -0.0889
17231W        W36765  18.525   4.250  11.155  0.2619  0.1222 -0.0951
17232W        W36766   2.054   8.855   5.392  0.3694 -0.0632 -0.0100
17233W        W36767  12.117  12.273  12.897 -0.0167  0.1164  0.0989
17234W        W36768  14.706   9.629   3.300 -0.0912  0.2091 -0.1832
17235W        W36769  15.897   2.391  14.180 -0.3695  0.2324  0.4644
17236W        W36770  15.719  10.509  13.367  0.1713 -0.0596  0.0497
17237W        W36771   5.670   0.005  10.807  0.1414 -0.0192  0.0135
17238W        W36772   2.597  14.566   9.425  0.0880  0.3765 -0.0675
17239W        W36773   6.382  12.019  10.551  0.0370  0.0456  0.0766
17240W        W36774  15.627  18.844  12.959  0.1422  0.3092  0.1499
17241W        W36775  17.528  13.169  14.038 -0.3490  0.2154  0.4722
17242W        W36776  15.377   6.056   3.823  0.0771 -0.3109  0.1882
17243W        W36777   6.467  18.626   0.789  0.1241 -0.1374 -0.2979
17244W        W36778   0.334   1.426   2.967 -0.1442 -0.0329 -0.0638
17245W        W36779   1.377   8.010  12.784 -0.0531  0.1020  0.1347
17246W        W36780  17.601   6.442   0.405 -0.1436  0.2039  0.1037
17247W        W36781   0.376   6.303  11.375  0.2623  0.2100  0.1100
17248W        W36782   7.246   8.696   2.721 -0.1082 -0.0483  0.0400
17249W        W36783   1.965  13.870  13.138 -0.1575 -0.0059  0.2603
17250W        W36784   9.310   2.248  13.684 -0.2045 -0.1218 -0.3946
17251W        W36785  18.223   2.964  11.087  0.1671  0.4083 -0.3257
17252W        W36786  17.005   2.223   0.821 -0.0792 -0.2448  0.2256
17253W        W36787  17.610  16.536   9.959 -0.0768  0.1418 -0.1315
17254W        W36788  11.951   4.288  12.094  0.0289  0.1056 -0.2609
17255W        W36789   4.872   3.336  11.348 -0.2728  0.2081  0.0406
17256W        W36790  19.337   1.449   9.902 -0.1513 -0.0167  0.1863
17257W        W36791   8.317  16.418   3.199  0.0693 -0.1332 -0.0506
17258W        W36792  12.143  16.460  11.638 -0.0529  0.0457  0.1371
17259W        W36793  18.782  12.991   1.337  0.1775 -0.0513  0.4912
17260W        W36794  17.971   4.404  14.054 -0.1965 -0.1852 -0.1806
17261W        W36795  14.008   5.799  10.286  0.0922  0.0884 -0.0077
17262W        W36796  19.485   7.707   2.478 -0.1985 -0.0004  0.0873
17263W        W36797  18.704  15.239   0.664  0.0634  0.0139 -0.4766
17264W        W36798  16.380  17.272   1.311 -0.2461  0.1791 -0.2326
17265W        W36799  15.153   7.491   2.334 -0.1522  0.1579  0.0421
17266W        W36800   3.148   1.982  14.091  0.1541  0.2040  0.4053
17267W        W36801  11.535   8.309   0.874 -0.1833  0.2322  0.0765
17268W        W36802   6.640   7.281  13.373 -0.3227  0.4744 -0.1989
17269W        W36803   0.309  13.071  11.321  0.1076  0.3223  0.1333
17270W        W36804   9.573  11.484  11.344 -0.2179  0.0617  0.1326
17271W        W36805  18.627   9.473   2.279  0.1699  0.2733  0.0043
17272W        W36806  16.688   2.280   0.441 -0.2169  0.0317 -0.1669
17273W        W36807  19.238   1.645   5.102  0.0017  0.3082  0.0230
17274W        W36808   3.409  18.514   3.333 -0.0255  0.0889  0.0713
17275W        W36809  16.313   5.939  14.274 -0.1942 -0.3082  0.0522
17276W        W36810   5.081  10.486   3.184  0.0795 -0.0882 -0.2347
17277W        W36811  19.121   2.431  13.649 -0.5588 -0.0601  0.2382
17278W        W36812   6.041   4.250   2.431  0.2165 -0.1844 -0.5553
17279W        W36813   5.720   0.510  10.997  0.0024  0.1198  0.0647
17280W        W36814  15.005   0.614   0.706 -0.0760 -0.0759 -0.1910
17281W        W36815  15.747  17.220  13.879  0.3448  0.3149 -0.3085
17282W        W36816   5.955  19.257   1.080 -0.1247 -0.1294  0.1861
17283W        W36817   3.967   7.792  11.588  0.0955  0.4325 -0.3172
17284W        W36818  16.869   2.789  14.116  0.5453 -0.1537  0.1151
17285W        W36819  17.144  19.391   0.459  0.0026  0.0705 -0.2657
17286W        W36820   6.368   9.553   3.412 -0.0178 -0.1122 -0.0276
17287W        W36821  18.802  19.122  10.794  0.2033 -0.1459 -0.0750
17288W        W36822  15.731  14.533  10.264  0.2757 -0.0799  0.1566
17289W        W36823   4.992  12.812   3.174 -0.2096  0.2366  0.0507
17290W        W36824  12.733  15.751  10.459 -0.2620 -0.1035  0.0618
17291W        W36825  15.207   2.213   3.479  0.1045 -0.1492  0.0927
17292W        W36826   5.721   1.881   1.720  0.0092  0.1159 -0.1328
17293W        W36827   6.913   8.485   2.432  0.0261  0.2979  0.0408
17294W        W36828   0.846  13.126  11.146 -0.2542  0.1031  0.0348
17295W        W36829   4.017  10.927   3.250  0.0396 -0.0008  0.2917
17296W        W36830   8.283   7.090   2.799 -0.1131  0.1063  0.0891
17297W        W36831  10.572   4.606  10.548 -0.1389 -0.2929  0.1291
17298W        W36832   5.634  10.998  11.782 -0.3266 -0.0600 -0.2109
17299W        W36833  17.652  16.877   2.043  0.0355 -0.3262  0.0094
17300W        W36834   5.801   0.585  13.544 -0.0681  0.0684  0.4102
17301W        W36835   1.203  18.011  11.521  0.0658 -0.2159 -0.3006
17302W        W36836  15.949  13.756   1.126  0.1085  0.1096  0.0557
17303W        W36837  16.423   8.652   3.378 -0.2781  0.2104 -0.3857
17304W        W36838   8.686  13.514   1.832  0.0501 -0.1284 -0.0409
17305W        W36839  13.649   3.604  10.158 -0.0681 -0.1330 -0.1590
17306W        W36840  15.448   2.023   4.080 -0.2869  0.2444 -0.2002
17307W        W36841   8.455   5.863  10.651 -0.0182 -0.2010 -0.2352
17308W        W36842  10.378  11.810  10.629  0.1599 -0.2273  0.0200
17309W        W36843   7.882  14.554  11.069 -0.0784  0.0923 -0.3505
17310W        W36844  15.455   8.518  12.316  0.0182  0.0560 -0.1359
17311W        W36845   0.054   0.272  13.472  0.1128 -0.2177 -0.0640
17312W        W36846   3.152  14.051   1.346 -0.1980 -0.1506  0.2501
17313W        W36847  19.334  10.137   1.023 -0.2978 -0.1812  0.4003
17314W        W36848  13.553  11.780  13.267  0.1151 -0.0678 -0.0887
17315W        W36849  10.015   9.469  12.584  0.1676 -0.3798  0.2168
17316W        W36850  11.148  13.686   1.789  0.0045 -0.2036  0.4180
17317W        W36851  12.592  18.641  11.207 -0.4452  0.4490 -0.0335
17318W        W36852  14.445   5.165  11.459  0.0958 -0.2388 -0.1795
17319W        W36853  18.821   3.979  10.820 -0.1009 -0.1080  0.1470
17320W        W36854  14.387  19.021  11.361 -0.0609 -0.1521  0.1744
17321W        W36855  11.641   7.270   3.468  0.2500 -0.1609 -0.0319
17322W        W36856   8.912   0.249   2.145 -0.1958 -0.1806  0.0671
17323W        W36857   5.718   6.428  13.951  0.0066 -0.0291 -0.0552
17324W        W36858  16.095  18.542   0.664  0.2947 -0.1364  0.0047
17325W        W36859   6.312  14.240   2.743 -0.1236 -0.3907 -0.1564
17326W        W36860   7.311  16.885   0.589  0.1504 -0.2017  0.0448
17327W        W36861   8.834   5.445   1.567  0.1459  0.2421 -0.1703
17328W        W36862   5.116   7.905   0.490 -0.2951 -0.1596 -0.0186
17329W        W36863  14.091   7.095   3.775  0.2841 -0.0649 -0.0204
17330W        W36864  10.629   8.708  10.274 -0.2314 -0.0467 -0.0805
17331W        W36865  16.922   6.088   2.113 -0.0519 -0.3611  0.1327
17332W        W36866  14.594  15.122  11.647  0.4333  0.1346  0.2200
17333W        W36867   0.669   8.802   1.857  0.0291 -0.0824  0.2884
17334W        W36868   1.956   8.103  12.653  0.0567  0.2523  0.2238
17335W        W36869   9.587  11.652   2.637 -0.1239 -0.2026 -0.0074
17336W        W36870  15.907  14.787   0.389 -0.0196  0.0023 -0.1226
17337W        W36871   2.288  16.229   3.780  0.0466 -0.1207 -0.0513
17338W        W36872   8.313  16.862   2.238 -0.0390  0.2316 -0.0724
17339W        W36873  15.815  17.376  13.350  0.0767 -0.0788 -0.1240
17340W        W36874   6.376   8.857  11.269 -0.0415 -0.1317  0.1048
17341W        W36875   1.738   3.878  11.632 -0.1099  0.2094  0.1417
17342W        W36876  11.036  17.499  14.006 -0.3610  0.4019  0.2162
17343W        W36877   8.499  17.750  12.748 -0.0925 -0.2236  0.1640
17344W        W36878   3.479  17.411  10.480 -0.1064  0.3604 -0.1513
17345W        W36879   7.541   8.016   3.573  0.0884 -0.1576 -0.1572
17346W        W36880  16.533   6.563  12.638  0.1677  0.2467 -0.0177
17347W        W36881   3.159  17.895   0.220 -0.0709  0.1115  0.0189
17348W        W36882   5.116   2.690   0.181 -0.0043  0.1513 -0.0942
17349W        W36883  10.827   5.443  13.613 -0.0627  0.2355  0.0742
17350W        W36884  12.363  11.532   2.207  0.1862  0.0702  0.1733
17351W        W36885   4.758  10.271   0.887 -0.1328 -0.0359 -0.2869
17352W        W36886  17.345   0.990  12.674 -0.0728 -0.0736 -0.0486
17353W        W36887   0.430   1.761  13.745 -0.0308  0.0266  0.0365
17354W        W36888  13.818  16.766  10.516  0.0706  0.1696  0.0666
17355W        W36889   0.632   7.766   4.715  0.2139  0.3119  0.0003
17356W        W36890  17.225   0.223  10.085 -0.0897  0.3770 -0.0881
17357W        W36891  17.131  15.341  13.743 -0.1233  0.2256 -0.0714
17358W        W36892   4.312  11.414  10.775  0.1042  0.0389  0.0098
17359W        W36893  13.311  11.518   0.048  0.0382  0.0143 -0.1951
17360W        W36894  13.156  12.402  12.810  0.0044 -0.0528 -0.2056
17361W        W36895  15.329  13.931  13.485  0.1346  0.2031 -0.3237
17362W        W36896  17.725   1.802   9.357 -0.1915  0.1358  0.0285
17363W        W36897  12.967   8.564   2.016  0.1588  0.1151  0.0440
17364W        W36898  14.039   0.887   1.107 -0.1804  0.5232 -0.1871
17365W        W36899   8.326   5.668   1.687 -0.3951 -0.3628  0.2154
17366W        W36900  13.618   2.159  13.704 -0.0840  0.1979  0.3031
17367W        W36901  11.723  16.596   3.500  0.0607 -0.0120 -0.1184
17368W        W36902   9.439   5.496  12.994  0.2588  0.1844  0.1075
17369W        W36903   6.484  10.184   2.468 -0.1396 -0.0036 -0.0241
17370W        W36904   7.689  13.702   1.803 -0.0012  0.0529 -0.3371
17371W        W36905  15.248  10.630   2.269 -0.1746 -0.0705 -0.0616
17372W        W36906   2.419   9.833   4.232  0.1176  0.0790  0.1113
17373W        W36907  18.470   0.827  13.393  0.0539 -0.0927 -0.0770
17374W        W36908  10.006  13.240   0.688 -0.4985  0.2058 -0.3030
17375W        W36909   5.954   0.737   0.118  0.0888 -0.3225 -0.0110
17376W        W36910  19.160  12.842   0.992 -0.0444 -0.0763  0.0045
17377W        W36911  15.562   4.698   5.491  0.2111  0.0105  0.0939
17378W        W36912  10.551   1.682   0.659 -0.1698  0.0099  0.2376
17379W        W36913   7.732  13.155   0.080  0.3597  0.0862  0.1005
17380W        W36914   2.957  16.973   0.782  0.0007 -0.1710 -0.1142
17381W        W36915   7.649   9.878  12.583 -0.1204  0.2599 -0.3968
17382W        W36916  19.022  18.908   2.571  0.0046 -0.1713  0.2560
17383W        W36917   3.165   2.540   9.163 -0.0411  0.2319  0.0885
17384W        W36918  14.362  17.626  11.088  0.0150  0.0198 -0.0988
17385W        W36919   4.062   6.252   1.896 -0.1187 -0.0935 -0.0476
17386W        W36920  18.583   2.956  13.131 -0.0247 -0.2954 -0.0275
17387W        W36921  18.005  15.887   3.224  0.0334 -0.0077  0.2869
17388W        W36922  14.019  18.717  11.448  0.1249  0.2082 -0.3266
17389W        W36923   7.815  17.892   1.286 -0.1859  0.1609  0.1064
17390W        W36924  12.810   4.123  14.282 -0.1668 -0.1590  0.0711
17391W        W36925   6.900  12.014   3.090 -0.2428 -0.1771 -0.0473
17392W        W36926  13.523   1.049  10.543  0.2941  0.1383 -0.4180
17393W        W36927   8.332  14.415  13.579 -0.2009  0.1751 -0.1768
17394W        W36928  13.497  17.152  13.215 -0.0378  0.0360  0.1309
17395W        W36929   4.826  11.116   2.291 -0.0843  0.0437  0.0841
17396W        W36930   3.059   3.777  13.028 -0.0584 -0.0967  0.1458
17397W        W36931   3.963   8.768   3.701 -0.1482  0.3507 -0.3971
17398W        W36932  19.200   3.759  12.126  0.2329 -0.2314 -0.2106
17399W        W36933  18.411  11.832  10.112  0.1119 -0.4259  0.2962
17400W        W36934   8.096   3.099   2.067 -0.0096 -0.1925  0.0818
17401W        W36935   1.011  13.219  12.539  0.2093 -0.1591  0.0130
17402W        W36936  13.809   3.491  12.802 -0.2524 -0.0601 -0.0938
17403W        W36937   3.096   9.856   1.630 -0.3254 -0.0163  0.0167
17404W        W36938   9.102  18.340   3.194 -0.1416  0.1976 -0.1655
17405W        W36939   7.270   0.204  13.552  0.0826  0.1143  0.1457
17406W        W36940  17.574  13.126   2.459 -0.0742 -0.0519 -0.2165
17407W        W36941   3.655   5.075  11.144  0.1620  0.1299  0.2444
17408W        W36942  18.518   0.129  12.776 -0.2085 -0.3428  0.0886
17409W        W36943  14.958  10.971   3.937  0.2464  0.1705  0.2032
17410W        W36944   3.780  11.821   3.912 -0.2472 -0.0738 -0.1366
17411W        W36945  19.462   5.502   3.736 -0.1619 -0.2912 -0.3396
17412W        W36946  16.800  18.281   2.759 -0.0682  0.0794  0.0502
17413W        W36947  18.185   8.027   2.671 -0.1482 -0.0489 -0.0669
17414W        W36948   4.088   0.332  12.237 -0.2095 -0.0999  0.2996
17415W        W36949   6.982  14.044  11.296 -0.0470  0.2447 -0.0821
17416W        W36950   1.967  16.657   3.315 -0.0385 -0.1743 -0.0893
17417W        W36951  19.155   9.388   3.721  0.2896 -0.2161 -0.2861
17418W        W36952  18.145   1.953  12.343 -0.1281  0.0496 -0.1510
17419W        W36953  14.765   7.360   2.662 -0.3736  0.1295 -0.0725
17420W        W36954   7.036  19.413   1.360 -0.5156 -0.0493  0.1718
17421W        W36955   3.573   4.547  14.023  0.3350  0.2152 -0.1737
17422W        W36956   1.011   8.630   1.553 -0.1894 -0.2060 -0.3351
17423W        W36957  15.832   6.973  13.381 -0.1129 -0.1882 -0.3674
17424W        W36958   2.355   9.894  11.115 -0.1156 -0.1369 -0.0135
17425W        W36959   0.927   8.657  12.317 -0.2477  0.1094 -0.2285
17426W        W36960   0.593   6.893   1.565  0.0817 -0.0206 -0.0412
17427W        W36961  17.461   1.011  10.992 -0.1141 -0.2006  0.3091
17428W        W36962  10.213   2.383  12.291  0.2765  0.0291 -0.1321
17429W        W36963   2.662  14.225   1.297 -0.3065  0.1093  0.0041
17430W        W36964   4.049   3.105   0.838 -0.3061 -0.0121 -0.3440
17431W        W36965   9.078   4.873  12.453  0.2101 -0.1963 -0.2693
17432W        W36966   4.068  12.108  11.828 -0.3837 -0.3991 -0.1152
17433W        W36967   0.299   7.365  12.866 -0.1048 -0.1024  0.2976
17434W        W36968  13.132   0.955   1.272  0.1880 -0.0152  0.2048
17435W        W36969   4.229  17.036  13.726  0.1678 -0.0059 -0.1833
17436W        W36970  11.908  11.409   2.358 -0.0332  0.1621  0.0813
17437W        W36971   7.229  13.994  14.374  0.3440  0.1275  0.2009
17438W        W36972   8.000   0.744   0.741  0.0514  0.3834 -0.2191
17439W        W36973   3.174  12.533  14.175 -0.2036  0.0615  0.0241
17440W        W36974  13.493  17.702   1.080 -0.0872  0.1105 -0.2132
17441W        W36975   0.404  10.124   4.497  0.1726 -0.1542  0.0638
17442W        W36976  12.719   9.453  13.865 -0.1537 -0.0046 -0.0616
17443W        W36977  18.652   7.569   0.591  0.0036 -0.0115 -0.1150
17444W        W36978   3.643   0.776  11.815 -0.1277  0.1252  0.0842
17445W        W36979  16.016   0.932   3.332  0.0696  0.0315  0.0142
17446W        W36980   9.781  17.661   0.728  0.0249 -0.0327  0.2662
17447W        W36981   3.820   1.964   3.924  0.0107  0.2757  0.4718
17448W        W36982   3.985   1.023  12.098  0.0153 -0.0158  0.0007
17449W        W36983  12.707   1.944  14.120  0.2670  0.0151 -0.2244
17450W        W36984   6.883   4.993  13.730 -0.0164  0.1073  0.2570
17451W        W36985   8.642   5.682   3.259  0.0212  0.0529 -0.3257
17452W        W36986  13.965  10.949  10.673 -0.2216 -0.0367 -0.2626
17453W        W36987   4.064   9.740   0.603 -0.0671  0.0580 -0.0302
17454W        W36988   5.282   7.792   2.739 -0.1351  0.1184  0.0919
17455W        W36989   9.049   4.075  14.101 -0.3613  0.0621  0.0874
17456W        W36990  18.909  10.442  10.648  0.1738 -0.2084 -0.0483
17457W        W36991  11.105  16.333   0.954 -0.3889 -0.0287 -0.0729
17458W        W36992  12.949  15.488   4.471 -0.2090  0.0474  0.3523
17459W        W36993   6.986   5.434  12.446  0.2722 -0.1631  0.3821
17460W        W36994   9.732  12.904  12.208 -0.0411 -0.1252  0.1620
17461W        W36995  15.191   3.072   2.300  0.0250 -0.0010 -0.1896
17462W        W36996   4.174  11.404  10.001 -0.2383 -0.2324 -0.0604
17463W        W36997   5.945  18.422   4.830 -0.0434  0.3522 -0.0560
17464W        W36998   0.982  15.393  10.365 -0.2214  0.0543  0.0091
17465W        W36999   1.913   6.169  14.313  0.1508 -0.1479  0.0395
17466W        W37000   7.633   4.352  11.977  0.1123  0.0570  0.0386
17467W        W37001   2.622  17.375   4.205 -0.2433 -0.2204 -0.1173
17468W        W37002  13.308   6.451   3.892  0.1804 -0.0927 -0.0158
17469W        W37003  12.579   9.821   1.755 -0.1372 -0.1832 -0.0216
17470W        W37004   6.459  10.422   5.476 -0.2680  0.2272  0.0053
17471W        W37005  10.127   1.043   2.889 -0.0510 -0.1317  0.0153
17472W        W37006  15.268   3.442   3.174  0.1740  0.1108  0.1695
17473W        W37007   6.065   8.615  13.336  0.2056 -0.0457  0.2397
17474W        W37008   4.690   9.654   3.478 -0.0325 -0.0125 -0.2759
17475W        W37009   2.843  15.800  11.538  0.4166  0.0648  0.4033
17476W        W37010   9.280  12.933   0.782 -0.1401 -0.1798 -0.3328
17477W        W37011   2.507   0.622  13.560 -0.2872  0.2657  0.2834
17478W        W37012  17.876   5.518   5.295 -0.4444  0.2611 -0.2878
17479W        W37013  15.936   1.789  12.191 -0.0485 -0.0255  0.3175
17480W        W37014  14.284  11.862   0.880  0.1230 -0.2475 -0.0767
17481W        W37015  19.373   9.294   2.924 -0.2843 -0.1326 -0.0181
17482W        W37016  15.002  10.931  10.453 -0.0850  0.0370 -0.1092
17483W        W37017  10.257  13.915   5.265  0.2841 -0.1205 -0.2124
17484W        W37018   4.669   2.507   0.193 -0.0246  0.3540  0.1164
17485W        W37019  17.912   8.360  11.625  0.1445  0.0185  0.2105
17486W        W37020   2.588   6.236   0.373 -0.0180  0.2374  0.1330
17487W        W37021   1.309   0.215   3.555  0.3458  0.1104  0.2192
17488W        W37022   6.127  12.300  12.313  0.0265  0.1107  0.2302
17489W        W37023   4.515  15.305   0.702 -0.0116 -0.2397 -0.2780
17490W        W37024   7.104   4.528  12.494 -0.3391  0.1110 -0.0707
17491W        W37025   9.758  13.549   1.879  0.0482  0.3231 -0.0866
17492W        W37026   2.497   8.109  12.737  0.0150  0.1275 -0.1217
17493W        W37027  13.559  12.601  12.100 -0.1230  0.0529  0.2619
17494W        W37028   8.096   1.671   3.363 -0.1325 -0.0036 -0.1105
17495W        W37029  15.243  12.921  12.301 -0.2324  0.4185  0.0252
17496W        W37030   8.014  16.940  13.870 -0.1187 -0.2366  0.1155
17497W        W37031  12.218   5.712  13.684 -0.2904 -0.0461  0.0458
17498W        W37032   2.128  18.006  13.847  0.3329  0.0420 -0.2406
17499W        W37033  16.198   3.728  10.471  0.2373 -0.1084  0.2027
17500W        W37034   4.645  14.457  13.230  0.0161 -0.1130  0.0873
17501W        W37035  19.123   4.130  11.672  0.4553 -0.1763 -0.3502
17502W        W37036   2.539  18.057   2.706 -0.0653 -0.0113 -0.0038
17503W        W37037  15.719   8.181   4.215 -0.0527  0.3023  0.3705
17504W        W37038  13.343   3.399  12.994 -0.1633 -0.3304  0.0145
17505W        W37039   8.942  17.736   9.366  0.1758 -0.1352  0.0781
17506W        W37040  15.493  15.437  11.966  0.2403  0.0738 -0.4069
17507W        W37041  18.947  11.006   2.217  0.2462  0.2058 -0.0307
17508W        W37042  16.261   1.079  13.348  0.0996 -0.0272  0.0719
17509W        W37043  10.051   8.793  11.065 -0.0947  0.2083 -0.1732
17510W        W37044   6.855   6.889  11.245 -0.1284  0.3599  0.1848
17511W        W37045  16.467  19.507  14.321 -0.0972 -0.0940  0.1652
17512W        W37046   7.201  10.443   2.590 -0.2678 -0.0291 -0.0095
17513W        W37047   3.470   8.329  10.378 -0.2041 -0.0805  0.0324
17514W        W37048  18.784   5.589   5.186  0.1758 -0.1531  0.1902
17515W        W37049  16.203   2.880   3.520 -0.2695 -0.0351  0.2100
17516W        W37050  16.763  16.696  14.022  0.0992  0.0535  0.1586
17517W        W37051  12.896   6.720   1.938  0.2904  0.0808 -0.1983
17518W        W37052  12.376  15.951   1.921  0.0786 -0.2668 -0.1990
17519W        W37053   0.348   9.260   1.579 -0.1400 -0.1911  0.2046
17520W        W37054  18.156  10.119  11.393 -0.1760 -0.1756  0.1963
17521W        W37055   9.735   7.345  11.484 -0.0859  0.2537 -0.0474
17522W        W37056  11.983  12.998   1.458  0.1876 -0.2052 -0.1211
17523W        W37057  17.289  10.234   4.455  0.1759  0.3010  0.2424
17524W        W37058  10.389   6.340  12.282  0.0136 -0.0086 -0.2163
17525W        W37059  14.475   1.987   3.782 -0.0985 -0.1249 -0.1289
17526W        W37060   9.706   1.467  13.695 -0.0844  0.1823  0.2516
17527W        W37061   7.880  14.582   3.632 -0.2336 -0.1740 -0.1133
17528W        W37062   8.049  12.141   0.991  0.1729 -0.1586  0.0767
17529W        W37063  13.090   6.549   2.384  0.2306  0.0004  0.0282
17530W        W37064   9.118   8.212   3.984 -0.2430  0.1551  0.0135
17531W        W37065   9.908  19.397  13.537  0.0406 -0.0627  0.1255
17532W        W37066  14.042  16.895  10.955  0.0050  0.0396  0.0938
17533W        W37067  19.131   0.883  12.514 -0.5089  0.0358  0.1249
17534W        W37068  19.021  12.314  11.521 -0.1373 -0.4222  0.3441
17535W        W37069   1.409  19.506  12.883  0.1192  0.0529  0.2903
17536W        W37070  17.468   6.322   4.079 -0.2381  0.1850 -0.1083
17537W        W37071  11.677   9.628   0.490  0.2236 -0.1276 -0.4599
17538W        W37072   2.524  16.127   2.279 -0.1819 -0.3552  0.1474
17539W        W37073   6.781  15.951  10.010  0.3243 -0.3445  0.0191
17540W        W37074  15.102   0.622   3.663  0.1358 -0.0578  0.0398
17541W        W37075  14.537   7.013  14.256 -0.0081 -0.0848  0.2582
17542W        W37076  17.600  12.448  13.553  0.0076  0.0604  0.0600
17543W        W37077   7.531   4.046   0.262  0.4477 -0.0620 -0.1213
17544W        W37078   1.620  14.262   2.083 -0.0114 -0.1322  0.0273
17545W        W37079   6.226   6.739  12.476 -0.0940 -0.1009  0.0832
17546W        W37080  12.903   4.096   1.938  0.2359 -0.0294  0.0379
17547W        W37081   4.185  19.442   2.423 -0.4424 -0.0074  0.2156
17548W        W37082   6.350   1.618  12.244  0.0500  0.1509  0.0354
17549W        W37083   7.535   5.361   0.463 -0.2955 -0.0346 -0.0233
17550W        W37084  16.356  13.859   2.596 -0.2316  0.1365 -0.0165
17551W        W37085   8.336  18.864  12.523  0.2863 -0.1651  0.4588
17552W        W37086   3.850  17.276  12.699 -0.2352 -0.0401  0.0537
17553W        W37087  15.506   9.350   3.148 -0.2182  0.1934  0.1343
17554W        W37088  15.649   3.544   1.331  0.1841  0.0484 -0.0378
17555W        W37089   4.058   5.163  10.700 -0.0668  0.0445  0.0752
17556W        W37090   0.244  11.767  11.248 -0.4282 -0.3821  0.1735
17557W        W37091   2.314  12.150  12.509 -0.0845  0.1389 -0.2690
17558W        W37092  13.819  11.679  13.662 -0.1317 -0.1788  0.0421
17559W        W37093  10.393   5.612  13.676  0.2642 -0.6346 -0.2411
17560W        W37094   1.094   8.174   1.370  0.0112 -0.2035 -0.0710
17561W        W37095   1.364   1.344   3.384 -0.3281 -0.2639 -0.1739
17562W        W37096  18.280   2.086  10.727 -0.0359 -0.5124  0.1924
17563W        W37097  11.210  17.377   3.013  0.1254 -0.0416 -0.1457
17564W        W37098  10.630   0.209  13.565 -0.0142  0.2494 -0.0786
17565W        W37099  15.680   2.688   1.621 -0.0150 -0.1727 -0.0964
17566W        W37100  10.156  18.201   1.674  0.2199  0.4079 -0.0773
17567W        W37101   2.076  12.726  10.972 -0.1971  0.0109 -0.1989
17568W        W37102  17.767  13.484  10.592  0.2450  0.1426 -0.0848
17569W        W37103   4.310  11.117   3.703 -0.2300  0.0001  0.0108
17570W        W37104   1.248   0.236  11.389  0.0898 -0.2507  0.0084
17571W        W37105   0.886  15.403   1.243 -0.2802 -0.1777 -0.0129
17572W        W37106   4.106   7.227  14.188  0.2943 -0.0717  0.0376
17573W        W37107  16.058   4.009  13.719  0.1081 -0.0044 -0.0610
17574W        W37108  16.142  18.804  13.070  0.0488  0.0794 -0.0811
17575W        W37109  13.189  12.214  11.453  0.1345 -0.1744 -0.1780
17576W        W37110  12.661  10.727   1.272  0.0580  0.1349  0.3610
17577W        W37111  13.302  13.356  13.362 -0.0102  0.0121  0.0237
17578W        W37112   2.770   1.695  14.262  0.2081 -0.3044  0.3613
17579W        W37113  19.092  16.476  12.026 -0.1496  0.0608 -0.1818
17580W        W37114  13.380  19.141   9.727 -0.0253  0.2169  0.0544
17581W        W37115  17.190   6.198   0.276 -0.1260  0.1949 -0.2245
17582W        W37116   1.974   4.588   4.092  0.1870  0.4085 -0.2731
17583W        W37117  19.473  16.564  11.029 -0.2010  0.0628 -0.0388
17584W        W37118  17.343  16.943   0.649 -0.1234  0.0326  0.2937
17585W        W37119   7.639   1.085  12.398 -0.3474 -0.0136  0.2058
17586W        W37120  14.758   7.728   1.439 -0.1616  0.3845  0.0463
17587W        W37121  12.873   7.154   0.090 -0.1635 -0.3143 -0.0984
17588W        W37122   5.200   4.626   1.669 -0.1813 -0.0755 -0.1027
17589W        W37123  16.640   7.088  11.783  0.0296 -0.1940  0.0987
17590W        W37124  10.061   2.665  12.668 -0.0204 -0.0047 -0.0999
17591W        W37125   9.824  18.514   1.438 -0.1827 -0.0219  0.2367
17592W        W37126  13.072   5.059  11.659  0.0622 -0.0450  0.1102
17593W        W37127  12.217   2.699   2.667  0.0038 -0.0327 -0.0347
17594W        W37128   2.839  16.075  12.119  0.1050  0.2121 -0.1436
17595W        W37129   0.718   6.533   0.738 -0.0795 -0.3772 -0.0977
17596W        W37130  13.130   8.560  10.182 -0.2335 -0.0674  0.2950
17597W        W37131  16.520  18.595  11.478 -0.0930  0.0322  0.0811
17598W        W37132   7.600   1.616   3.325 -0.0266 -0.3397 -0.4631
17599W        W37133   7.141  11.449   4.405 -0.0328 -0.0982 -0.0701
17600W        W37134   2.031   3.100   2.335  0.1528  0.1575  0.2504
17601W        W37135   0.299  17.504   2.690  0.1627  0.2361 -0.1309
17602W        W37136   2.165   6.601  12.939  0.0289  0.5850  0.0212
17603W        W37137  17.055   9.658   3.204  0.0018 -0.2144  0.2740
17604W        W37138   2.495  18.929   0.497 -0.0460  0.3603 -0.3249
17605W        W37139   0.336   9.554  12.343  0.0489  0.0504 -0.0644
17606W        W37140  13.937   5.881   0.272  0.0007 -0.3803 -0.0043
17607W        W37141  19.307  15.218   3.241  0.1281 -0.0192 -0.2199
17608W        W37142   1.931  19.491   1.165  0.0171 -0.0176  0.0305
17609W        W37143  19.238  15.656  10.919 -0.1555 -0.0085  0.3641
17610W        W37144  14.538  18.717   3.323  0.1606 -0.0645  0.0417
17611W        W37145  17.505   3.935   0.521  0.1074 -0.1923  0.0658
17612W        W37146  15.479   9.068  13.073  0.3497 -0.1858 -0.0242
17613W        W37147   3.561   7.259   1.517 -0.1184 -0.3769  0.2162
17614W        W37148   2.345  19.248  12.070 -0.0353  0.3087  0.3585
17615W        W37149   5.140   8.884   0.908  0.1661  0.1390  0.0471
17616W        W37150  15.026   8.966  11.494 -0.2051 -0.3420 -0.0917
17617W        W37151  13.253  15.897  14.047 -0.0386  0.1310  0.1555
17618W        W37152   8.991   4.797   9.827  0.1053 -0.0356  0.1385
17619W        W37153   1.825   9.266  13.914  0.3017  0.3491  0.2196
17620W        W37154  10.566  18.883  10.140  0.2745  0.2889  0.1976
17621W        W37155   0.309   2.047   3.159  0.3743 -0.2431  0.0129
17622W        W37156  14.774   3.746  14.124  0.0988 -0.2223  0.0805
17623W        W37157  10.691  17.492   0.062 -0.1543  0.1753 -0.3312
17624W        W37158   2.117   8.643   4.367 -0.1876 -0.0974  0.4283
17625W        W37159   8.389  17.003   1.754  0.0436 -0.0241  0.3398
17626W        W37160  16.986   1.234   3.010  0.1667  0.3711  0.1343
17627W        W37161  19.381   0.401   2.587  0.0209  0.0559 -0.0307
17628W        W37162   6.882  15.382   2.839  0.1135 -0.1771  0.1386
17629W        W37163  13.702  18.607  11.960  0.0348 -0.1369 -0.2071
17630W        W37164  11.415   0.951   0.017 -0.1633  0.1422 -0.0202
17631W        W37165  18.545   9.439  11.407  0.1542 -0.1619  0.1686
17632W        W37166  16.941   1.608  10.814 -0.2670  0.0904 -0.3206
17633W        W37167   3.795  16.221  11.767  0.0804  0.0899 -0.2362
17634W        W37168   9.961  13.891  14.228 -0.2202 -0.0319 -0.0374
17635W        W37169  10.816  15.304   4.887  0.0027 -0.2463  0.0291
17636W        W37170  11.262   4.226  11.545 -0.0908 -0.1312 -0.0687
17637W        W37171  12.413   0.818  11.528  0.1899 -0.0877  0.0897
17638W        W37172   4.305  10.341  11.186  0.3283  0.2581 -0.2245
17639W        W37173   1.860   3.206   1.314  0.1002 -0.0704 -0.3455
17640W        W37174  15.131   1.380   1.296 -0.1585 -0.1429 -0.0949
17641W        W37175  19.175   5.294  14.329  0.0273 -0.0508  0.0304
17642W        W37176   7.771   1.026   0.341  0.0516 -0.0542  0.2846
17643W        W37177   7.231   4.068  12.003 -0.1087  0.0211  0.0507
17644W        W37178  12.961   3.147  10.629  0.1144 -0.1089 -0.0091
17645W        W37179  18.196  17.702  10.857 -0.0457  0.1304  0.1142
17646W        W37180  16.140  18.203  14.008  0.0036  0.1034 -0.0649
17647W        W37181  12.603  11.394   3.653 -0.0375  0.1045 -0.2881
17648W        W37182   6.453  13.958  11.160 -0.2720 -0.0267  0.3386
17649W        W37183   1.705   1.329  10.452  0.0868  0.0010  0.1325
17650W        W37184  16.471  17.933  12.143 -0.0061  0.0073  0.2580
17651W        W37185  10.262   9.619   1.603 -0.0762 -0.0645 -0.3342
17652W        W37186  16.504  14.759  10.654  0.3730 -0.3414 -0.1988
17653W        W37187   3.237   7.421  12.209 -0.0535  0.2387  0.1931
17654W        W37188  14.888   1.430  14.237 -0.1285 -0.1053  0.1329
17655W        W37189   0.987  10.599  14.198  0.2750  0.0691 -0.0295
17656W        W37190   7.476   2.850   0.711  0.0158 -0.0542 -0.0412
17657W        W37191   0.846  13.818  11.705  0.1019  0.0804 -0.1743
17658W        W37192  17.632   6.062   9.908  0.2868 -0.1371  0.1422
17659W        W37193   1.938  18.123   0.374  0.2013 -0.3200  0.2236
17660W        W37194  10.623   6.875   2.491  0.5028 -0.0348  0.2076
17661W        W37195  16.496   5.911  11.999  0.2426 -0.1337  0.1334
17662W        W37196  10.814   5.716  12.304  0.2386 -0.0995 -0.2404
17663W        W37197  18.577  10.064  12.695  0.1486 -0.0765  0.3807
17664W        W37198  14.320   2.295  14.046  0.1138 -0.0157 -0.4170
17665W        W37199   0.252  13.501  11.662  0.2179  0.1850  0.0439
17666W        W37200  17.744  14.077   2.471 -0.0077  0.0110  0.0253
17667W        W37201   0.319   8.754   2.967 -0.0594 -0.0441 -0.0363
17668W        W37202   2.392   3.225  12.777  0.0348 -0.3819 -0.1239
17669W        W37203   7.128  17.806   0.800  0.1507  0.0883  0.1506
17670W        W37204   8.127   0.277  11.719 -0.4659 -0.1767  0.1399
17671W        W37205  13.255  11.371  13.038 -0.0870  0.0163 -0.1426
17672W        W37206   9.387  13.280   2.152 -0.0935  0.0574 -0.0356
17673W        W37207   2.335   0.652  10.262 -0.0528 -0.1033  0.2123
17674W        W37208  11.622  12.787  11.126  0.1986 -0.0563 -0.0247
17675W        W37209  18.857  16.114  12.786 -0.3140 -0.0219  0.0812
17676W        W37210   6.088  14.662   4.636  0.2242  0.0672  0.1986
17677W        W37211   2.374  12.881  10.048  0.4139 -0.0972  0.0766
17678W        W37212  12.461  11.690  13.967  0.0441  0.2345  0.0001
17679W        W37213  18.413   7.762   1.342  0.1029  0.0860 -0.1716
17680W        W37214  11.376   3.890  12.444  0.1943 -0.1090  0.1348
17681W        W37215  17.366  16.475  12.302  0.1558 -0.1404 -0.0453
17682W        W37216   1.650   3.186  13.371 -0.0700 -0.2700 -0.0062
17683W        W37217   6.750  11.410   1.785  0.1023  0.0303 -0.2000
17684W        W37218   2.439  14.901   2.539 -0.3365  0.1365 -0.1002
17685W        W37219  19.460  13.792   1.386  0.0286  0.1433  0.2344
17686W        W37220  18.899   7.811  12.549  0.1473 -0.0763  0.0727
17687W        W37221   6.566   0.536   0.756  0.1401 -0.1337  0.0000
17688W        W37222   0.519  18.026   3.216  0.1955  0.1085 -0.2019
17689W        W37223   0.578   5.871   4.224 -0.1506 -0.0106  0.0216
17690W        W37224   7.843  12.250   1.478 -0.0209 -0.2072 -0.0177
17691W        W37225  12.009  11.591   3.170  0.2235  0.0187  0.1964
17692W        W37226  15.715   1.770   1.203 -0.2180 -0.1435  0.0789
17693W        W37227   3.380   8.356  12.212  0.2533 -0.1712  0.0457
17694W        W37228   8.206  16.834   3.481 -0.0308 -0.4440  0.1126
17695W        W37229   8.863   7.243  10.868 -0.2398 -0.0077 -0.0697
17696W        W37230  10.325  14.081   2.533 -0.2888  0.0634  0.1536
17697W        W37231   6.422  15.483   1.659 -0.1837 -0.1320  0.1365
17698W        W37232   1.836  14.068  12.344 -0.3285  0.1882  0.1621
17699W        W37233  12.604   4.203  11.238 -0.0803 -0.2248  0.1931
17700W        W37234   9.724  18.165  12.927 -0.0460  0.2320 -0.1390
17701W        W37235  15.416   4.621  14.048  0.1912 -0.0215 -0.0429
17702W        W37236  16.352  10.682   2.683 -0.0602  0.2065 -0.1582
17703W        W37237  12.822   1.870   0.378  0.0915 -0.3570  0.1156
17704W        W37238   8.483  18.593   2.437 -0.3477 -0.0485 -0.4798
17705W        W37239  13.629   3.001  13.057  0.0600 -0.0787  0.0789
17706W        W37240  14.242   0.002  11.281 -0.2794  0.0612 -0.0263
17707W        W37241   9.652  15.338  11.862  0.2217  0.2486  0.0071
17708W        W37242  12.964  12.330   0.160 -0.3266  0.2967 -0.3456
17709W        W37243  18.949   2.554   2.305  0.1984 -0.2131 -0.0032
17710W        W37244  19.019   7.804   3.685 -0.1710  0.0855 -0.0042
17711W        W37245  19.117  12.422   0.690 -0.2766 -0.0982 -0.0705
17712W        W37246  12.885  12.664   0.859  0.1385  0.2769 -0.3504
17713W        W37247  13.719  15.932   2.220 -0.0173 -0.2644  0.1009
17714W        W37248  14.950  12.664   2.574  0.2224 -0.2381  0.0495
17715W        W37249  12.207   4.206  10.909  0.1976 -0.1239 -0.1756
17716W        W37250  17.715   9.894  14.144  0.0049  0.0075  0.2014
17717W        W37251  13.707   7.477  13.723  0.0124 -0.0090  0.4848
17718W        W37252   4.702  10.567  13.125  0.1875 -0.0469  0.0402
17719W        W37253   8.315  15.110  12.526  0.0106 -0.1880  0.3411
17720W        W37254  15.310  12.866   9.942  0.2296 -0.2699  0.0067
17721W        W37255   8.833   1.156   0.463 -0.3078 -0.1397  0.1165
17722W        W37256   3.744  12.642   2.415  0.0507 -0.1913  0.4042
17723W        W37257   4.974   5.493  10.845  0.1247  0.2847  0.0391
17724W        W37258  11.949  16.769  12.146 -0.1763 -0.1445 -0.0769
17725W        W37259  10.960  16.600  12.277  0.0965  0.3737  0.0618
17726W        W37260   8.576   3.055   3.622 -0.2428 -0.1788 -0.0395
17727W        W37261   0.234  14.419   1.397 -0.0948 -0.2747 -0.1355
17728W        W37262   9.487   2.804   3.106  0.3279 -0.0215  0.0247
17729W        W37263   5.398  10.209  12.025  0.0430  0.0960 -0.2917
17730W        W37264   6.198  17.603   1.044 -0.0139  0.2122  0.0348
17731W        W37265  17.630   8.609  14.145 -0.0793  0.2770 -0.1207
17732W        W37266   6.811  12.507   3.992  0.2587 -0.2745  0.2619
17733W        W37267  10.441   3.062  13.368 -0.1375 -0.0184 -0.3059
17734W        W37268  17.256   9.760  10.949  0.2831 -0.2022  0.2252
17735W        W37269   3.252   4.597   3.119  0.3207  0.1125 -0.0807
17736W        W37270   7.430  17.076   3.194 -0.0634  0.0059 -0.0131
17737W        W37271  16.733  13.517  11.955  0.1172  0.1864  0.0270
17738W        W37272  18.251  14.847  11.698  0.0390  0.2769  0.1365
17739W        W37273   9.568  16.884   1.212  0.1291  0.3083  0.1101
17740W        W37274  16.666  12.767   0.196  0.0901 -0.1332  0.2538
17741W        W37275   1.047   7.032  11.019  0.0452 -0.0367  0.0964
17742W        W37276  19.229   2.912  13.829  0.0904  0.0830 -0.0747
17743W        W37277   4.941   4.803   2.719  0.1559  0.0410  0.1741
17744W        W37278   4.947  17.424  13.938  0.0130  0.0933 -0.0201
17745W        W37279  18.966  14.939   2.939 -0.3181  0.0138 -0.1439
17746W        W37280   1.165  15.969   3.182  0.2343  0.0468  0.2040
17747W        W37281   5.297   0.284  10.977 -0.1965 -0.0940 -0.3490
17748W        W37282  13.206   8.915  12.178 -0.1685  0.0664  0.0220
17749W        W37283  13.907   8.483   0.624 -0.0203 -0.0103 -0.2396
17750W        W37284  18.357   5.184   2.120  0.4092  0.0523 -0.0395
17751W        W37285  18.990  16.994  12.746 -0.1746 -0.1188  0.0391
17752W        W37286  13.746  16.425  12.707  0.1311 -0.0065 -0.1559
17753W        W37287  13.563   4.665  14.002  0.0905 -0.0463  0.0274
17754W        W37288  11.146  17.961  11.273 -0.0967  0.2015 -0.0323
17755W        W37289   7.239  17.427  12.994 -0.0498 -0.2695 -0.1776
17756W        W37290  11.937  15.257  13.377 -0.0732  0.0837  0.0304
17757W        W37291  10.400   0.800   3.248 -0.0495  0.0152  0.2060
17758W        W37292  15.387  16.592  12.752  0.0576 -0.0422 -0.6957
17759W        W37293  18.974   5.573   0.721 -0.0850 -0.0099  0.2420
17760W        W37294   1.624   2.194   3.218  0.2427 -0.1129  0.2498
17761W        W37295  18.911   8.323   4.730 -0.3253 -0.0373 -0.0615
17762W        W37296   4.936   4.458  12.313  0.0065  0.1172 -0.3248
17763W        W37297  13.463   4.315  13.441 -0.2259 -0.0432 -0.0170
17764W        W37298  18.583  19.248   2.825  0.2784 -0.1410  0.3242
17765W        W37299   4.960  18.255   0.966  0.2352  0.0973  0.1953
17766W        W37300  14.132  11.050   2.724  0.0085 -0.6730  0.3366
17767W        W37301  10.572   1.628  13.646  0.5374 -0.1799 -0.1542
17768W        W37302  13.655   5.491   3.970  0.3037  0.2840  0.0449
17769W        W37303   7.692  15.748   1.126 -0.0670  0.0046 -0.0308
17770W        W37304  16.446   1.128  11.518  0.0248  0.0731 -0.0921
17771W        W37305  11.646  18.156  11.186 -0.0187 -0.2616  0.1184
17772W        W37306  15.011  19.263   0.806 -0.0081  0.0962 -0.0600
17773W        W37307   2.624  11.239   2.329 -0.2187 -0.1530  0.1432
17774W        W37308   8.447   8.644   3.013 -0.1874  0.0650 -0.0649
17775W        W37309   2.857   0.969  11.343 -0.2626 -0.0694  0.0691
17776W        W37310  18.399  12.154   4.142  0.1212  0.0887  0.0057
17777W        W37311  11.935  16.491  12.602  0.0361 -0.0147  0.2806
17778W        W37312  16.040  11.062   2.851 -0.1196  0.3381  0.0033
17779W        W37313  15.337  15.590   2.923 -0.0479  0.1061 -0.0801
17780W        W37314   3.842   2.432  11.559  0.1545 -0.0218 -0.0287
17781W        W37315   6.102  12.305  10.886  0.2108 -0.0263  0.0188
17782W        W37316  15.384   8.823   3.025 -0.4086 -0.0359 -0.1096
17783W        W37317  17.363  11.623  14.280 -0.0760 -0.1724 -0.1826
17784W        W37318   7.664   3.549  10.630  0.0793 -0.2069  0.0299
17785W        W37319   7.678   9.577  13.494 -0.0229  0.0089 -0.0761
17786W        W37320   3.981  11.003  10.994  0.0723 -0.0816  0.1265
17787W        W37321   9.139   1.258  12.978  0.1270  0.3760 -0.3018
17788W        W37322   0.557  19.100   2.533 -0.0381 -0.1281 -0.1043
17789W        W37323   6.881   8.374   0.912  0.1867 -0.0765  0.0848
17790W        W37324   0.070   9.808  13.884 -0.1362  0.0100  0.1607
17791W        W37325   8.618   3.756  12.452 -0.1569  0.1782  0.1668
17792W        W37326  16.435  17.912   0.641 -0.2262 -0.0533 -0.3850
17793W        W37327  18.267   9.184  11.046 -0.0085  0.1119 -0.0566
17794W        W37328  10.650   7.078  11.841  0.0572 -0.0086 -0.1724
17795W        W37329  14.734   8.896   1.031 -0.0653 -0.1431  0.1183
17796W        W37330   1.117  15.571   0.056 -0.1141 -0.0445  0.3030
17797W        W37331  13.073  18.842   3.186  0.2903  0.1634 -0.0446
17798W        W37332   1.399   6.058   2.819  0.0648  0.2825 -0.0333
17799W        W37333  18.435   8.438   3.950  0.1054 -0.0179  0.2012
17800W        W37334   2.922  17.891   3.269  0.1054  0.5021 -0.3628
17801W        W37335   5.788   5.871   2.552 -0.0287  0.0739 -0.0342
17802W        W37336   4.719   4.679   0.769  0.0711  0.1586 -0.1567
17803W        W37337  18.925  19.408  13.697 -0.0519  0.1447  0.0166
17804W        W37338   1.660   1.979  12.592  0.0215  0.0380 -0.3035
17805W        W37339  15.425  19.136   0.573  0.2304  0.1291  0.4349
17806W        W37340   9.647  15.004  13.612 -0.2213 -0.1919  0.0800
17807W        W37341   4.892  11.436  11.407 -0.1634 -0.2721  0.2083
17808W        W37342  17.720  15.568  11.943  0.1318 -0.2440  0.1719
17809W        W37343  15.427   2.174   0.267 -0.0551 -0.3661 -0.4004
17810W        W37344  14.270   6.106  13.703  0.4032  0.0731  0.0710
17811W        W37345  15.429  17.014   9.843  0.0835  0.0192 -0.0430
17812W        W37346   6.821   9.187   2.268  0.2345  0.2971 -0.0105
17813W        W37347   3.083  13.424   3.986 -0.0333 -0.3349  0.3282
17814W        W37348  18.587  11.177   2.533  0.1121 -0.0533 -0.4654
17815W        W37349  14.504   6.990  10.868 -0.0187  0.3437 -0.0364
17816W        W37350   2.332   9.274   3.618  0.0599 -0.4202  0.0498
17817W        W37351   9.878  10.863  12.587  0.0401  0.1801 -0.0302
17818W        W37352  11.391  18.878  11.943 -0.2326 -0.1162  0.0842
17819W        W37353  17.423  15.687  12.883 -0.0071  0.0903 -0.0910
17820W        W37354   5.491  18.239  12.067 -0.1717 -0.2078 -0.0965
17821W        W37355  15.429  14.175   3.295 -0.2731 -0.2847  0.4865
17822W        W37356  19.316   0.200   0.092 -0.1369  0.0669 -0.2893
17823W        W37357  18.665   9.135   1.463 -0.0183 -0.2910 -0.0317
17824W        W37358  12.076   9.065  13.776  0.1224 -0.5821  0.1307
17825W        W37359  14.933  14.830   1.730 -0.0986  0.2845 -0.2161
17826W        W37360  10.274  13.728  12.908  0.1516  0.3247 -0.0154
17827W        W37361   8.120  12.650   0.929 -0.3409  0.1093  0.0563
17828W        W37362   3.528  14.631   0.478 -0.0451  0.0760 -0.1217
17829W        W37363  14.261   9.513  11.225 -0.1624  0.1858 -0.0451
17830W        W37364  13.068   4.579   1.215  0.0663 -0.2189  0.0476
17831W        W37365   9.947  17.757   2.903  0.1745  0.1594  0.1818
17832W        W37366  16.512   5.091  11.971  0.0417  0.0325  0.1075
17833W        W37367  19.370  11.457   0.983 -0.0697  0.0189  0.0976
17834W        W37368   1.709   5.855  11.292  0.0072  0.0635  0.0901
17835W        W37369  11.315   4.195  12.863 -0.2085 -0.2287 -0.0548
17836W        W37370   3.774  11.566  12.751  0.0593 -0.0832 -0.4315
17837W        W37371   8.015  14.671   0.985 -0.1651  0.3069 -0.3552
17838W        W37372   9.446   1.323   9.547  0.1124  0.0171 -0.0173
17839W        W37373  19.311  12.234   3.054  0.1178  0.1072  0.1570
17840W        W37374  18.912   6.356  12.937 -0.1239 -0.1144  0.2142
17841W        W37375  13.735  17.428   1.956  0.2211  0.2842 -0.2354
17842W        W37376  10.196  11.602   4.496  0.3929 -0.1491  0.0178
17843W        W37377  10.654  16.877  11.945  0.0410  0.3029 -0.1441
17844W        W37378  17.722  17.736   2.459  0.2343  0.0934 -0.0880
17845W        W37379  11.732  17.288   0.222 -0.2182  0.0044 -0.0303
17846W        W37380   3.183   5.979   0.997 -0.0844 -0.1679 -0.0574
17847W        W37381  17.388   1.683   1.752  0.0615  0.1602 -0.2575
17848W        W37382   0.519   1.936  12.114  0.1189 -0.0721  0.1059
17849W        W37383  11.247  12.333   2.258 -0.0521 -0.0949 -0.2836
17850W        W37384  18.790  11.936  11.800 -0.0504 -0.1821 -0.0027
17851W        W37385  15.538  10.803  12.197 -0.1639  0.1719 -0.1061
17852W        W37386   2.616   0.602  14.303  0.1774 -0.1729 -0.1518
17853W        W37387   7.976  19.300  10.332 -0.2034  0.1246 -0.0118
17854W        W37388  19.312   3.599  13.004  0.0946  0.1629 -0.0731
17855W        W37389  11.924  18.457  12.812  0.4270  0.0333  0.1028
17856W        W37390  11.435  15.101  12.695  0.0885  0.0507 -0.0674
17857W        W37391   6.868   6.632  10.792 -0.0189  0.2531 -0.2946
17858W        W37392  16.299   6.979   1.570 -0.0274  0.1872 -0.0539
17859W        W37393  12.521  10.264  11.908  0.0539 -0.1205 -0.0670
17860W        W37394   3.654   8.040   0.966  0.0040  0.1704  0.0748
17861W        W37395   3.803   9.856   2.463  0.3936  0.0480 -0.1090
17862W        W37396   6.552   1.068   2.079 -0.0620 -0.0177 -0.2414
17863W        W37397  13.984  15.225   5.356 -0.1484 -0.1144 -0.2529
17864W        W37398   3.270  10.691   2.543  0.2260 -0.1357  0.0613
17865W        W37399  16.169   9.934   1.077 -0.0709  0.2311  0.1075
17866W        W37400   1.147  16.033   1.368 -0.0009 -0.1448  0.1731
17867W        W37401   4.428   6.574   2.901  0.3992  0.1344  0.3068
17868W        W37402   3.790   1.572  13.550  0.2155  0.1563 -0.2147
17869W        W37403   0.614   5.007   1.640 -0.1389  0.1108  0.0576
17870W        W37404  16.445  10.615  11.162  0.0963  0.3404  0.0818
17871W        W37405  14.735  15.640   0.351  0.2318 -0.0177  0.1175
17872W        W37406   1.673  17.126  14.340 -0.2713  0.0313  0.1248
17873W        W37407  16.236  17.989   9.563 -0.1989 -0.0180 -0.1648
17874W        W37408  12.503  17.211   3.107 -0.1321 -0.1999 -0.0973
17875W        W37409   4.153  19.510   0.570 -0.2819  0.2593  0.0450
17876W        W37410  14.711   8.364   2.723  0.2018  0.2086  0.0404
17877W        W37411   6.101   9.803   0.024 -0.0205  0.0552  0.1405
17878W        W37412  12.628  13.933   3.617 -0.0072 -0.2993 -0.0243
17879W        W37413   4.934  14.710  13.819 -0.0292 -0.0483 -0.7186
17880W        W37414  15.165   9.937  13.043  0.1377 -0.1763  0.1367
17881W        W37415   0.978   6.789  13.486  0.1702  0.1389  0.0488
17882W        W37416   1.313   2.325  11.904 -0.0785  0.2802 -0.2725
17883W        W37417  16.440   7.448  13.321  0.1995  0.4729  0.1206
17884W        W37418   7.186   6.772  12.818  0.0694  0.2102 -0.1902
17885W        W37419   7.477  18.338  13.552  0.0009  0.4220  0.3806
17886W        W37420   8.626  11.307   2.388 -0.4633 -0.0492 -0.1132
17887W        W37421  12.832   4.432  10.360 -0.1697 -0.0238 -0.3949
17888W        W37422  16.824   7.263   4.014 -0.2897 -0.0083 -0.2402
17889W        W37423  15.727  17.332  10.656  0.2454 -0.0922 -0.0385
17890W        W37424   2.986   5.404   1.349  0.1069  0.1259  0.4927
17891W        W37425   9.296  16.852   0.406 -0.1375  0.0809  0.2531
17892W        W37426   6.843  17.722  13.479  0.0219  0.2175 -0.0144
17893W        W37427   8.690   7.681   2.126  0.0786  0.1872  0.0530
17894W        W37428  13.085   4.685   1.701  0.2247 -0.2174  0.0090
17895W        W37429  14.940  11.286   3.495  0.1172 -0.0650 -0.0386
17896W        W37430   0.663  13.025   1.330 -0.0408 -0.0993  0.2988
17897W        W37431  10.533   5.609   0.043 -0.3323 -0.0431  0.2758
17898W        W37432  17.837   9.763  10.243  0.0125 -0.2125  0.0987
17899W        W37433  15.169   9.113  12.689  0.1335  0.0463 -0.0242
17900W        W37434  17.150  10.999   3.073  0.0741 -0.2679  0.0001
17901W        W37435  17.008  17.018   3.001 -0.3737 -0.3439  0.0540
17902W        W37436   1.323  13.625   1.309  0.2183  0.0431  0.2513
17903W        W37437   4.143  11.535  13.558 -0.1197  0.0260  0.0551
17904W        W37438   5.924   8.423   0.045  0.1513  0.2600  0.1431
17905W        W37439   4.993  12.725   3.710 -0.0246 -0.0826  0.0684
17906W        W37440  12.170  15.719   0.767  0.2587  0.0717 -0.2637
17907W        W37441  18.599   4.704  10.101  0.2000 -0.1448  0.0886
17908W        W37442  10.924  17.638  13.576 -0.0140  0.1937 -0.3059
17909W        W37443   2.855  15.117  14.124  0.2064  0.2933 -0.0039
17910W        W37444  18.605   8.425  13.266 -0.0771 -0.2355  0.0833
17911W        W37445  14.744  13.617   0.374  0.2616  0.0052  0.1224
17912W        W37446   6.509   4.414   2.561 -0.3795 -0.0509  0.1039
17913W        W37447   3.708  11.709  13.701 -0.3025  0.0117  0.1100
17914W        W37448   9.449   7.990   0.387  0.2060 -0.3650  0.1214
17915W        W37449  18.707  16.555   3.564 -0.2286 -0.0393 -0.1267
17916W        W37450  18.584  11.248  11.198  0.1728  0.0116  0.1239
17917W        W37451  19.335  17.735  13.947  0.0415  0.0815 -0.1185
17918W        W37452   3.737   3.676   1.460 -0.1808  0.1591  0.4022
17919W        W37453   1.243   0.274   0.488 -0.3142  0.3813 -0.0040
17920W        W37454  17.989  11.858  10.772  0.0327 -0.1470  0.3322
17921W        W37455  19.134   1.820  14.154 -0.2075  0.1583  0.0949
17922W        W37456   5.229  14.563   2.661  0.0879 -0.0402  0.1869
17923W        W37457   2.726   1.371  12.850  0.2769 -0.1249  0.0087
17924W        W37458   0.521   0.299   3.680 -0.1428  0.2376 -0.4915
17925W        W37459   9.948   5.612  14.281  0.2223 -0.0398  0.0644
17926W        W37460  11.709  11.269   2.918 -0.1314  0.3599 -0.2065
17927W        W37461  17.078  18.203  11.461  0.2070 -0.3171  0.0401
17928W        W37462  11.315  12.855   9.728 -0.2848  0.0339  0.0218
17929W        W37463  11.793  16.361  11.235  0.0767  0.2666 -0.3888
17930W        W37464  11.283   9.346   3.326  0.2658 -0.1862  0.3527
17931W        W37465   4.058  11.355  11.296 -0.0280 -0.2046  0.1492
17932W        W37466  12.076  11.579  14.259 -0.1240  0.0743 -0.0151
17933W        W37467   8.533   1.299  11.709 -0.0135  0.0299 -0.4013
17934W        W37468  11.909   6.165  10.872 -0.1086  0.3525  0.1012
17935W        W37469   6.944  14.593  10.861  0.0971  0.1354 -0.2944
17936W        W37470  18.781  10.586   3.077 -0.0052 -0.2872 -0.1697
17937W        W37471  13.426   9.002  11.352  0.1759 -0.3693 -0.4041
17938W        W37472  14.832   7.851   2.738  0.2726 -0.2058 -0.3121
17939W        W37473  11.827   4.100  13.346 -0.1170  0.0654 -0.2525
17940W        W37474   4.275   3.029  14.025  0.1029 -0.0095  0.0038
17941W        W37475   7.542   1.551  13.646 -0.1714 -0.3217 -0.2537
17942W        W37476  15.401  12.113   1.933  0.1875 -0.2169 -0.1606
17943W        W37477   1.454  14.979  12.386  0.0473  0.1085  0.1147
17944W        W37478   0.669   5.380  12.753 -0.1369  0.2207  0.2987
17945W        W37479  13.514   1.679  11.147  0.0748  0.3357 -0.2645
17946W        W37480   5.425  13.438  13.634 -0.1610  0.3641  0.2881
17947W        W37481   5.574  13.854   0.126  0.1748 -0.1671 -0.3111
17948W        W37482   8.824  15.124  11.168  0.0695  0.0004 -0.2443
17949W        W37483   8.556   9.339   1.242 -0.3955 -0.1697  0.3758
17950W        W37484   7.958  11.257   0.909 -0.1244  0.0126 -0.0186
17951W        W37485  18.867   3.163   3.066  0.1088 -0.0472  0.0592
17952W        W37486   2.741  15.738   1.275 -0.2087 -0.0078 -0.1626
17953W        W37487   4.541  14.432   3.034 -0.0934 -0.2127 -0.0312
17954W        W37488   8.741   3.444   2.441 -0.2407  0.2259  0.3304
17955W        W37489  16.616   7.866   2.884 -0.0690  0.2154  0.0768
17956W        W37490   5.967   8.364   1.040 -0.0515 -0.0445  0.1692
17957W        W37491  12.987   3.195   3.696  0.5386  0.0366 -0.1571
17958W        W37492   1.640   0.724   1.679 -0.4570 -0.4931 -0.2176
17959W        W37493   8.241  12.382  11.902  0.2949 -0.1819 -0.1256
17960W        W37494   9.823   8.558   1.903  0.0850 -0.2187 -0.1841
17961W        W37495  14.692   4.429   0.168  0.0141  0.2826  0.1742
17962W        W37496   9.287  12.651   3.931 -0.1335  0.0708  0.0374
17963W        W37497   1.835  13.739  13.987  0.1940 -0.2784  0.1125
17964W        W37498  17.614  18.508   1.191  0.0129 -0.2172  0.1899
17965W        W37499  17.125   8.304   2.632 -0.1346  0.1048 -0.0089
17966W        W37500   3.271  15.087  12.716  0.0757  0.0223 -0.0080
17967W        W37501   8.941  18.991   3.792 -0.1973 -0.0169  0.0087
17968W        W37502  12.416  13.315   3.179 -0.2484  0.0881 -0.2556
17969W        W37503   6.632  10.581   9.615  0.1834  0.2479  0.1262
17970W        W37504  17.544  15.484   1.874  0.0410  0.1488  0.0133
17971W        W37505  14.898  13.008   1.626 -0.1633  0.1467 -0.0686
17972W        W37506   5.306   0.535   0.211  0.1208 -0.2643  0.0168
17973W        W37507   5.728   5.548  13.667  0.0110  0.2435  0.4610
17974W        W37508  13.595   8.091   3.767 -0.1268 -0.1414 -0.0813
17975W        W37509  13.743  12.313   4.397  0.1975 -0.2102 -0.1941
17976W        W37510  12.829  17.643  11.197 -0.0976  0.4116  0.0487
17977W        W37511  10.789  19.397  12.109  0.0332 -0.0527 -0.2089
17978W        W37512   2.329   1.040  11.453  0.1337 -0.1520  0.1833
17979W        W37513  15.823  15.399   2.968 -0.1674 -0.1543 -0.0421
17980W        W37514   9.784  14.842   1.866  0.1655  0.3408  0.0214
17981W        W37515   7.125  12.167   2.179 -0.1332 -0.0676 -0.0622
17982W        W37516  13.151  16.755   0.915 -0.0370 -0.1716 -0.2037
17983W        W37517   3.602   3.840  11.697  0.0676 -0.0756  0.1012
17984W        W37518   8.592   1.981  11.901  0.4316  0.2149  0.0403
17985W        W37519  17.317  16.607   3.324  0.2045 -0.1691  0.0012
17986W        W37520  16.475  14.844  14.238 -0.2169  0.0952  0.5105
17987W        W37521  16.875   8.106   2.161 -0.0557 -0.2032  0.1583
17988W        W37522  17.832   8.216   1.793 -0.2149  0.1574 -0.1595
17989W        W37523  15.907   6.450  11.792  0.2888  0.4617 -0.0204
17990W        W37524  11.326  18.516   0.869 -0.3678 -0.3271 -0.1048
17991W        W37525   5.162  13.637   0.091  0.1430 -0.0903  0.0754
17992W        W37526  18.023  14.011   1.987  0.1089  0.1814  0.1427
17993W        W37527  14.723  18.975   2.100  0.0357 -0.0969  0.1723
17994W        W37528   7.807  12.224  13.578 -0.4167  0.0185  0.1986
17995W        W37529  13.898   9.180  11.191 -0.1704  0.1495 -0.0785
17996W        W37530  11.403   4.716  13.657 -0.2098 -0.0776  0.1239
17997W        W37531   8.956   9.454   0.597  0.1881  0.2435  0.1285
17998W        W37532   7.198   3.164   1.023 -0.2463 -0.1044 -0.1718
17999W        W37533   0.097  15.429   9.627 -0.1283 -0.2557  0.2637
18000W        W37534   8.729  10.313   1.602 -0.0623 -0.2096  0.1417
18001W        W37535  11.288   2.200  14.152 -0.4262 -0.0835 -0.0992
18002W        W37536  10.584  14.082  13.713  0.0060 -0.2870  0.0569
18003W        W37537   8.919   0.285  12.771 -0.2300 -0.0486  0.2879
18004W        W37538   2.811  17.730  14.274 -0.1346  0.0618 -0.2178
18005W        W37539   1.159   4.688   0.809 -0.2140  0.2676  0.0546
18006W        W37540   9.643   3.003   9.605 -0.0508 -0.0937 -0.2780
18007W        W37541  16.978   9.727  13.660  0.2484 -0.0172 -0.0123
18008W        W37542   6.799   9.172   3.492 -0.1415 -0.2780 -0.1230
18009W        W37543  17.143   4.907  14.226 -0.1762  0.1414  0.0731
18010W        W37544   5.472   2.783   1.357 -0.1407  0.3929 -0.0620
18011W        W37545   3.841  14.456  11.550  0.0948 -0.1075  0.1770
18012W        W37546   0.769   0.728  13.463  0.0074 -0.3382  0.0811
18013W        W37547  18.415   6.453  11.469  0.1952  0.4000  0.1188
18014W        W37548  14.887   2.750  13.994 -0.3155  0.0306  0.1650
18015W        W37549   2.267   6.772   1.483  0.0675 -0.0102 -0.2569
18016W        W37550  17.656  18.077   3.280 -0.0904  0.0546 -0.0752
18017W        W37551  16.754   4.260  12.566 -0.3248 -0.1327  0.2130
18018W        W37552   2.467   5.562   3.452 -0.3776 -0.2137 -0.0053
18019W        W37553   1.308   5.547   0.475  0.2035 -0.0284  0.1035
18020W        W37554  19.212   9.659  10.714 -0.3218  0.1590 -0.0186
18021W        W37555  13.486   0.940   2.742 -0.2310 -0.0243 -0.4629
18022W        W37556   4.076  16.558  13.644  0.1465 -0.1383 -0.1564
18023W        W37557   4.762   3.976  11.197  0.0860  0.4105 -0.0923
18024W        W37558  12.225  15.953  10.476  0.1388 -0.4789 -0.3613
18025W        W37559  16.636   9.633  11.966  0.0118 -0.1116  0.1284
18026W        W37560   5.697   0.156   3.062 -0.1199  0.0164 -0.1369
18027W        W37561  17.119  11.080  12.271 -0.0532 -0.2552  0.0621
18028W        W37562   5.361  11.011  12.426  0.3913 -0.0478  0.3291
18029W        W37563   2.495  14.271  14.297  0.0871  0.0858 -0.0758
18030W        W37564   5.273  10.216  11.269  0.1943 -0.2305  0.0627
18031W        W37565  17.903   9.355  13.580 -0.0494 -0.0479 -0.2178
18032W        W37566  15.177   6.188  13.317  0.1477  0.0081  0.0081
18033W        W37567  16.229  13.026   1.285 -0.1312  0.1688 -0.1055
18034W        W37568  17.093   5.774  12.981  0.0596 -0.2259 -0.2763
18035W        W37569  11.586   2.333   3.842 -0.1004 -0.0469 -0.0581
18036W        W37570  15.524  15.413   2.029  0.0549 -0.1718  0.0372
18037W        W37571  10.307   7.018   0.151 -0.2028  0.0648  0.0336
18038W        W37572   8.101  14.301   3.982  0.1484  0.0674 -0.2952
18039W        W37573   5.859  12.661  13.931  0.0273  0.2850 -0.3360
18040W        W37574  16.220  17.299  10.661  0.0860  0.0381  0.1665
18041W        W37575  18.692  14.659  11.668 -0.1824  0.1707 -0.0017
18042W        W37576   7.473  11.741   9.588  0.0923  0.1095 -0.1276
18043W        W37577   2.016   6.546  13.965 -0.1376  0.1860 -0.3159
18044W        W37578  12.111  11.111   3.335  0.1739  0.2865 -0.0112
18045W        W37579   1.373   2.111   2.168 -0.0551  0.0160  0.0094
18046W        W37580  10.358   8.431  10.676 -0.0539 -0.2656  0.1883
18047W        W37581   5.609   5.719   0.149  0.1438  0.3100  0.2683
18048W        W37582   3.278   8.153  11.090 -0.1175  0.1246  0.3350
18049W        W37583  19.169  16.897  11.780  0.1798 -0.3827 -0.3790
18050W        W37584   0.004   8.616   1.165  0.0744  0.0489  0.2644
18051W        W37585   9.174   3.358  11.812  0.3177  0.0891  0.1557
18052W        W37586  10.585  15.989  12.461  0.0120 -0.1919 -0.2364
18053W        W37587  14.099  10.212  12.203  0.4711  0.1259 -0.0240
18054W        W37588   8.034   1.234  11.885 -0.1221 -0.2234 -0.0734
18055W        W37589   3.979   4.656  12.363  0.1295 -0.3090 -0.5127
18056W        W37590   7.285  12.242   4.828 -0.2779 -0.0858  0.1317
18057W        W37591  13.022   3.499  12.490  0.0563  0.1054  0.0568
18058W        W37592   4.418  10.647   3.673  0.0637  0.0825  0.1112
18059W        W37593   0.616   3.699   0.372  0.0591  0.0153 -0.2055
18060W        W37594  13.678   6.793   3.748 -0.1015 -0.0558 -0.2067
18061W        W37595  16.610   6.984   5.299 -0.1155 -0.3390  0.1401
18062W        W37596  15.439  11.555   0.565  0.1476  0.1022 -0.1841
18063W        W37597   9.500  11.320   0.107 -0.1357 -0.0263  0.0839
18064W        W37598  12.465   6.486   3.756 -0.1062  0.1231 -0.0880
18065W        W37599  17.831   6.542   2.949 -0.3173  0.0009 -0.0106
18066W        W37600  16.832  10.828   3.461 -0.2402  0.1680  0.3449
18067W        W37601  18.569   8.777  12.925 -0.1059 -0.3327  0.2751
18068W        W37602  16.743  16.139   0.972  0.0123 -0.2704 -0.2023
18069W        W37603  13.111  17.801  13.290  0.0162  0.0951  0.1806
18070W        W37604   2.208   3.841  10.379  0.0650  0.0198  0.3068
18071W        W37605   9.885  12.573   2.513  0.1542 -0.0016 -0.2438
18072W        W37606   7.419   3.709  13.835  0.0310 -0.1988 -0.0847
18073W        W37607  12.743   4.358  13.865  0.1221 -0.1537  0.0822
18074W        W37608  12.967  11.093  11.187  0.0186  0.1009 -0.1862
18075W        W37609  14.563  10.505  12.294  0.0060 -0.2304 -0.1792
18076W        W37610   4.555   0.033   1.015 -0.0606 -0.0070  0.0849
18077W        W37611  16.113   7.101   2.035 -0.0669  0.4037 -0.4877
18078W        W37612   6.168  17.826  10.633  0.1255  0.1318 -0.2549
18079W        W37613  19.235   5.920   1.810 -0.0924 -0.2742  0.0149
18080W        W37614  16.635  14.844  12.390 -0.3114  0.1347  0.1511
18081W        W37615   6.848   4.390  14.306  0.0331  0.0314  0.1659
18082W        W37616   5.973   7.343   5.026  0.1360 -0.0808 -0.0930
18083W        W37617   6.862   6.024   4.304  0.1320 -0.0733 -0.1466
18084W        W37618   3.802   7.671   2.975 -0.0511  0.0233  0.0538
18085W        W37619  15.532   8.373   2.245 -0.1758 -0.0669  0.1304
18086W        W37620   2.536   8.828   0.795  0.0723 -0.1462 -0.0450
18087W        W37621  11.188   6.654  12.515  0.0555  0.0910  0.0600
18088W        W37622   8.103  18.817   3.031 -0.1270 -0.3626  0.0391
18089W        W37623   3.149  19.275  11.968  0.0628 -0.2826 -0.1995
18090W        W37624  17.978   3.867   1.220  0.0671 -0.1264  0.1103
18091W        W37625   8.616   7.095   2.347 -0.3730  0.1211  0.3561
18092W        W37626  15.228  17.437  10.801 -0.1436 -0.1194  0.1132
18093W        W37627  11.118  17.062  12.370  0.4484 -0.0959  0.0772
18094W        W37628   0.232   6.604   2.292  0.3356 -0.0239 -0.1726
18095W        W37629   9.140   1.823   0.951 -0.2194  0.3899 -0.2151
18096W        W37630  11.442  15.322   3.938 -0.1066  0.1201  0.1171
18097W        W37631  15.382   7.081   2.598  0.0448 -0.3197  0.1270
18098W        W37632  14.869  10.691  10.911  0.1091  0.0135 -0.2914
18099W        W37633   6.949   9.931   0.448 -0.3400 -0.2219 -0.2264
18100W        W37634   7.193  17.100   1.418  0.1404 -0.0291  0.0178
18101W        W37635  18.886   6.635  11.517  0.2120  0.1735  0.0183
18102W        W37636  16.274  15.924  11.995 -0.0656 -0.2483  0.1970
18103W        W37637   8.830   7.461   1.359  0.0118  0.2424  0.0226
18104W        W37638   4.516   2.430  11.306  0.1055 -0.0134 -0.0498
18105W        W37639   1.260  12.267  13.780  0.1375  0.1353  0.3063
18106W        W37640   8.813  16.591   2.310 -0.0283 -0.0123 -0.0047
18107W        W37641   9.596  18.245  10.858 -0.0175  0.1140  0.0408
18108W        W37642   3.410   3.829  10.307  0.0244  0.0237 -0.1091
18109W        W37643   7.556   7.646  12.979  0.3877  0.3632 -0.0072
18110W        W37644  17.988  15.372  12.449 -0.2517  0.1903  0.2562
18111W        W37645  14.262  13.491   3.675 -0.1167 -0.3393  0.1934
18112W        W37646   5.567   6.850  12.499 -0.1554  0.0972 -0.0391
18113W        W37647   8.556  18.350  12.496  0.0846 -0.0434 -0.1977
18114W        W37648  12.355  15.677   3.058 -0.0060 -0.3804  0.1694
18115W        W37649  18.995  11.318   4.336 -0.1609 -0.0526 -0.2848
18116W        W37650  13.887   0.521  14.080  0.2120  0.2133  0.0306
18117W        W37651   4.385   8.401  13.618 -0.0523  0.2470 -0.0959
18118W        W37652  15.885   7.290  11.115  0.3253  0.1052 -0.0568
18119W        W37653  17.345   5.510  13.380 -0.2578  0.1226  0.0856
18120W        W37654  16.308   0.035  10.204 -0.0309  0.0357 -0.0545
18121W        W37655  10.706  19.184   2.612 -0.0555 -0.0309  0.0064
18122W        W37656  10.774  13.577  12.898 -0.2190 -0.1434 -0.0591
18123W        W37657  19.039  15.819   3.051  0.1868  0.1893  0.2661
18124W        W37658   2.770  11.062  10.031  0.2311  0.0747 -0.2551
18125W        W37659  17.622   4.648   1.067 -0.0658  0.0483  0.0062
18126W        W37660   7.901  14.895  10.711 -0.3728  0.1008  0.1198
18127W        W37661   5.889  12.414  12.841 -0.0313  0.1744 -0.2445
18128W        W37662   7.649  13.191  11.402  0.0739  0.0533 -0.1475
18129W        W37663   7.048  17.305   0.220 -0.0215 -0.3989  0.3001
18130W        W37664  13.503  14.529   0.527 -0.0629  0.0587 -0.0872
18131W        W37665   7.643   5.538  13.244  0.0960 -0.0405  0.2713
18132W        W37666  11.430   8.373   1.373 -0.1274 -0.3128 -0.1801
18133W        W37667  11.412  13.928  13.012 -0.1447 -0.1070  0.1290
18134W        W37668  11.195   4.968  12.186  0.0570 -0.0486  0.0108
18135W        W37669   7.553   2.986  11.673 -0.0896  0.1584  0.0408
18136W        W37670   2.519   8.711   3.661 -0.2352 -0.2207 -0.2238
18137W        W37671   6.367  16.323   2.661  0.0022  0.1431 -0.0549
18138W        W37672   4.616  15.807  11.581 -0.0084 -0.1230 -0.0076
18139W        W37673  10.854   3.172   0.914 -0.0791  0.3726  0.0204
18140W        W37674  13.597  11.936  11.145 -0.2375  0.3756  0.1249
18141W        W37675   4.526   9.057  12.193  0.0115  0.0038 -0.3562
18142W        W37676  12.655   7.037  13.249  0.2566 -0.0531 -0.0309
18143W        W37677  15.795   4.248   3.055 -0.2988 -0.2876 -0.2090
18144W        W37678  17.622   4.620   3.659  0.3012  0.0288  0.1072
18145W        W37679   5.126   2.043  11.955  0.0369 -0.1497 -0.0808
18146W        W37680   1.950   6.649   1.121 -0.1929 -0.1636  0.1176
18147W        W37681  14.418  19.484  10.589 -0.0229 -0.1057  0.3066
18148W        W37682  12.498   1.938   2.071 -0.0333  0.0106 -0.4747
18149W        W37683  14.407  16.989   2.027 -0.1632 -0.2490  0.0963
18150W        W37684  11.521   1.098  12.144 -0.0348  0.0566 -0.3474
18151W        W37685  13.491  10.817  12.135 -0.0136 -0.0362 -0.1426
18152W        W37686  13.969  14.982  10.596 -0.0797 -0.1057 -0.1057
18153W        W37687  17.393   0.604   3.307 -0.0296  0.1135  0.1124
18154W        W37688   7.236   4.685  13.451  0.1443 -0.0387 -0.0807
18155W        W37689   9.166  16.697   1.436 -0.0993  0.1967 -0.0556
18156W        W37690  14.986   2.742   1.922 -0.0239  0.0093 -0.0662
18157W        W37691   5.066   5.540  11.551 -0.1781  0.1730  0.0707
18158W        W37692  12.631  17.261  12.160 -0.0500 -0.4713  0.0181
18159W        W37693  10.026  12.383   3.597  0.2715 -0.1871 -0.0290
18160W        W37694  12.575  14.634  12.451 -0.1340 -0.0860  0.2711
18161W        W37695   6.951  17.383  12.588  0.0811  0.2491 -0.1545
18162W        W37696  16.458   2.464  14.100 -0.2892 -0.2150  0.1727
18163W        W37697  12.466  16.753   3.610 -0.1396  0.0212  0.1943
18164W        W37698   9.340   7.827   2.173  0.2136 -0.3036  0.0539
18165W        W37699  16.194  14.035  14.115  0.0180  0.0155  0.0986
18166W        W37700  12.541  17.409   1.674  0.0800  0.0341  0.1646
18167W        W37701   1.327   7.401   2.581 -0.3414 -0.1272 -0.1651
18168W        W37702   5.600   1.518  11.344  0.1509 -0.1525 -0.1133
18169W        W37703   0.161   1.056  11.519  0.0692 -0.0295  0.1428
18170W        W37704   5.125   2.276  12.521  0.0351 -0.0959  0.1748
18171W        W37705  14.722   3.167  13.807  0.2254 -0.2547  0.5697
18172W        W37706  16.022   8.585   2.391  0.1418  0.1356 -0.0656
18173W        W37707   1.439  13.180  14.181 -0.2153  0.2186 -0.3759
18174W        W37708   4.189  13.061   1.433 -0.0680 -0.0978 -0.2701
18175W        W37709  19.040   4.508   1.869 -0.1385 -0.2841 -0.0428
18176W        W37710   9.270  16.965   2.236 -0.0860 -0.1841 -0.1696
18177W        W37711   4.998   7.683  12.861 -0.0631  0.0621  0.1321
18178W        W37712  18.262  16.739   3.383  0.2154 -0.2440 -0.4416
18179W        W37713  12.799  12.783   1.425  0.0294 -0.0838 -0.0619
18180W        W37714  10.868  15.175   0.220 -0.2883  0.1122 -0.0774
18181W        W37715   4.386   2.927   0.467  0.1084 -0.1742  0.1669
18182W        W37716  14.026  11.406   0.467 -0.1380 -0.2608 -0.1746
18183W        W37717   3.755  11.738   4.992  0.1231 -0.0252 -0.3690
18184W        W37718   6.192  16.762  11.017  0.1401 -0.4731  0.1392
18185W        W37719  16.017  15.980  11.192 -0.0455 -0.0366 -0.2629
18186W        W37720   4.332   0.379   2.555 -0.2481  0.2515 -0.4566
18187W        W37721  15.067  12.694  13.887 -0.1159  0.0456  0.0616
18188W        W37722   2.239   3.938   2.373 -0.0365  0.2345  0.0118
18189W        W37723  18.252   6.808   3.054 -0.0198  0.0520  0.1483
18190W        W37724  10.998  19.354  13.551  0.2967  0.2899 -0.1764
18191W        W37725   0.954   0.616   3.688 -0.0524 -0.2844 -0.0472
18192W        W37726   5.790   9.991   4.128 -0.0677 -0.3392 -0.1987
18193W        W37727  13.709  16.794  11.300  0.1349 -0.0339  0.1655
18194W        W37728   3.449  13.178   0.965 -0.1065 -0.0643 -0.0611
18195W        W37729   9.375   8.736   0.958  0.0246  0.0634  0.1954
18196W        W37730  14.930  11.140   0.563 -0.0322 -0.0941  0.0229
18197W        W37731   2.539   0.636   2.673  0.2109 -0.0962  0.0238
18198W        W37732   4.110  10.155  10.681  0.1319  0.0367  0.1814
18199W        W37733   1.930   3.431   3.239  0.1821 -0.0926 -0.3680
18200W        W37734  14.979   3.882   4.610  0.0066 -0.0745  0.0331
18201W        W37735   7.903   7.499  13.640 -0.0969 -0.0419  0.2381
18202W        W37736  16.833  16.342  10.612  0.2479  0.3051 -0.1094
18203W        W37737  18.997   3.797  11.263  0.1606  0.1687 -0.0947
18204W        W37738   4.468  15.710  10.166  0.0209  0.0115  0.3220
18205W        W37739   8.678   8.436   2.165  0.5649  0.2194  0.3069
18206W        W37740  10.923   4.966   9.351 -0.1990 -0.0458  0.0689
18207W        W37741   1.520  12.925  11.927 -0.1539 -0.0048 -0.1399
18208W        W37742  14.178  17.672   1.320  0.0357 -0.3404  0.0842
18209W        W37743   4.025   1.795   0.258  0.4229  0.0430 -0.2113
18210W        W37744   4.266  13.343  12.828 -0.3838 -0.2045  0.0042
18211W        W37745  12.316  17.317   3.660 -0.1587 -0.3684 -0.1455
18212W        W37746  15.882   4.400   1.138  0.0692  0.0060  0.1437
18213W        W37747  13.517  14.902  10.776  0.0211 -0.1264  0.0347
18214W        W37748   5.936  14.614   3.268  0.0323  0.2787 -0.2147
18215W        W37749   3.160   9.661   3.411  0.0810 -0.0532 -0.2145
18216W        W37750  17.426   3.004   3.768 -0.0242  0.0717  0.5283
18217W        W37751   2.633  10.409  11.091  0.1536  0.3110 -0.0446
18218W        W37752  13.670   1.518  13.110 -0.0627  0.4866 -0.1007
18219W        W37753   5.938  15.723   4.454  0.1672 -0.0291  0.1882
18220W        W37754   1.101   5.874   1.866 -0.2841 -0.3725  0.1755
18221W        W37755  12.057   3.250  12.363 -0.0116 -0.1365  0.1828
18222W        W37756  12.191  12.732  12.734 -0.0943  0.0191  0.1436
18223W        W37757  12.489   4.712  12.595  0.0478 -0.0702 -0.0843
18224W        W37758  12.058   7.309   2.288  0.0176 -0.7123  0.0507
18225W        W37759  14.299   4.447  14.235 -0.4117 -0.0993  0.1452
18226W        W37760   9.267   6.563   2.284  0.1952 -0.3087 -0.0118
18227W        W37761  15.539   0.272   0.022  0.2981  0.0557 -0.2967
18228W        W37762   2.983   2.760  10.561 -0.0200 -0.3036 -0.2245
18229W        W37763   2.966   5.649   2.689 -0.0609 -0.0203 -0.2448
18230W        W37764   0.163  16.175   1.140 -0.3659  0.0639 -0.0050
18231W        W37765   7.078   0.231  10.386  0.0513 -0.1377  0.0699
18232W        W37766  19.109  18.684  14.344  0.1883  0.0169  0.1320
18233W        W37767  19.002  18.041   2.995 -0.2833 -0.0277  0.1842
18234W        W37768  13.294  18.525  13.638  0.1518 -0.2697  0.1356
18235W        W37769  16.126   9.660  12.072 -0.4276 -0.1799  0.1601
18236W        W37770  14.099   1.785  11.553  0.2328 -0.1746  0.1499
18237W        W37771  11.549  18.064   0.868 -0.0642 -0.0186  0.0202
18238W        W37772   4.898  19.022  10.782  0.2068  0.0133  0.0640
18239W        W37773  12.356  19.320  12.950  0.1165  0.0144  0.2860
18240W        W37774  19.493   4.280  13.402 -0.1270 -0.2370 -0.2532
18241W        W37775   6.863  14.805  12.572 -0.2015 -0.0445  0.1723
18242W        W37776  10.579  18.931   3.033  0.1306 -0.3647 -0.0186
18243W        W37777  19.047   7.124  13.317 -0.2367  0.0308 -0.0628
18244W        W37778  12.080  12.411   0.660 -0.0289  0.1956  0.2298
18245W        W37779   0.140   5.627   1.838 -0.4915 -0.2463  0.3156
18246W        W37780  17.578   9.735   3.261  0.0872  0.0836 -0.0638
18247W        W37781   7.963   0.789  11.531 -0.0193 -0.2224 -0.1253
18248W        W37782  16.521   5.066  13.190  0.0701  0.3902 -0.0564
18249W        W37783   7.029   6.871   1.903  0.0618 -0.3996  0.1599
18250W        W37784  16.798  17.901   9.714 -0.1129  0.1289 -0.1010
18251W        W37785  18.200   5.130   1.139 -0.0424  0.1423  0.0279
18252W        W37786   7.926   1.740   2.487  0.0563  0.0734 -0.2013
18253W        W37787   2.588   1.457   4.308  0.0840  0.0952 -0.0472
18254W        W37788  16.286  18.390   1.902 -0.2819  0.2757  0.0420
18255W        W37789   2.334   3.209  14.245  0.1682 -0.4395  0.0086
18256W        W37790   6.746  15.464   0.996 -0.1344  0.2514 -0.4440
18257W        W37791   8.529   7.504  11.775  0.3434 -0.0526  0.0824
18258W        W37792   9.417   5.374  12.535  0.0137 -0.0838  0.1766
18259W        W37793  13.886  18.977   2.541  0.1437  0.0695 -0.2131
18260W        W37794  18.351  10.199   2.805  0.1622 -0.0232 -0.0289
18261W        W37795   4.163   2.256   2.646  0.2594  0.0200 -0.0389
18262W        W37796   8.012   1.117   3.325  0.1045 -0.3073  0.0360
18263W        W37797  18.726  10.117  12.104  0.0082  0.0798 -0.0125
18264W        W37798  10.997   1.060   2.230 -0.2167 -0.1192  0.0406
18265W        W37799  18.252   7.799   3.269  0.2327  0.2333  0.2433
18266W        W37800  13.223  14.677   4.648 -0.0905 -0.0645 -0.0129
18267W        W37801  18.914  14.205   0.266  0.3725 -0.1931 -0.0752
18268W        W37802   2.057  16.332  13.141  0.1790 -0.0837 -0.2353
18269W        W37803   6.895  14.616   3.443  0.1865 -0.0249  0.1579
18270W        W37804  19.504   3.195  12.873 -0.1776 -0.0319  0.0390
18271W        W37805  12.782   6.983  11.770  0.2068  0.1868  0.2831
18272W        W37806   4.982   8.696  13.776  0.0017 -0.1723 -0.1340
18273W        W37807   5.292   3.818  11.011  0.0949 -0.1347  0.3676
18274W        W37808  16.363   3.830   9.986 -0.1154 -0.3017 -0.1782
18275W        W37809  11.927   3.250   2.404 -0.1034 -0.0190 -0.0009
18276W        W37810  14.573   2.508  12.243 -0.2039 -0.1716 -0.1682
18277W        W37811   8.092   7.236   0.456  0.3924 -0.0161 -0.2102
18278W        W37812   9.472   4.791   2.610 -0.0236  0.0860  0.0181
18279W        W37813   1.198   2.589   0.878  0.1246  0.0189  0.0751
18280W        W37814   0.350   8.021   3.559  0.1028  0.0322  0.0038
18281W        W37815   2.295   3.767  12.970 -0.0572  0.2547  0.0236
18282W        W37816  12.051   9.190  10.389  0.3962  0.0938  0.1688
18283W        W37817  15.653   8.980  12.198  0.2016 -0.1410 -0.0949
18284W        W37818  18.871   1.192  13.651 -0.1328  0.0682  0.0671
18285W        W37819   2.361  18.047   3.660 -0.2025  0.1184  0.0169
18286W        W37820   5.504   4.213   1.142 -0.0995  0.1105  0.0167
18287W        W37821  16.093  18.821   1.827  0.0875 -0.1190  0.2312
18288W        W37822   4.478  12.758   2.211  0.5090  0.0310  0.0195
18289W        W37823  15.467   7.012   3.430 -0.2317  0.1138  0.2782
18290W        W37824   4.683   4.174  13.316  0.1619  0.1621 -0.2780
18291W        W37825  16.592   0.496   0.002  0.0424  0.3666 -0.2212
18292W        W37826   2.775   0.827   0.448  0.0653  0.0837  0.0442
18293W        W37827   2.558   1.261  12.316 -0.1685  0.2023  0.1975
18294W        W37828   8.834   2.871   2.628  0.2075 -0.0034 -0.0884
18295W        W37829   2.395  16.724   2.982  0.0294 -0.0150  0.0166
18296W        W37830  17.465   1.434   3.154 -0.0695 -0.1206 -0.1509
18297W        W37831  19.514   4.759  13.090  0.2009  0.2013  0.1390
18298W        W37832  17.191   2.823  11.952  0.1191 -0.1900 -0.2573
18299W        W37833  16.520  13.909  11.598  0.1665  0.1212  0.0687
18300W        W37834   7.052   2.447  10.946 -0.4124  0.2472 -0.0469
18301W        W37835  15.404  15.510   3.913  0.0053 -0.3123 -0.1423
18302W        W37836   7.115  16.260  13.450 -0.2979  0.0688  0.2329
18303W        W37837   3.343   5.882   4.957 -0.0508 -0.1873  0.1963
18304W        W37838   4.891   6.403  13.262  0.0868  0.0179  0.1862
18305W        W37839   2.490  14.449  13.816  0.5880  0.0037 -0.1165
18306W        W37840  12.459   9.724   1.285 -0.1837 -0.2918  0.0388
18307W        W37841   0.904  14.951   1.584 -0.3645 -0.1032 -0.2868
18308W        W37842  12.130  15.165  14.087 -0.2703  0.0510 -0.3743
18309W        W37843   0.874  18.216   2.429  0.0300 -0.2477  0.0295
18310W        W37844   8.944   6.493   0.467 -0.0027 -0.0465 -0.3750
18311W        W37845  12.448   6.226   0.118 -0.1620  0.1241  0.1112
18312W        W37846  14.222  18.665  14.160 -0.0552 -0.0058 -0.2521
18313W        W37847  15.063  18.831   1.566 -0.1062 -0.3746 -0.1923
18314W        W37848   6.819  16.855  12.836  0.0521 -0.0130  0.1116
18315W        W37849   1.773  13.658   3.378  0.1347  0.1049 -0.0541
18316W        W37850  12.850   0.036   3.606  0.0122 -0.2555  0.0080
18317W        W37851  17.303   0.422   3.864  0.0526 -0.2000  0.1141
18318W        W37852   8.367  13.684   9.697  0.4231 -0.1886 -0.1235
18319W        W37853  10.823  13.065  12.814 -0.5095  0.2932 -0.3550
18320W        W37854  11.701   5.627  11.990 -0.2825 -0.3938  0.0888
18321W        W37855   5.459  13.734  12.056 -0.0820  0.1021  0.1752
18322W        W37856   0.810   9.761   0.210  0.0437 -0.1279  0.1808
18323W        W37857  11.880  13.739   3.044  0.0716 -0.0997 -0.0492
18324W        W37858   6.768  11.559  13.449 -0.0943 -0.2043 -0.0765
18325W        W37859  11.078  12.695  11.102 -0.0772 -0.3062 -0.0142
18326W        W37860  17.461  18.124  14.011 -0.1534  0.1603 -0.0255
18327W        W37861  17.138   6.673  13.439 -0.0536  0.4027  0.0071
18328W        W37862   3.251  12.460  10.608  0.1051 -0.1763  0.0378
18329W        W37863  17.304   2.584   1.046 -0.5304 -0.2831 -0.2742
18330W        W37864  18.189   7.321   4.743 -0.2324  0.4547  0.3245
18331W        W37865  15.319   4.895  10.987  0.1481  0.0762  0.1134
18332W        W37866   9.388   9.820   1.525 -0.2695 -0.0007  0.3034
18333W        W37867   3.629   2.704   0.079 -0.3233 -0.0593  0.4150
18334W        W37868   8.629   1.189  13.058  0.3051 -0.1317 -0.0485
18335W        W37869  17.290   8.445   1.236 -0.0421 -0.2063  0.2245
18336W        W37870   6.810  15.424  10.819  0.0331 -0.4333  0.0590
18337W        W37871   2.279   6.200   2.556 -0.1363  0.0501  0.2042
18338W        W37872  16.744  13.037  11.729  0.2455 -0.1682  0.3197
18339W        W37873  14.527  18.118   3.366  0.0094 -0.0884  0.2585
18340W        W37874   6.174  18.312   3.138  0.1694  0.2563  0.4895
18341W        W37875  10.906  13.144   4.516  0.0926  0.0782  0.0292
18342W        W37876  11.828  12.146  13.341 -0.1122 -0.1647  0.0684
18343W        W37877  10.183   7.422  10.698 -0.0929 -0.2986  0.0142
18344W        W37878   4.810  14.403   0.215  0.1096 -0.0060 -0.2479
18345W        W37879   3.526  16.524   3.483  0.1718  0.0935  0.0685
18346W        W37880   1.066  13.619   3.254 -0.3801  0.2031  0.2405
18347W        W37881  17.068  17.599   1.240  0.1121 -0.1649  0.1742
18348W        W37882  13.209  15.637   0.604 -0.0556  0.0335 -0.2754
18349W        W37883   6.286   4.420  11.887  0.0804  0.2508 -0.2380
18350W        W37884  12.791   9.970   0.342  0.1853 -0.1150 -0.1591
18351W        W37885   0.131  12.568   0.914 -0.0036  0.0653 -0.2251
18352W        W37886   5.312   1.614   1.876  0.0254 -0.3225 -0.0345
18353W        W37887   9.397   1.427   2.551  0.2376 -0.1239  0.3233
18354W        W37888  10.915   2.385   9.681  0.2645  0.1839 -0.1465
18355W        W37889   1.504   0.120  13.625 -0.0025 -0.3059  0.1330
18356W        W37890   6.217  14.975  13.595 -0.2288 -0.1220 -0.1569
18357W        W37891  10.500   6.535  10.809 -0.4319 -0.1865  0.0143
18358W        W37892   8.897  17.129  10.470 -0.0604  0.1251  0.0542
18359W        W37893   3.365   1.391   2.025 -0.0331  0.1453  0.0261
18360W        W37894   6.837  12.793   0.506  0.3225  0.2875  0.0117
18361W        W37895   8.040  11.398   0.291 -0.2943  0.0934  0.1783
18362W        W37896  17.520  10.797  12.768  0.1278 -0.1809  0.1365
18363W        W37897   1.312  18.446   1.070 -0.2202  0.1397  0.0570
18364W        W37898   3.264   6.518  10.821  0.0535  0.1428 -0.0598
18365W        W37899  11.048   6.901   3.869 -0.1197 -0.2206 -0.1441
18366W        W37900   5.353   9.461  11.352 -0.2594 -0.3097 -0.1656
18367W        W37901   4.003   9.502  13.554  0.1145 -0.1933  0.1287
18368W        W37902   1.568  17.364   4.216 -0.1197  0.0740 -0.1524
18369W        W37903  17.897  18.148  13.645 -0.4376  0.2629  0.2802
18370W        W37904  14.063  17.999  11.202  0.1783 -0.0300 -0.0047
18371W        W37905   9.399  10.300   5.371  0.0486 -0.0595  0.1522
18372W        W37906   3.485   0.332  12.786 -0.1580 -0.4165 -0.0451
18373W        W37907  18.128  16.473   3.772 -0.0050  0.0041 -0.0521
18374W        W37908  11.264  13.641  11.418 -0.0556  0.0781  0.1412
18375W        W37909   9.516   5.277   3.716  0.3369 -0.0029 -0.3279
18376W        W37910   0.902   6.332   1.918  0.1930 -0.1668 -0.3261
18377W        W37911   9.173   6.071  11.630 -0.0625 -0.0730 -0.2340
18378W        W37912   2.334   9.391  11.247  0.0657  0.0555  0.0383
18379W        W37913   2.364  17.515  13.825  0.0132 -0.3110 -0.0857
18380W        W37914  17.675   6.743   3.862 -0.1521  0.3354  0.0071
18381W        W37915  12.761   7.180  12.211 -0.3890 -0.1796 -0.0449
18382W        W37916   8.929  17.828   2.697  0.0635 -0.2673 -0.0199
18383W        W37917   6.721  10.547  13.759  0.2872  0.1567 -0.1473
18384W        W37918  17.965   8.622  10.482 -0.1222  0.0845  0.3151
18385W        W37919   0.524   1.795   0.042  0.1680 -0.2951 -0.0083
18386W        W37920  11.806   0.673  12.217  0.1944  0.0694 -0.0703
18387W        W37921   5.858   7.735   1.393  0.3892  0.1523  0.1951
18388W        W37922  13.960  10.858  13.316  0.1281  0.2212  0.1489
18389W        W37923   1.846  19.190  12.832  0.0236 -0.3808 -0.1790
18390W        W37924   7.629  16.067   1.561  0.0780 -0.1852 -0.0862
18391W        W37925  11.520   9.259  13.955  0.0912 -0.1281  0.2526
18392W        W37926   1.800   2.506  12.724  0.0286  0.3454  0.0270
18393W        W37927   0.461  10.579   0.865 -0.0006 -0.0457  0.1922
18394W        W37928   0.702   7.711  10.281  0.1667  0.0532 -0.1679
18395W        W37929   6.703   6.690  13.494  0.0365 -0.1447  0.0812
18396W        W37930  10.429  16.202  10.690  0.0353  0.0595  0.3335
18397W        W37931   8.995   7.920  14.037 -0.0674 -0.3833  0.0874
18398W        W37932  15.019   9.849  10.119  0.1425  0.0714 -0.1044
18399W        W37933  13.787  11.175   4.221  0.2530 -0.2712 -0.0574
18400W        W37934   8.295  11.595  13.194  0.0920 -0.2219 -0.3169
18401W        W37935   8.838   5.009   2.048  0.1538  0.0937  0.2934
18402W        W37936   0.239  14.233  10.983 -0.1508  0.3555 -0.0921
18403W        W37937  12.557   6.829  10.344 -0.1317  0.1086  0.0569
18404W        W37938   1.359  15.180   0.773  0.2899  0.1919  0.1055
18405W        W37939   1.895  12.811   4.023  0.1496 -0.1061  0.0276
18406W        W37940  15.675  14.520   0.909 -0.0503 -0.1328  0.1159
18407W        W37941  11.281   9.881  12.571 -0.1306  0.0418 -0.0136
18408W        W37942  17.407  17.109   2.666  0.2123  0.1835  0.5932
18409W        W37943   8.291  14.893  11.161  0.1100 -0.3415  0.0822
18410W        W37944  12.346  12.751  12.275 -0.0293 -0.2613 -0.0337
18411W        W37945  11.897  19.320  13.834  0.1801 -0.2159  0.2738
18412W        W37946   6.803   0.939   0.192  0.1492 -0.2607 -0.2056
18413W        W37947  15.534  18.963   3.205 -0.0377  0.1937 -0.0732
18414W        W37948  17.965   2.565  11.963 -0.1650  0.0001 -0.0098
18415W        W37949  14.145   3.731  13.132  0.2116  0.0649  0.0805
18416W        W37950   2.052   6.266  11.861 -0.1902  0.2494 -0.3353
18417W        W37951  15.714   6.203   2.401  0.3033 -0.0635  0.0325
18418W        W37952   8.308  15.614  12.389  0.1220  0.2517  0.1456
18419W        W37953  13.790   6.929   1.828  0.2151 -0.1207 -0.3297
18420W        W37954   1.123  17.072  14.330 -0.1540 -0.2803 -0.2192
18421W        W37955  17.466  10.653   1.743  0.0254 -0.0012  0.2678
18422W        W37956  17.700   5.289   3.316 -0.1815  0.0157 -0.0810
18423W        W37957   5.055   3.126  14.251 -0.0070  0.3489  0.0984
18424W        W37958  13.689  13.570   3.109  0.0541  0.3135  0.2276
18425W        W37959  14.159  18.943  13.765  0.2215  0.0286  0.0949
18426W        W37960   4.319   0.999  11.197  0.0908  0.0846  0.1966
18427W        W37961  10.215   4.046  12.454  0.2415 -0.0282  0.2479
18428W        W37962   2.767   3.314   1.213  0.2484  0.0979  0.3365
18429W        W37963   7.597   3.693   4.499  0.3392  0.0163 -0.0357
18430W        W37964   0.511  13.906   1.485 -0.0705  0.1546  0.1937
18431W        W37965   3.181   5.273  13.654  0.2136  0.3162  0.1068
18432W        W37966  11.276   1.123   9.247  0.1609 -0.0893  0.1940
18433W        W37967  11.927  14.601   2.242  0.1916  0.0024 -0.0222
18434W        W37968  11.992   8.152  13.503  0.2643  0.2774 -0.2914
18435W        W37969   8.427   5.972  11.124  0.1073  0.3243  0.2112
18436W        W37970  16.852   8.574  12.701 -0.1542  0.1477  0.2700
18437W        W37971   0.768   4.651  13.870  0.2801  0.2123  0.1389
18438W        W37972   8.339  12.637  12.342 -0.1544  0.0656 -0.2953
18439W        W37973  16.289  18.172   1.087 -0.3281  0.0136  0.0514
18440W        W37974   6.248   4.961   1.011 -0.2893 -0.0126  0.2117
18441W        W37975  17.558   4.913  13.204  0.3524  0.3900 -0.1117
18442W        W37976  12.924   0.573  11.222  0.1958  0.0230  0.2076
18443W        W37977  18.920  13.847   3.953 -0.1244 -0.1810  0.4317
18444W        W37978  18.025   5.413   3.631 -0.3771  0.0161  0.0141
18445W        W37979  13.724   9.976  13.209  0.3826 -0.0132 -0.1152
18446W        W37980  12.421  11.945   3.815  0.0952 -0.1394  0.1649
18447W        W37981   0.495  15.814   2.457  0.5028 -0.2077 -0.0939
18448W        W37982  12.796  17.279   0.625  0.2481 -0.3223  0.2111
18449W        W37983  15.997   9.535   1.483  0.1918 -0.0589  0.0082
18450W        W37984  10.754  15.766  10.995 -0.2943 -0.1491  0.2556
18451W        W37985   0.199   9.056   1.145 -0.2048  0.0586  0.0792
18452W        W37986  10.314  12.070  12.406 -0.4232  0.2630  0.0293
18453W        W37987   5.781   4.601   3.978  0.1113 -0.4077  0.2241
18454W        W37988  10.611   7.420  12.841  0.2055 -0.1928  0.1348
18455W        W37989   0.424   6.726   0.377  0.3892 -0.0340 -0.0652
18456W        W37990   0.523  10.868  11.068 -0.2417 -0.0176  0.0937
18457W        W37991  14.808   1.105  10.740 -0.0068 -0.1982 -0.4928
18458W        W37992   5.196   1.509   2.976  0.1148  0.3860 -0.1557
18459W        W37993  18.255  15.001  13.904 -0.2350 -0.2893  0.0677
18460W        W37994  12.984  14.656  10.706  0.0183 -0.3242 -0.3711
18461W        W37995  18.029  14.563  12.394  0.0936  0.0228  0.1578
18462W        W37996  15.993  16.450  10.369 -0.0698 -0.4134 -0.1548
18463W        W37997  14.674  10.352  11.283 -0.1154 -0.2924  0.0426
18464W        W37998   8.760  19.071  12.468  0.0820 -0.3962  0.4533
18465W        W37999   3.599   8.052  12.535  0.1167 -0.0159 -0.0828
18466W        W38000   3.739  15.084   1.102 -0.1305  0.0521 -0.4447
18467W        W38001   3.807   5.936   1.594  0.1922  0.1745  0.1804
18468W        W38002   6.149  12.133   1.274  0.0469  0.0955  0.1172
18469W        W38003  18.999  11.170  14.241  0.2024 -0.1472  0.2070
18470W        W38004  13.685  17.994  10.814 -0.2868  0.0406 -0.2743
18471W        W38005  17.080   1.732   3.021  0.2346 -0.1379 -0.0234
18472W        W38006   5.414   2.057   2.116 -0.2000 -0.0140  0.2200
18473W        W38007  15.474   0.531  13.615  0.0366 -0.0534 -0.0592
18474W        W38008  12.209  11.250   2.779 -0.1226  0.0934  0.1873
18475W        W38009  14.983  12.219   0.919 -0.1211 -0.1687  0.0329
18476W        W38010  18.235  11.149  12.637 -0.1617  0.1263  0.1088
18477W        W38011   3.666  12.452   3.237 -0.5152 -0.1170 -0.0319
18478W        W38012   0.494  16.612   3.200  0.0264 -0.3208  0.1310
18479W        W38013  14.179   9.778  12.432 -0.3974 -0.0989 -0.2653
18480W        W38014  10.555   8.172  13.911 -0.0276 -0.2347  0.1227
18481W        W38015   7.743  19.238   2.997 -0.2907 -0.4462  0.0934
18482W        W38016   3.642  17.155  13.415 -0.1114 -0.2824  0.1952
18483W        W38017   8.111  15.598   2.478  0.0404  0.2371 -0.1352
18484W        W38018  16.726   2.991   1.230  0.1721  0.3078  0.2774
18485W        W38019   8.875   3.692   0.789  0.3448 -0.0158  0.3380
18486W        W38020  15.246   0.947   1.550 -0.0206  0.0231  0.1973
18487W        W38021   0.756  13.546   1.321  0.1302  0.1034  0.0930
18488W        W38022   7.734   3.871   0.703  0.0786 -0.3017  0.0233
18489W        W38023   1.626  14.432  14.181 -0.2806  0.0735  0.1243
18490W        W38024   0.807  12.032  12.827  0.1855 -0.2052 -0.1526
18491W        W38025   6.693  10.824  10.417 -0.0833 -0.1980 -0.1263
18492W        W38026  15.117  12.326  11.196 -0.4063  0.1109  0.0946
18493W        W38027  19.519   9.825   3.577  0.4214 -0.1565 -0.0091
18494W        W38028   2.289  14.596   3.736  0.0293  0.0705  0.1170
18495W        W38029  14.043   4.577   1.596 -0.1860  0.2050  0.1467
18496W        W38030   3.305  14.478   3.114  0.1900 -0.1586  0.3294
18497W        W38031   2.607  18.806  10.395  0.2437 -0.2217 -0.0157
18498W        W38032   0.595  12.944   0.119 -0.1214  0.1466 -0.0800
18499W        W38033  11.205  18.706   1.356 -0.0740  0.1722 -0.1021
18500W        W38034  17.378   1.991   3.409  0.1007 -0.0979  0.2403
18501W        W38035   1.927   8.734  13.576  0.1314  0.2318 -0.1135
18502W        W38036  17.845   1.321  11.027  0.2357  0.1748 -0.0252
18503W        W38037   5.323  11.329  11.993 -0.1360  0.2040 -0.1057
18504W        W38038  11.239  10.799  12.840 -0.0739 -0.3390 -0.1274
18505W        W38039  19.487  11.900   1.865  0.3520 -0.0157 -0.0608
18506W        W38040  19.135   6.894  10.362 -0.1489 -0.0096  0.3735
18507W        W38041   6.053  11.792  13.971 -0.1006  0.0395  0.0232
18508W        W38042   8.694  18.417   4.443  0.3844 -0.2350  0.2111
18509W        W38043  17.897  13.893   0.178 -0.1650 -0.0227  0.0820
18510W        W38044   7.460  14.649  13.018 -0.0677  0.0599  0.0266
18511W        W38045  13.420   4.555   3.494  0.2570 -0.0823  0.0658
18512W        W38046  11.996  15.444   2.723 -0.1036  0.0089  0.1839
18513W        W38047  10.252   3.026  11.585  0.1404 -0.1116 -0.0076
18514W        W38048   0.496   9.110  14.188  0.1129  0.3024 -0.0752
18515W        W38049  19.493  12.576   2.313 -0.3845 -0.0354 -0.2373
18516W        W38050   7.132   1.175   2.795 -0.0310  0.0187 -0.2369
18517W        W38051  19.082   2.669  10.648 -0.1336  0.3645  0.1446
18518W        W38052  13.080  18.132   1.000  0.0813 -0.0160 -0.1777
18519W        W38053  19.006  10.959   0.377  0.0047 -0.1000  0.1124
18520W        W38054  16.935  14.975   0.150  0.0560 -0.0009  0.0352
18521W        W38055  13.411  13.519   2.521  0.0763 -0.3461 -0.3512
18522W        W38056   4.143   4.587  11.711 -0.2425  0.0443 -0.0721
18523W        W38057  14.686  18.862  11.727 -0.1863  0.0401 -0.0445
18524W        W38058   0.325  15.623   2.906  0.2188  0.0681 -0.0519
18525W        W38059  14.793   6.571  11.160 -0.0824 -0.0613  0.4426
18526W        W38060   9.038   3.988  12.767  0.1809  0.0647  0.1644
18527W        W38061  16.987   9.382  13.076 -0.0826 -0.2970  0.1240
18528W        W38062   3.708  16.194   0.136 -0.0173 -0.2107  0.2270
18529W        W38063   8.253   3.262  11.549 -0.3426  0.0599  0.0425
18530W        W38064  19.505   4.543   0.018  0.3835  0.2248  0.1224
18531W        W38065  13.945   8.670  11.525 -0.0377 -0.1879  0.0534
18532W        W38066   9.508   0.875  11.769  0.0159 -0.1507  0.0360
18533W        W38067   7.654  11.217   0.030 -0.2071  0.2807 -0.2131
18534W        W38068   4.377   1.905   4.026 -0.2467 -0.2251 -0.1777
18535W        W38069  12.493  13.355   1.225 -0.1476 -0.0166  0.0534
18536W        W38070   7.388  19.070   4.370 -0.2047 -0.0120 -0.1460
18537W        W38071   2.721   3.562  14.150  0.2276  0.1739  0.1514
18538W        W38072  11.818  15.552  11.851  0.1215 -0.2455  0.1481
18539W        W38073   2.019   3.846   0.628  0.3320 -0.1419  0.3252
18540W        W38074   7.034  16.866   2.423  0.0679 -0.1223  0.0001
18541W        W38075  14.654  15.712  12.372 -0.3242  0.2889  0.5036
18542W        W38076  11.441   5.991   0.332 -0.0136  0.1980 -0.0949
18543W        W38077  13.145  14.056  13.244  0.0180  0.2326 -0.1011
18544W        W38078  16.506  16.889  13.546 -0.0982  0.0191  0.0765
18545W        W38079  19.070  17.336  11.202  0.0440  0.0508  0.0475
18546W        W38080   8.496   8.881   1.085  0.0762 -0.0447  0.1293
18547W        W38081   7.801   3.708   3.952 -0.1023 -0.4063  0.3322
18548W        W38082   7.823  18.193  10.214 -0.1614  0.0083 -0.4922
18549W        W38083   0.565   8.878   0.243 -0.2269 -0.0265  0.1430
18550W        W38084  13.122  13.999   2.605  0.1603 -0.0275 -0.0437
18551W        W38085  11.928  11.895   2.632 -0.0510 -0.2219  0.0328
18552W        W38086   3.821  15.803  12.384  0.1612  0.1434 -0.0001
18553W        W38087  14.695   4.373  13.974 -0.1020  0.0072  0.2997
18554W        W38088  10.793  11.205  12.237  0.1170 -0.1678  0.1875
18555W        W38089   1.698   6.395  13.315  0.2784 -0.0658 -0.0884
18556W        W38090  11.644   7.444  10.995 -0.1360  0.0401  0.1522
18557W        W38091   8.372  13.369   3.166  0.3146 -0.0844  0.0155
18558W        W38092  19.428  17.371   1.860  0.0807  0.2071 -0.0646
18559W        W38093   6.901  16.236   2.698  0.0484  0.0958  0.0316
18560W        W38094  16.960  15.785   1.396 -0.0372 -0.0790 -0.1779
18561W        W38095  12.737   9.965   4.843  0.3059 -0.0473  0.0813
18562W        W38096   4.888   3.557   1.434 -0.2751  0.1739  0.1531
18563W        W38097   5.144  11.902   3.616  0.0531 -0.0481 -0.0839
18564W        W38098  14.166   6.106  13.149  0.2984 -0.1955  0.1126
18565W        W38099   0.701   9.558   1.385 -0.0224 -0.1520  0.0553
18566W        W38100  17.404   8.387   3.036 -0.1395 -0.3094  0.2452
18567W        W38101  18.696   6.008   3.715  0.0185 -0.0559  0.1683
18568W        W38102   6.565   9.918  11.479 -0.0228 -0.3004  0.3619
18569W        W38103  18.920   4.519  11.926  0.1161  0.0087 -0.2530
18570W        W38104   2.569   9.056   3.182 -0.3661  0.0682  0.3364
18571W        W38105  18.375  11.335   5.109  0.3005 -0.1114  0.2791
18572W        W38106  10.545  16.361   1.796  0.2300  0.2896  0.1557
18573W        W38107  16.586   9.181  13.250 -0.0858  0.1659 -0.1806
18574W        W38108  14.650   4.235  12.580  0.0964  0.1246  0.1379
18575W        W38109   4.287  13.379  10.945  0.0892  0.3522 -0.1343
18576W        W38110  14.954   3.547   0.158 -0.0197 -0.0565 -0.2997
18577W        W38111   0.898  19.311   1.563 -0.0564 -0.1334 -0.0141
18578W        W38112  18.819  16.506  11.494 -0.0654 -0.1179  0.3068
18579W        W38113  17.084  15.470  14.293  0.2403  0.0197  0.2133
18580W        W38114   4.890  15.076  11.374  0.1376 -0.1764  0.1664
18581W        W38115   8.309   6.859   1.903  0.2229  0.0050  0.0771
18582W        W38116  17.358   9.512   4.010 -0.2226  0.0618 -0.0453
18583W        W38117   1.941  10.655   0.888  0.1050  0.0687  0.2061
18584W        W38118  17.073   0.546   0.444 -0.0168  0.0034  0.0147
18585W        W38119   4.138  17.702   9.428  0.0784  0.0503  0.1348
18586W        W38120   4.726  15.635   3.502  0.0561 -0.3964 -0.3263
18587W        W38121  10.481   6.744  13.868 -0.2177 -0.1575 -0.0517
18588W        W38122  13.652  15.694  12.317 -0.0326  0.0674 -0.1349
18589W        W38123   9.661  15.774  11.458 -0.1373  0.4425  0.3293
18590W        W38124   8.980  13.118   3.950 -0.0633 -0.2080 -0.0671
18591W        W38125   6.082   6.816   3.478  0.1196 -0.2535 -0.0600
18592W        W38126   3.426   2.525   0.538  0.4523  0.2039 -0.1919
18593W        W38127   7.289  16.375  13.921  0.0751  0.0694  0.2003
18594W        W38128   8.768  14.302  10.190 -0.2503 -0.0528 -0.0012
18595W        W38129   2.802   6.279   3.150 -0.4302  0.1099  0.1703
18596W        W38130  10.301  19.158  11.611  0.1496 -0.0712  0.2740
18597W        W38131  11.328  12.175   0.413  0.2723  0.2405 -0.2088
18598W        W38132   2.996  18.835  10.739  0.2049 -0.0095 -0.1460
18599W        W38133   6.496  18.376  11.185  0.1183  0.2587  0.1486
18600W        W38134  12.215   9.893   3.343 -0.0323 -0.0647 -0.1501
18601W        W38135  14.669  11.956  10.359  0.2371  0.0162 -0.0523
18602W        W38136  12.492  10.890   0.120 -0.0295  0.0678 -0.0262
18603W        W38137  14.149   0.408  10.421 -0.1012 -0.1841 -0.2047
18604W        W38138   1.912  12.035   1.478 -0.0170  0.0011 -0.0766
18605W        W38139   7.831   4.039  10.441  0.0334 -0.0426 -0.1571
18606W        W38140  16.535   6.251   3.716  0.0150 -0.1383 -0.0526
18607W        W38141   7.789  18.630   1.736  0.3930  0.0193  0.3327
18608W        W38142  13.873   9.512  10.684  0.2913 -0.1503 -0.0057
18609W        W38143  17.735  13.421   4.939  0.2240 -0.0348 -0.2448
18610W        W38144   2.810   3.235   0.177 -0.1653  0.1009 -0.0787
18611W        W38145  15.900  11.155   1.428 -0.0717 -0.2158 -0.1082
18612W        W38146  17.408  16.404  11.308 -0.1082 -0.1585  0.1259
18613W        W38147  19.377   5.923   2.794  0.3875  0.0195 -0.1740
18614W        W38148  17.133   8.022  10.685  0.0637  0.1507  0.2290
18615W        W38149  12.515  17.999   2.545  0.2464 -0.3070 -0.0499
18616W        W38150  15.787  14.877   3.084 -0.1183  0.0425 -0.0640
18617W        W38151   7.664   8.135  14.339  0.1811  0.0161  0.2664
18618W        W38152   8.107  11.734  12.608 -0.0765 -0.1908 -0.1632
18619W        W38153  17.523  18.137  12.719  0.1835  0.0100  0.3685
18620W        W38154   0.296   8.357  12.711 -0.0677 -0.1769  0.1183
18621W        W38155   2.282  10.224   1.041 -0.5468 -0.1513 -0.2408
18622W        W38156  15.148  18.730   2.911  0.1197  0.1197  0.3456
18623W        W38157   8.186  14.513   0.114  0.1760 -0.1472  0.0932
18624W        W38158  15.436  14.541   2.990  0.0391  0.1505 -0.0592
18625W        W38159  12.708  11.548  10.474  0.2089 -0.4464 -0.0116
18626W        W38160   9.325   2.573  12.079 -0.1635 -0.1024  0.0740
18627W        W38161  16.593  12.639   3.897 -0.1053 -0.1967  0.0927
18628W        W38162   9.375   5.778   0.802 -0.0764 -0.1255 -0.1166
18629W        W38163  10.794  10.646  12.891  0.1073 -0.0894  0.0131
18630W        W38164   2.989  11.175   5.420 -0.2870 -0.1578 -0.0735
18631W        W38165   9.092   7.472   1.850  0.3379  0.1494 -0.0670
18632W        W38166  15.713  13.799  11.198 -0.1830  0.0797 -0.1010
18633W        W38167   9.903  18.528   2.542  0.0545 -0.4372  0.1083
18634W        W38168   1.645   7.560   4.545  0.0074 -0.4481  0.0176
18635W        W38169   8.766  18.178   4.906 -0.0820 -0.2525  0.1503
18636W        W38170   9.300   5.565   3.347  0.1009 -0.2623  0.1780
18637W        W38171   8.163   7.258  13.994  0.2292 -0.0421  0.2571
18638W        W38172  16.490   6.192   4.197  0.0663 -0.1710 -0.1182
18639W        W38173   6.183   9.881  11.781 -0.1466 -0.1710 -0.1652
18640W        W38174   1.243  14.215  12.557  0.2956  0.4104 -0.3505
18641W        W38175  12.717   0.776   2.504 -0.4925 -0.0772  0.0713
18642W        W38176   3.486   6.822  13.697 -0.2715  0.0864 -0.2931
18643W        W38177   4.480   9.881  10.904  0.3540 -0.1887 -0.2310
18644W        W38178   2.574  16.259  11.399  0.1080 -0.0733  0.1284
18645W        W38179   0.406   9.070  11.573 -0.2913 -0.1955  0.2943
18646W        W38180  16.366   8.210   2.499 -0.4399  0.1284  0.3860
18647W        W38181   4.368   0.564  13.297 -0.1664  0.1429  0.0574
18648W        W38182  18.906  11.464  11.999 -0.1564  0.0592  0.1064
18649W        W38183  15.775  17.749   9.717  0.2365 -0.0521  0.1430
18650W        W38184  11.099   3.761  11.676 -0.2674 -0.0027  0.0409
18651W        W38185   8.414  12.353   2.659 -0.1412 -0.0594 -0.1305
18652W        W38186   2.341  14.129  12.541  0.0927  0.0676 -0.0425
18653W        W38187  12.323   4.241  11.687  0.0939  0.3555 -0.1086
18654W        W38188  10.298  12.556  12.277 -0.1094  0.3481  0.2799
18655W        W38189   5.814  10.025   2.088 -0.5235 -0.1030 -0.0423
18656W        W38190  10.614   1.984  11.491 -0.0243 -0.2807 -0.1141
18657W        W38191   7.548   8.887   3.270 -0.1637  0.2278  0.0525
18658W        W38192  11.795   2.189   4.299 -0.0449 -0.0035 -0.2850
18659W        W38193   1.965  15.504  14.075 -0.1987  0.0217  0.1507
18660W        W38194   7.177   2.841   0.188 -0.0956  0.2356  0.0342
18661W        W38195  16.132   3.678  12.654  0.2945 -0.1286  0.1988
18662W        W38196  14.152   9.715   1.085  0.0336  0.3485 -0.0438
18663W        W38197  13.338  10.866  14.104  0.2319 -0.1527  0.2547
18664W        W38198  17.445   5.413   3.747 -0.2218  0.0532  0.1564
18665W        W38199   2.809  13.160   2.299 -0.0579 -0.0792  0.3015
18666W        W38200   6.250   7.491  13.610  0.2645 -0.2404  0.0923
18667W        W38201   4.156   8.147   1.398  0.1006  0.1094 -0.1869
18668W        W38202  11.365  10.051  10.638 -0.1005 -0.0443  0.1382
18669W        W38203  10.058  14.401  14.366 -0.0307 -0.1581 -0.1223
18670W        W38204  16.023  16.252  14.194  0.1264 -0.2158  0.2099
18671W        W38205  10.243  14.514  12.313  0.1280 -0.0400 -0.2415
18672W        W38206  12.324   3.102  10.484  0.0174  0.0837 -0.2267
18673W        W38207   6.522  10.389   3.834 -0.0345  0.0641  0.4191
18674W        W38208  15.769  13.844  12.017  0.5224 -0.1560  0.0299
18675W        W38209   7.064  14.581  11.543  0.2405 -0.0534  0.0838
18676W        W38210  17.234   7.613   4.222  0.3587 -0.3928  0.2311
18677W        W38211   3.498  18.626   1.646  0.1497  0.3931  0.0056
18678W        W38212   5.230  16.409  12.557 -0.2002  0.2082  0.3574
18679W        W38213  11.407   3.323  11.599 -0.0982 -0.3253 -0.0123
18680W        W38214   9.392   3.599  12.994 -0.0856  0.0675 -0.2480
18681W        W38215   6.376   0.788   3.172 -0.0424 -0.0159 -0.2457
18682W        W38216  18.264   3.290  13.306  0.0900 -0.2159 -0.0444
18683W        W38217   8.789   5.967   1.783 -0.4918  0.0856 -0.1304
18684W        W38218  11.705  19.458   1.165  0.0500 -0.1461 -0.0751
18685W        W38219   3.753  18.561   0.298  0.2153 -0.0804 -0.0618
18686W        W38220   1.928   0.520   1.197 -0.4164 -0.0144 -0.1946
18687W        W38221  11.003   4.088   3.057 -0.3101 -0.0878 -0.3579
18688W        W38222   9.464  11.108  12.446  0.1194 -0.1606 -0.1819
18689W        W38223  15.683  16.112   9.801 -0.0233 -0.0524  0.1406
18690W        W38224   6.208   1.726  10.856  0.1418 -0.2427  0.0099
18691W        W38225  12.944   9.903  13.805 -0.1413  0.0180  0.0006
18692W        W38226  15.242  15.251   9.974 -0.0886 -0.2771  0.2420
18693W        W38227   8.217   5.552   2.505  0.1829 -0.1884 -0.1433
18694W        W38228   9.784   3.967  11.518  0.2133 -0.0421 -0.0318
18695W        W38229   4.974  18.356   3.916 -0.0945  0.0749 -0.1234
18696W        W38230  13.833  10.715   1.992  0.0980 -0.3983  0.3465
18697W        W38231  17.485   9.958   0.197 -0.1394 -0.1778 -0.1323
18698W        W38232   1.434  11.833   9.690 -0.0034 -0.0675  0.1229
18699W        W38233  18.669  14.113  12.204  0.3434 -0.0721 -0.0590
18700W        W38234   3.348  16.853   2.970  0.2314  0.2708  0.2229
18701W        W38235  14.756  11.188  10.868  0.0940 -0.0942  0.1093
18702W        W38236  18.875   1.713   1.342  0.1689 -0.0187 -0.0455
18703W        W38237   2.332   3.607  12.222  0.3190  0.1396  0.3462
18704W        W38238   2.419   5.803  10.866 -0.0230 -0.1571  0.0007
18705W        W38239  11.724  18.628   0.066  0.2838  0.0045  0.0093
18706W        W38240  15.353  18.011   2.009 -0.2390  0.0277  0.2592
18707W        W38241  19.307   3.092  11.011 -0.1190  0.0726 -0.0383
18708W        W38242   9.825   9.993   3.514 -0.1215  0.4358 -0.4173
18709W        W38243  19.082  10.025  11.029 -0.2599  0.0282  0.2262
18710W        W38244  17.766  12.012   0.211  0.0615  0.2844 -0.0178
18711W        W38245  10.416  18.640   1.795  0.0248 -0.0377  0.3008
18712W        W38246   8.425   5.169   1.704 -0.3110 -0.1233  0.2299
18713W        W38247   6.464   5.122   1.437 -0.0014  0.1882 -0.0613
18714W        W38248   1.556  18.017  14.238  0.1046  0.4083  0.0699
18715W        W38249  14.639   6.665   0.714  0.0753  0.1138  0.3665
18716W        W38250  10.638   1.456  10.476 -0.2925 -0.1322 -0.1606
18717W        W38251   0.745  17.100   4.386 -0.0255 -0.1273  0.1155
18718W        W38252  10.734  11.203   4.028  0.1861  0.0293  0.1907
18719W        W38253  19.514  17.126   2.795  0.2003  0.0561 -0.2006
18720W        W38254   9.799  12.851  12.694 -0.1864 -0.0305  0.2564
18721W        W38255   9.842   0.644  12.601 -0.2199 -0.0681  0.0467
18722W        W38256   4.809   3.695  13.596  0.2155  0.0010 -0.1427
18723W        W38257  10.165  11.786   3.419 -0.1052 -0.0457  0.1507
18724W        W38258  10.327  12.452   0.221  0.0790  0.0025  0.1364
18725W        W38259  12.087   1.158  14.039 -0.2540 -0.0173 -0.0528
18726W        W38260   8.632  12.801   2.646 -0.1304  0.0427  0.3192
18727W        W38261   6.606   1.278   3.170  0.0885 -0.2908 -0.0753
18728W        W38262   7.897  12.702  12.159  0.1894  0.1696  0.0414
18729W        W38263   2.907   2.846   1.178 -0.2111  0.0541  0.2059
18730W        W38264   4.024  13.373   1.886  0.2799  0.2271  0.1176
18731W        W38265   2.161  16.076   3.241 -0.0111  0.0263 -0.1026
18732W        W38266   5.164  11.039  11.182  0.2026 -0.2184  0.0623
18733W        W38267   4.562  16.711   2.928  0.4414 -0.1307  0.2352
18734W        W38268   6.179   8.096  11.486  0.2398  0.0363  0.0844
18735W        W38269   5.516   9.371   3.912 -0.3064  0.0352 -0.0628
18736W        W38270   5.302   0.530   2.899 -0.1278  0.1252 -0.4393
18737W        W38271  14.509  18.429  12.716 -0.2349  0.0282 -0.5424
18738W        W38272   3.399  11.359   2.913 -0.1077  0.0116  0.0534
18739W        W38273  14.407  17.205  10.248  0.0484 -0.3584 -0.1617
18740W        W38274  16.349  11.290   1.337 -0.0549 -0.0901  0.2130
18741W        W38275   8.034   3.563  11.056 -0.0509  0.1809  0.1366
18742W        W38276  11.973   2.517  12.662 -0.1806  0.2417 -0.1423
18743W        W38277   4.028   0.662   3.273  0.0213 -0.1083  0.0878
18744W        W38278   7.225  14.439  13.970  0.0471  0.2540 -0.0640
18745W        W38279  12.490  13.502   2.215 -0.2766 -0.1774 -0.0163
18746W        W38280  19.517  12.615  10.241 -0.2413  0.3292 -0.0868
18747W        W38281  10.681   3.278   2.030 -0.2120  0.1848 -0.0630
18748W        W38282   7.749  11.561  13.929 -0.1205 -0.0639  0.0866
18749W        W38283  11.712  16.107   3.823  0.0332 -0.1809 -0.4118
18750W        W38284   0.705   9.716  13.109  0.1972  0.2132 -0.0046
18751W        W38285   5.436   0.240  13.651  0.0128 -0.2398  0.2653
18752W        W38286   8.195  10.702  12.544 -0.2905 -0.0285 -0.0876
18753W        W38287   3.678  11.783   0.760  0.3428  0.0152  0.1137
18754W        W38288  14.962  19.491  11.967  0.0521 -0.0820 -0.1622
18755W        W38289  13.034   4.848  10.494  0.3434  0.0408 -0.2201
18756W        W38290  16.949  14.085  10.737 -0.2705 -0.2118 -0.0700
18757W        W38291  11.213   1.854   1.516 -0.0371 -0.1372  0.1773
18758W        W38292   2.110  16.692   9.113 -0.1026  0.0150  0.0508
18759W        W38293   3.990  11.970  13.342  0.1780  0.1715  0.0144
18760W        W38294  15.524  15.903   2.141  0.0024  0.0207 -0.0887
18761W        W38295   8.238   2.142   0.331  0.0487  0.1570 -0.0350
18762W        W38296   7.339  19.126   4.846 -0.1207  0.0405 -0.0843
18763W        W38297  14.345   2.489   5.150  0.3420  0.0702  0.0001
18764W        W38298   7.357  17.415  11.363 -0.1372  0.2469  0.2363
18765W        W38299   5.648   0.378  11.558  0.0427  0.1933 -0.0077
18766W        W38300   4.000  18.076   1.590 -0.4100 -0.1511 -0.1855
18767W        W38301   5.695  13.008   0.732  0.0436  0.1800  0.0686
18768W        W38302   9.809  15.296   2.731 -0.2957 -0.1762 -0.0722
18769W        W38303  11.230  17.842  13.081  0.0814  0.1063  0.0565
18770W        W38304  13.573  10.568   2.927 -0.4116  0.0530  0.0985
18771W        W38305   4.173   8.870  11.905 -0.2219 -0.0334  0.1519
18772W        W38306  14.224   1.240  11.463 -0.0892  0.0594 -0.3337
18773W        W38307  13.059   6.663  13.257 -0.2489  0.3050  0.0025
18774W        W38308   6.890   3.779   2.277  0.1477  0.1234  0.0041
18775W        W38309  10.272  11.340   2.677  0.2715 -0.1810  0.0609
18776W        W38310  14.670  18.913  13.890 -0.1626 -0.0696  0.1292
18777W        W38311  13.463   8.783   1.421 -0.2941 -0.3447 -0.1005
18778W        W38312   8.431  15.416  11.091 -0.1677 -0.3082 -0.1281
18779W        W38313  17.778  15.392   2.712  0.2113 -0.0807 -0.0152
18780W        W38314  18.482  19.381   1.151 -0.2921  0.1984 -0.1280
18781W        W38315  10.988  12.400   3.743  0.0465 -0.1320 -0.0363
18782W        W38316  13.741   5.235  13.039  0.0921 -0.0658  0.1507
18783W        W38317   9.468   0.059  14.170 -0.1351  0.1338  0.0091
18784W        W38318   5.322   2.098  10.731  0.0149 -0.1153 -0.1971
18785W        W38319   9.847  14.555  13.594 -0.0329  0.0874  0.0716
18786W        W38320  16.232  18.114   0.221 -0.1157  0.0371  0.1363
18787W        W38321   6.762  13.177   3.085 -0.0350 -0.0820  0.3749
18788W        W38322   6.276  18.218   0.542  0.2888 -0.2521  0.4271
18789W        W38323  10.365  11.985  12.936 -0.0605 -0.1126 -0.0300
18790W        W38324   6.634  15.813  11.071 -0.3582  0.0411  0.1925
18791W        W38325  11.122  14.497  12.016  0.1320  0.0771  0.2663
18792W        W38326   4.039   3.282  12.436 -0.1250 -0.1609 -0.1129
18793W        W38327   6.344   9.105   1.276 -0.0272 -0.0484  0.0862
18794W        W38328  12.706   0.136   3.131 -0.2241 -0.0242 -0.2170
18795W        W38329  12.399   4.033   0.218  0.3672 -0.0749  0.0270
18796W        W38330   5.122   1.161  10.626  0.3654  0.0260  0.2318
18797W        W38331   4.782   0.443  11.254  0.5383 -0.3728 -0.1977
18798W        W38332   1.653  16.029   1.467 -0.5930 -0.1795 -0.1045
18799W        W38333  19.243   1.294  13.978  0.2056  0.1638  0.1654
18800W        W38334   4.156   8.325   0.154 -0.2470 -0.3305  0.1828
18801W        W38335  16.777  13.203   1.273  0.2511  0.1917  0.0922
18802W        W38336  12.683  10.507  12.843  0.2165  0.6017 -0.2652
18803W        W38337   2.113  16.783  11.844 -0.0370  0.0785  0.2430
18804W        W38338   6.977  19.369  14.356 -0.0781  0.1525 -0.0423
18805W        W38339   5.504   1.882   1.213 -0.2090  0.0642  0.0337
18806W        W38340   8.626  19.280  10.674 -0.1656  0.0991  0.1299
18807W        W38341   2.613   8.743   4.184 -0.0958 -0.1184 -0.2828
18808W        W38342  11.793   3.849   1.303  0.2436  0.0208  0.1747
18809W        W38343  18.329  15.010  12.335  0.0187  0.0162 -0.2690
18810W        W38344   3.171  13.971   2.361 -0.1292 -0.3044 -0.1663
18811W        W38345  16.097  17.580   0.880 -0.2376 -0.1893  0.1027
18812W        W38346  12.313  12.501  13.329  0.3319 -0.1715  0.1043
18813W        W38347   8.557  12.194  11.071  0.0706  0.1353 -0.0948
18814W        W38348  17.096  15.832   0.787 -0.1949  0.1271  0.2170
18815W        W38349   4.295  12.777   4.523  0.0460  0.0258  0.3219
18816W        W38350  16.894   6.446   3.260  0.2686  0.2731 -0.3123
18817W        W38351  18.071  12.061  13.519  0.0187 -0.1352  0.2404
18818W        W38352  16.670  17.721  14.218  0.1109 -0.0313 -0.1115
18819W        W38353  11.530   0.797  10.274 -0.0882 -0.1275  0.2069
18820W        W38354   1.032  15.543  11.383  0.4133 -0.0339  0.0966
18821W        W38355  10.016  15.032   9.497  0.1729  0.3302  0.2882
18822W        W38356   0.403  16.907   9.022  0.2311  0.1366  0.3523
18823W        W38357  10.113   5.184  12.340 -0.2519 -0.1867 -0.0567
18824W        W38358   5.901  13.659  13.520  0.0161  0.4047  0.0629
18825W        W38359  16.249   8.911   2.112 -0.1699  0.0011 -0.0239
18826W        W38360   8.855  13.130  12.701 -0.0514  0.1175 -0.0358
18827W        W38361   9.373   0.420  13.001 -0.1710  0.1440  0.1559
18828W        W38362   0.380  15.817  14.373  0.1086  0.1526  0.2123
18829W        W38363   2.144   0.358  11.544 -0.2439  0.1514  0.0656
18830W        W38364  14.723   7.500  10.801 -0.1340 -0.0382  0.0492
18831W        W38365   1.397   0.755   0.880  0.2091  0.1843  0.1237
18832W        W38366   0.268  14.610  12.745  0.0494  0.1584  0.1590
18833W        W38367  14.905   7.059  11.123 -0.0429  0.1236  0.2553
18834W        W38368   1.281   1.750   1.365 -0.2503  0.2431  0.2068
18835W        W38369  18.808  14.609  10.746  0.1537  0.0462  0.0600
18836W        W38370  19.342   8.287  13.643 -0.2551  0.1925  0.0641
18837W        W38371   6.840  12.660  14.263  0.0614  0.2021 -0.0104
18838W        W38372   1.916   4.247   2.125  0.2936  0.1016  0.2022
18839W        W38373  15.397  13.401  12.102 -0.0600  0.0439 -0.2445
18840W        W38374  17.074  10.545  13.077  0.1958 -0.1002  0.0730
18841W        W38375  10.520   8.593   4.180 -0.1922 -0.1881 -0.1192
18842W        W38376   8.729   4.739  13.522  0.0485 -0.2228 -0.1009
18843W        W38377   0.942   0.164  12.690  0.2449 -0.0365  0.1306
18844W        W38378  19.434  15.390  12.275 -0.0533 -0.1607 -0.2316
18845W        W38379   2.751   3.545   9.158 -0.3786 -0.1011 -0.0004
18846W        W38380  11.091  16.880  13.215 -0.1932 -0.3075  0.0119
18847W        W38381  14.966  17.120  13.646 -0.0322  0.1270 -0.0375
18848W        W38382   7.410   6.367  13.740 -0.0189 -0.2998 -0.0880
18849W        W38383  18.460   6.353   1.346  0.0736  0.0672  0.2146
18850W        W38384  13.726   9.575  12.524  0.0052 -0.2840  0.0635
18851W        W38385  12.123  16.762   1.044  0.0476  0.3143 -0.0273
18852W        W38386  11.585  19.438   1.656 -0.0625  0.2236 -0.1330
18853W        W38387  15.189  18.667   0.337 -0.1930 -0.2047  0.0703
18854W        W38388   8.653  14.019  11.150  0.2338 -0.0649 -0.0300
18855W        W38389   7.538   9.867   2.290  0.0992  0.2506  0.5293
18856W        W38390   1.870   5.643  14.247 -0.1268 -0.0066 -0.0115
18857W        W38391   0.057  13.089  12.374 -0.1916  0.1364 -0.0242
18858W        W38392  18.487  13.370   2.642  0.0484  0.2355  0.3357
18859W        W38393   2.557   7.383   4.006 -0.1995 -0.3504 -0.2095
18860W        W38394  17.100   1.461   0.826  0.0936 -0.2764  0.1763
18861W        W38395  14.063   1.413  11.966 -0.1433 -0.1706 -0.0952
18862W        W38396   2.983  10.462   2.197 -0.1460  0.0550 -0.4011
18863W        W38397  15.483   8.904  11.631 -0.0585  0.1668 -0.0830
18864W        W38398   2.007   7.917   3.665  0.1673  0.0977 -0.2286
18865W        W38399   2.389   6.966   3.787 -0.1425  0.1243  0.2610
18866W        W38400  15.022   5.891   4.139  0.2227  0.2759  0.0873
18867W        W38401  19.197   8.708  12.757  0.4915 -0.0894  0.1541
18868W        W38402   4.237   2.473   2.214  0.3168  0.2940 -0.0657
18869W        W38403  11.510  16.953  11.991 -0.0042 -0.0412  0.1964
18870W        W38404  13.666  12.415  11.243 -0.1656  0.0942 -0.2872
18871W        W38405   6.251  13.126  12.247  0.2089  0.1257  0.1134
18872W        W38406  11.874   0.922   9.154 -0.2557 -0.0225  0.1937
18873W        W38407   0.879  12.260  11.549 -0.3686  0.0037  0.2949
18874W        W38408   1.868  18.657   0.268  0.1464 -0.2278 -0.0800
18875W        W38409   1.209   9.277   2.791 -0.0805 -0.1323 -0.0734
18876W        W38410  15.681  13.579   2.114 -0.0574  0.2038  0.3908
18877W        W38411   6.951  17.024   1.932 -0.0649  0.1006 -0.0850
18878W        W38412   8.138  15.762   0.790 -0.4489 -0.2671  0.0953
18879W        W38413   0.203   2.361   0.955  0.0728  0.1149  0.0203
18880W        W38414  18.184  19.075  11.516  0.2220 -0.1101  0.0742
18881W        W38415   0.149  17.827   1.709 -0.1795 -0.0677  0.0419
18882W        W38416  12.212  10.674  11.905 -0.0524  0.0119 -0.1134
18883W        W38417   3.043   3.529   3.959  0.2219  0.0426  0.0748
18884W        W38418   9.707  17.946   1.192 -0.3850  0.0363  0.0541
18885W        W38419   1.911   6.879  13.256 -0.2792 -0.0678  0.1735
18886W        W38420   7.368  15.747  11.766  0.1470 -0.0676  0.0434
18887W        W38421  14.281   7.861   4.934  0.0206 -0.2143 -0.2503
18888W        W38422  15.736   9.283   3.644  0.1642  0.2208  0.0487
18889W        W38423   8.203   6.502  11.830 -0.0911  0.1031 -0.0063
18890W        W38424   7.798   5.143  14.306 -0.0781  0.2516 -0.1873
18891W        W38425  13.192  10.548  12.906  0.3072 -0.3007 -0.2577
18892W        W38426   9.696   9.148   1.024 -0.2884 -0.2058 -0.5067
18893W        W38427   9.138   4.057   1.081  0.1052 -0.2405  0.0026
18894W        W38428  14.899  14.721  11.617  0.0234  0.3598 -0.2949
18895W        W38429   7.066  16.841   4.794  0.0189  0.2143 -0.0537
18896W        W38430   8.398  19.063  10.239 -0.3733  0.0455 -0.0988
18897W        W38431   0.214   5.523  14.158 -0.2292 -0.1622 -0.0700
18898W        W38432   8.852   1.539  13.322  0.2418 -0.0789  0.2329
18899W        W38433  13.421  10.069  13.671 -0.1969  0.2362  0.1088
18900W        W38434   1.799   3.458  11.331 -0.0418  0.2190  0.0519
18901W        W38435  14.636  11.943   2.841 -0.0252  0.2210  0.0077
18902W        W38436   8.641  18.652   1.431 -0.0328 -0.1217  0.1801
18903W        W38437  18.070   6.125  11.373 -0.0761  0.0130 -0.1647
18904W        W38438   5.459   2.002  11.231  0.0229 -0.3358 -0.0333
18905W        W38439   5.842   0.545  12.572  0.0817 -0.3604  0.0010
18906W        W38440  16.155   2.086   2.840  0.0534  0.0751  0.0152
18907W        W38441   0.954  16.097   1.829  0.0518 -0.0935 -0.0946
18908W        W38442  12.016   7.437  10.520 -0.0354  0.2351 -0.0497
18909W        W38443  14.156  18.089   0.992 -0.0688 -0.0938  0.2539
18910W        W38444   8.540   0.253  10.851  0.2678 -0.0405  0.0629
18911W        W38445  11.779  14.686  12.562  0.1607 -0.2228  0.2006
18912W        W38446   1.994   3.160  10.911 -0.1687  0.0125  0.1513
18913W        W38447   1.353   9.320   3.805 -0.0120  0.0328 -0.0506
18914W        W38448  17.766  10.177   9.952  0.1377  0.1652 -0.2932
18915W        W38449   5.012  10.145   1.345 -0.1320  0.0884 -0.1223
18916W        W38450   3.477   7.999   0.472 -0.2634  0.0712  0.0377
18917W        W38451  16.051   2.850  13.987  0.0465 -0.0353  0.0384
18918W        W38452   9.631  14.684  10.996 -0.1913 -0.0737 -0.0001
18919W        W38453   6.825  15.522   3.284  0.1821 -0.0391 -0.2788
18920W        W38454  17.753   3.630   3.533  0.0810  0.3972 -0.0473
18921W        W38455  15.663   7.132   1.655 -0.2763 -0.1630 -0.2714
18922W        W38456  12.975   5.268   2.441 -0.0407 -0.0419  0.1711
18923W        W38457   8.252  16.361  11.096 -0.1514  0.0605  0.1020
18924W        W38458  11.162  11.957   4.100  0.0327  0.0702  0.1790
18925W        W38459   2.395  11.553  13.812  0.0217 -0.2906  0.2094
18926W        W38460   2.601  18.211   1.091 -0.1436 -0.4664  0.0789
18927W        W38461  19.455  12.811   0.497  0.3341 -0.0056  0.1397
18928W        W38462   6.925   6.242  13.688 -0.0299 -0.3383 -0.1417
18929W        W38463   2.467  11.879  14.246  0.3514 -0.2671 -0.3774
18930W        W38464  18.679  15.013   0.242 -0.0673  0.2610  0.3007
18931W        W38465   1.393   5.878   2.249  0.0198 -0.0644 -0.0997
18932W        W38466  15.147  19.077  12.730 -0.0225  0.1097  0.0230
18933W        W38467  11.296  16.176  10.341  0.1019 -0.0076 -0.1309
18934W        W38468  12.778  18.383   3.188 -0.0657  0.0980  0.1238
18935W        W38469   0.069   3.228  13.853 -0.3311  0.0405 -0.2739
18936W        W38470  15.258   8.655  12.869  0.2073 -0.0668  0.0355
18937W        W38471  13.746   2.270  12.442 -0.2057 -0.0380 -0.3835
18938W        W38472   0.621  15.749  10.453  0.1376  0.1938 -0.3614
18939W        W38473   3.773   4.122   2.292 -0.0830  0.1794 -0.1380
18940W        W38474  10.412  18.613  11.653  0.2786  0.3951 -0.0023
18941W        W38475   3.482   2.279   3.701 -0.1269  0.1481  0.0050
18942W        W38476  16.056   7.157   4.623 -0.0195 -0.1436 -0.1719
18943W        W38477   0.762  14.568  12.792 -0.1296 -0.0768 -0.0024
18944W        W38478  13.520   7.894   4.880  0.3157  0.0770  0.3115
18945W        W38479   6.119   0.648   3.630  0.0817  0.0297  0.0214
18946W        W38480   2.412   3.435   4.980 -0.0936 -0.0232  0.0712
18947W        W38481  17.201   2.915  12.975 -0.0060 -0.2235  0.0128
18948W        W38482  15.966   9.146   1.813 -0.1542 -0.0237  0.0105
18949W        W38483   0.842   9.842   3.119 -0.0489  0.0176  0.2763
18950W        W38484  16.652   2.034  12.384  0.0432  0.3646  0.0403
18951W        W38485   6.390   0.045   2.498  0.2844 -0.0946  0.3144
18952W        W38486   3.197  10.233   1.335  0.1010 -0.0371  0.1102
18953W        W38487   8.497  11.869   1.249  0.0012  0.2960 -0.2656
18954W        W38488   0.456   9.452   0.973  0.1639 -0.1450 -0.0941
18955W        W38489  18.170  13.393   1.640  0.1588  0.1863 -0.3278
18956W        W38490   9.287  11.388   1.670 -0.1311 -0.2291 -0.0785
18957W        W38491  13.547  10.575   0.344  0.0068  0.1638 -0.0009
18958W        W38492   4.219  13.829   1.973  0.0036  0.2932 -0.2608
18959W        W38493   8.993   5.824  14.269 -0.2494  0.4243 -0.0010
18960W        W38494  14.105   1.223   0.466 -0.2597 -0.1405  0.0415
18961W        W38495  16.616   4.749  11.573 -0.0710 -0.1952 -0.2762
18962W        W38496  13.548   5.607   3.002 -0.2241 -0.0642 -0.0113
18963W        W38497   1.753   1.081   3.917  0.0908  0.0072 -0.1847
18964W        W38498   0.002  14.580   1.771 -0.0108  0.2386  0.1084
18965W        W38499  13.910  16.024  10.665  0.3351 -0.0604  0.1640
18966W        W38500   1.988  18.413  11.734  0.0529 -0.1254  0.1797
18967W        W38501  14.992  13.555  13.069 -0.1787  0.0534  0.2321
18968W        W38502  14.381   7.420  11.745  0.1444 -0.1346  0.0169
18969W        W38503  15.763  17.745  13.031 -0.5275 -0.0524  0.0535
18970W        W38504   0.845  14.511   0.242 -0.1701  0.4612 -0.2186
18971W        W38505   7.290  18.018  13.148 -0.0256 -0.2080 -0.0054
18972W        W38506   8.683   8.692  12.497 -0.1891 -0.0513 -0.1627
18973W        W38507  15.756   1.929  11.342  0.0662 -0.0109  0.0754
18974W        W38508  18.704  18.021   0.602 -0.1221  0.2071  0.1310
18975W        W38509  11.836  17.714  10.911 -0.1243  0.1203  0.0618
18976W        W38510   9.699   6.989  11.896 -0.3902  0.1785  0.0167
18977W        W38511   8.612   3.058   3.068  0.0265  0.1139  0.0412
18978W        W38512  12.136  15.498  10.956 -0.1050  0.0471  0.2596
18979W        W38513   3.994   8.913   2.245 -0.0467  0.0119  0.0274
18980W        W38514  14.789   2.260   2.424 -0.0342  0.2421  0.0197
18981W        W38515  13.836  14.078  11.182  0.1249  0.3310  0.3979
18982W        W38516  11.738   2.030   0.754 -0.1010  0.3749 -0.3786
18983W        W38517  11.371   0.757  12.607 -0.4005 -0.2435  0.2381
18984W        W38518  16.592   2.712   0.122  0.1131  0.0706  0.2487
18985W        W38519   3.160  18.973  11.572 -0.0160  0.1204  0.1826
18986W        W38520  12.336   6.442   1.397  0.0230 -0.0289 -0.0641
18987W        W38521   2.025  11.587  11.731  0.2210 -0.2528 -0.1319
18988W        W38522   6.256  15.543   0.610 -0.1763 -0.2925  0.1717
18989W        W38523   9.984   9.016   3.950  0.1845 -0.0018 -0.0508
18990W        W38524  17.661   2.393   1.502  0.4491  0.3166  0.1263
18991W        W38525  13.924  12.516  11.719  0.2019 -0.2743  0.1327
18992W        W38526   1.573  16.754   0.338  0.2379  0.0998 -0.2443
18993W        W38527   3.733  16.143   1.707  0.1560  0.1493  0.3453
18994W        W38528  12.620  10.368   3.124  0.1535 -0.0219  0.1996
18995W        W38529   0.588  10.514  11.863 -0.3379  0.2682 -0.0430
18996W        W38530   8.796   6.596   1.880 -0.0152 -0.1484 -0.0227
18997W        W38531  12.374  14.328  13.629  0.1922  0.3575 -0.1401
18998W        W38532   4.232  12.789  13.529  0.1670  0.0030 -0.0115
18999W        W38533   4.343  15.068   1.349  0.0635  0.0837 -0.1530
19000W        W38534   8.078   5.779   5.016 -0.1470 -0.0186 -0.0657
19001W        W38535  12.473   1.224   2.664  0.0234 -0.2794  0.1332
19002W        W38536   6.339   6.265   1.392 -0.1974 -0.0747 -0.4511
19003W        W38537  17.730   8.673   0.886  0.1674  0.1359 -0.0167
19004W        W38538   1.317  17.869   3.849 -0.1163 -0.0316 -0.1863
19005W        W38539   2.170  18.113   4.890  0.0134  0.1409 -0.2289
19006W        W38540  18.105  15.273  11.407 -0.0285 -0.0421 -0.2192
19007W        W38541  16.466  13.270   3.255  0.1662  0.0273  0.0937
19008W        W38542   9.778  19.016  11.500 -0.0149  0.0000 -0.3548
19009W        W38543  13.870   4.471   0.013  0.3591  0.0313  0.2581
19010W        W38544  18.349  16.666  13.380 -0.1424 -0.1991  0.0653
19011W        W38545   9.750  11.960  11.210 -0.0084 -0.1585  0.0398
19012W        W38546   5.404  18.407   1.138 -0.2422 -0.0347 -0.0308
19013W        W38547   9.025   6.652  10.999 -0.0275  0.3585 -0.1903
19014W        W38548   3.886  14.776  11.144  0.2657  0.0196  0.1362
19015W        W38549  14.761   7.862  13.441 -0.1371  0.3924  0.0313
19016W        W38550  13.988   9.767  11.879  0.1753 -0.0784 -0.0866
19017W        W38551   8.868  18.076   3.646  0.0897 -0.2433 -0.0129
19018W        W38552  10.150   4.583   3.795  0.0450  0.0412  0.1766
19019W        W38553  14.919   8.019   1.061  0.1305 -0.0549 -0.2098
19020W        W38554  13.684   5.354   2.136  0.0816  0.0928 -0.1236
19021W        W38555  15.084   2.276  12.102  0.1993  0.1702  0.2216
19022W        W38556   2.168  12.948  13.562 -0.1335  0.1630 -0.0105
19023W        W38557   0.386  17.869  12.349 -0.0292  0.0530 -0.0031
19024W        W38558   5.333  19.170   0.925 -0.0395  0.0695 -0.2839
19025W        W38559  18.980   7.848  10.629 -0.2091  0.2943  0.2480
19026W        W38560  15.607  18.770   2.644 -0.0630  0.4568  0.2311
19027W        W38561   5.226   6.540  14.030  0.0560 -0.1588  0.1851
19028W        W38562   0.186   2.211  14.225 -0.3934  0.3698  0.0694
19029W        W38563   2.573  12.063  13.639  0.2876  0.2137 -0.2338
19030W        W38564  12.257  11.263  10.474 -0.1856  0.1069  0.0130
19031W        W38565  16.490  18.966  11.935  0.1608 -0.2276 -0.2222
19032W        W38566  13.592  13.032   2.371 -0.3686  0.2438  0.1407
19033W        W38567   0.578  12.511   3.650 -0.0356  0.0677  0.3951
19034W        W38568  14.309  13.677  10.327  0.1996 -0.0500 -0.1021
19035W        W38569  19.483  10.697   0.934  0.3308 -0.1844 -0.0040
19036W        W38570   4.736   2.627   4.522  0.1024  0.3425  0.0270
19037W        W38571  10.832   9.276   0.404 -0.0674  0.1933  0.1022
19038W        W38572   2.653  12.057   4.062  0.1069  0.1357  0.0014
19039W        W38573   5.771  18.689  13.714  0.1318  0.2820 -0.1793
19040W        W38574  18.496   5.621  12.608  0.1168  0.0417  0.0763
19041W        W38575  16.111  19.353  13.787 -0.2194  0.1386  0.1353
19042W        W38576   7.299   4.914  13.942  0.0639 -0.0989 -0.3733
19043W        W38577  14.869   2.099   1.367  0.0022  0.1267  0.2041
19044W        W38578   8.762  16.545   3.455 -0.0462  0.1933 -0.0214
19045W        W38579   3.527  17.814  12.351  0.1026 -0.1583  0.1328
19046W        W38580  14.488   3.185  10.498 -0.0351  0.1718 -0.0801
19047W        W38581   7.974   6.645   3.863 -0.1882 -0.3491 -0.2359
19048W        W38582   3.750  11.059  13.559 -0.0352 -0.1985 -0.0719
19049W        W38583  14.655  17.311  13.258 -0.2152  0.0391  0.3514
19050W        W38584  13.927   2.505   3.753 -0.2060 -0.1018  0.2147
19051W        W38585  17.852  16.504  10.888 -0.0299  0.1863 -0.4590
19052W        W38586   6.484   6.877   2.089  0.1194  0.0689 -0.0280
19053W        W38587  19.511   7.965   0.787 -0.0322 -0.1316  0.1959
19054W        W38588   9.324  17.855   0.855 -0.3320 -0.0994 -0.1572
19055W        W38589  19.412  15.847  14.087 -0.1834  0.1470  0.0585
19056W        W38590  11.337   8.755   2.384 -0.1099  0.2992  0.1723
19057W        W38591  14.276   6.623  11.283 -0.2416 -0.3756 -0.0590
19058W        W38592  18.550   2.177  12.856  0.0451 -0.1649  0.1476
19059W        W38593  12.420  13.290  13.586  0.0680  0.0371 -0.0603
19060W        W38594   0.265  10.349   1.225  0.3082  0.2729  0.4434
19061W        W38595  14.711   2.581  11.705  0.2296 -0.1053  0.1149
19062W        W38596  17.466  18.857   1.681 -0.0821 -0.2265 -0.0913
19063W        W38597   0.999   1.156  14.349  0.0547 -0.1797  0.1306
19064W        W38598  15.331   2.094   1.090  0.0830 -0.1215 -0.0607
19065W        W38599  15.521  11.433   3.769  0.1041 -0.1450  0.1115
19066W        W38600  19.287   0.017  10.470 -0.2351  0.0935  0.3229
19067W        W38601   0.855  14.414   3.330 -0.0477 -0.0157  0.0363
19068W        W38602   4.622   7.362  12.906 -0.1205  0.3739  0.1066
19069W        W38603  16.183   5.003   0.084 -0.0075 -0.1028  0.1022
19070W        W38604   7.640   1.532  10.186  0.1371  0.1670 -0.1688
19071W        W38605  15.975   8.257  13.969  0.1131  0.3631 -0.0280
19072W        W38606   2.355  17.920  14.306 -0.1588  0.0324 -0.0657
19073W        W38607   2.253   1.285   3.859 -0.0169 -0.1513  0.2720
19074W        W38608  12.779   5.272   9.231 -0.1185  0.3464  0.0788
19075W        W38609   9.093   8.916   4.982  0.2235 -0.2071 -0.0078
19076W        W38610   3.756  12.431  11.488 -0.1554 -0.0938  0.0738
19077W        W38611   7.380   9.973  13.277 -0.1276 -0.1616  0.0281
19078W        W38612   5.862  15.267  11.582 -0.0091  0.0677 -0.2385
19079W        W38613   6.725   7.206  11.622 -0.0362  0.3313 -0.3034
19080W        W38614   6.880   3.813  11.793  0.0691  0.2599  0.2173
19081W        W38615   0.575  10.841   3.587 -0.1482 -0.2114  0.1071
19082W        W38616   3.101   0.001   0.716  0.3907 -0.1071  0.2415
19083W        W38617  12.512  10.537   2.626  0.2478  0.1093 -0.1095
19084W        W38618   1.494  12.043   0.333 -0.2911  0.2004  0.2413
19085W        W38619  12.447   0.840  14.202  0.1567 -0.1143 -0.3242
19086W        W38620   6.627  11.125   2.502  0.0884  0.0987 -0.0882
19087W        W38621   3.902  11.307   3.566 -0.1187  0.1041 -0.0651
19088W        W38622   9.754  16.113   3.330  0.0607 -0.1785  0.2147
19089W        W38623   9.862   7.254   0.003  0.0986 -0.1788 -0.0617
19090W        W38624   4.373  17.777  12.963  0.0640 -0.0112  0.0218
19091W        W38625  16.617   6.133   0.371  0.0913 -0.3103  0.1233
19092W        W38626   5.053   0.908   3.511 -0.1244 -0.1236 -0.0842
19093W        W38627  12.381  18.605  13.601 -0.2324 -0.0901  0.2838
19094W        W38628   1.690   8.183   2.800  0.1285 -0.2263 -0.1819
19095W        W38629   8.851  15.273  11.864 -0.2087 -0.0928  0.2274
19096W        W38630  13.106  13.787  12.527 -0.0849 -0.0057 -0.1662
19097W        W38631  15.112   2.564  10.833 -0.1232  0.0871  0.0529
19098W        W38632  15.508   6.706   9.981  0.0380 -0.0204  0.0339
19099W        W38633  14.095   6.578   0.845 -0.2516  0.0434  0.1155
19100W        W38634   5.410   4.911   4.191  0.0803  0.3027  0.1476
19101W        W38635  15.546   6.476  11.387 -0.3120 -0.0454 -0.1599
19102W        W38636  17.441   6.737   0.892 -0.1020 -0.2216 -0.0170
19103W        W38637  18.389  12.666   2.086 -0.0714 -0.3697  0.1625
19104W        W38638   0.042   7.000   3.795  0.0183 -0.1075  0.1190
19105W        W38639  11.867  19.128  10.679  0.1537 -0.0667 -0.2002
19106W        W38640   0.111  15.947  10.951 -0.3315  0.2451  0.1449
19107W        W38641  17.642  16.276  13.704  0.1035  0.0095  0.1799
19108W        W38642  10.894   7.036  12.776 -0.0195  0.2540  0.2619
19109W        W38643  16.453  17.391  11.423  0.4146  0.0404 -0.5540
19110W        W38644  11.869  10.200  13.892  0.0182  0.0359 -0.2961
19111W        W38645   2.189   3.320  13.316 -0.0957 -0.2444  0.2760
19112W        W38646   6.651   0.801  11.811  0.0472 -0.0303 -0.1431
19113W        W38647  17.968   0.528  11.688 -0.3735  0.0851  0.0240
19114W        W38648   5.975  11.626   3.039 -0.0704  0.0218  0.1084
19115W        W38649   2.378  18.496   3.969  0.1600 -0.0084  0.0054
19116W        W38650  13.026   0.528   3.407 -0.1183  0.2445 -0.0976
19117W        W38651  19.472  19.285  13.834 -0.1885  0.1246  0.2886
19118W        W38652   9.156   0.508  10.792  0.0452 -0.2637 -0.1498
19119W        W38653  10.593   0.684  11.237 -0.4231  0.1429  0.1655
19120W        W38654   7.829  12.763  14.127 -0.0165  0.2814 -0.2832
19121W        W38655  14.844   5.489   2.443  0.3569  0.0116  0.0668
19122W        W38656   8.744   0.909   0.048 -0.1390 -0.0993  0.2029
19123W        W38657  17.068   9.507  11.744  0.2846 -0.1623  0.0412
19124W        W38658   8.060  16.525   3.997 -0.0238 -0.0694 -0.1746
19125W        W38659   7.216  15.849  10.843 -0.3658 -0.2855  0.1224
19126W        W38660   1.016   6.731  14.050 -0.0553  0.1242 -0.4062
19127W        W38661  18.747   0.757  13.835  0.1798  0.1217 -0.0362
19128W        W38662  10.597  14.774  11.979  0.1530 -0.1609  0.1399
19129W        W38663  17.139   5.095   1.619  0.0788  0.0212 -0.2085
19130W        W38664  14.438  11.100   3.170  0.1914 -0.1470 -0.1000
19131W        W38665  11.866   9.818   2.742 -0.0729 -0.0500  0.1302
19132W        W38666   8.127  14.705   2.051 -0.1918  0.0824  0.0308
19133W        W38667  10.843   1.588   1.107  0.0184 -0.3008 -0.1620
19134W        W38668  10.532  16.723  11.427 -0.0966  0.1050 -0.0629
19135W        W38669   0.284   5.116   2.052  0.0887 -0.1113  0.1132
19136W        W38670   5.801   4.851   3.439 -0.0365 -0.4602 -0.2630
19137W        W38671   7.068  15.030  10.596  0.0685 -0.5700 -0.1958
19138W        W38672  15.144   7.259   3.033  0.1896 -0.1868 -0.2346
19139W        W38673  15.532  17.611  12.539 -0.0608 -0.0694  0.1449
19140W        W38674   4.226  11.649   3.717 -0.1547 -0.1683 -0.1714
19141W        W38675  16.634  15.602   1.013  0.1003  0.3670 -0.2219
19142W        W38676  17.387  19.460  12.278 -0.2376 -0.0997  0.0174
19143W        W38677  13.614  16.700  13.197  0.1375  0.2113 -0.1836
19144W        W38678   1.589  10.550  11.284 -0.3944 -0.0876  0.4725
19145W        W38679   5.078  13.928   1.729  0.0550  0.1015  0.0613
19146W        W38680  14.824  18.694   2.539  0.1694 -0.1328  0.2807
19147W        W38681  13.607  10.495  12.488 -0.0234  0.0110  0.2788
19148W        W38682  17.584   2.755  12.264  0.1869 -0.2758 -0.2044
19149W        W38683  11.167   7.940  12.235  0.0598  0.0808 -0.0053
19150W        W38684  12.811   3.512   1.812  0.1611  0.0636  0.0618
19151W        W38685  12.875  10.013  12.853  0.2290 -0.0073  0.0490
19152W        W38686  12.716  14.810   1.432 -0.1194 -0.4612  0.1910
19153W        W38687  15.880  12.911  11.329  0.1867 -0.4287  0.0516
19154W        W38688   9.395   2.975   1.928 -0.0607  0.1651 -0.0279
19155W        W38689   9.947  15.321   4.527 -0.3536 -0.0081 -0.1822
19156W        W38690   2.867  15.098   0.874 -0.2349  0.1216  0.0623
19157W        W38691  11.252   6.341   2.596  0.2427  0.2135  0.0608
19158W        W38692  12.877  11.636   0.122  0.1110  0.2196 -0.2112
19159W        W38693   6.574   1.873   1.227  0.0895  0.1315  0.0090
19160W        W38694  13.291   2.871  14.084 -0.4733  0.2327  0.1536
19161W        W38695  12.448  17.043  12.981 -0.2272 -0.1479  0.0440
19162W        W38696   6.096  12.729   1.359 -0.2332 -0.0372 -0.1419
19163W        W38697   2.501   3.977  11.753  0.0009 -0.2495  0.2975
19164W        W38698  13.098   5.282  12.126 -0.0255  0.0022 -0.1561
19165W        W38699   3.061   8.750   3.533  0.0064  0.1631  0.1526
19166W        W38700  18.889   6.391  10.367  0.1699  0.2233 -0.0500
19167W        W38701  10.397  10.070   1.429 -0.2096 -0.3140 -0.0331
19168W        W38702  12.973   4.689   3.644 -0.0213 -0.0884 -0.0336
19169W        W38703  12.712   6.881   4.511  0.4798  0.1397 -0.0808
19170W        W38704  12.269  15.691  11.431 -0.0056  0.0657  0.0561
19171W        W38705  18.617   5.482   0.142  0.0013 -0.2389 -0.0998
19172W        W38706  10.155  15.752  12.502  0.0075  0.1499 -0.1149
19173W        W38707  14.365   4.771  12.497 -0.1364 -0.2302  0.1001
19174W        W38708  16.029   7.287   3.379  0.0461  0.2353  0.2444
19175W        W38709  17.091  11.482  11.638  0.1684  0.0597  0.1049
19176W        W38710  17.133   1.201   2.564  0.1361  0.0630  0.0974
19177W        W38711   1.442   3.648   3.404  0.0287 -0.2272  0.2752
19178W        W38712  14.044  12.657   2.260 -0.0217  0.2098  0.0079
19179W        W38713   7.055  18.756  12.861 -0.1188 -0.1501  0.1433
19180W        W38714   1.194  16.368   3.844 -0.2277  0.0818  0.1662
19181W        W38715   9.067   2.505  11.587 -0.1725  0.2488 -0.2057
19182W        W38716  12.779   8.306   3.473  0.0410  0.0555 -0.3340
19183W        W38717   1.130   2.755  13.253 -0.0006  0.1525 -0.1909
19184W        W38718  11.425  14.575   0.485  0.2329 -0.0048  0.1616
19185W        W38719   5.816   6.146  13.002  0.1579  0.0011 -0.2319
19186W        W38720  15.011  13.008   2.128  0.2694 -0.0710  0.0995
19187W        W38721   8.391  18.114  13.468 -0.0923 -0.1112  0.2248
19188W        W38722  18.861  13.665  12.314 -0.1804 -0.1991 -0.1147
19189W        W38723  18.577  19.165  14.020  0.0857  0.0374 -0.2948
19190W        W38724   8.001  17.846   9.881 -0.2277 -0.2064  0.3358
19191W        W38725   1.832   1.922  11.181  0.0085  0.0457  0.1303
19192W        W38726   9.245   5.339  14.257 -0.0436 -0.0194 -0.3126
19193W        W38727   8.847  12.574   4.154  0.0160  0.2886 -0.3993
19194W        W38728  17.360   5.532  11.113  0.1727  0.0982  0.1328
19195W        W38729   8.694  18.717   2.949 -0.1942 -0.0044 -0.0215
19196W        W38730  12.311   1.801  11.470 -0.1505 -0.3671  0.0476
19197W        W38731  15.766   2.958   1.191  0.1619 -0.0760 -0.0017
19198W        W38732   8.233   4.276   2.248  0.4164  0.1750 -0.0647
19199W        W38733  11.862   3.696   2.840 -0.0062  0.2640  0.0006
19200W        W38734  18.488   7.515   0.102 -0.2675  0.1414 -0.3052
19201W        W38735   2.970  16.331  13.390  0.0277 -0.1499  0.1498
19202W        W38736  13.486   3.855  13.743 -0.2570 -0.1095  0.1053
19203W        W38737   8.544   5.375  13.615  0.1330  0.2290 -0.2134
19204W        W38738   7.073   0.959   9.718  0.1146 -0.1307 -0.1633
19205W        W38739   6.500   7.838  10.187 -0.0836  0.3224 -0.0593
19206W        W38740  10.511  11.671   3.077  0.0424 -0.0341  0.3028
19207W        W38741   5.868  11.190   2.261  0.1219  0.0397  0.1578
19208W        W38742   2.281   9.392   4.131  0.1074  0.2285 -0.1700
19209W        W38743  13.037   9.081  13.732  0.0195 -0.0109 -0.2136
19210W        W38744   6.735  14.616   0.534  0.0477  0.0204  0.2119
19211W        W38745   4.331  14.792   0.874  0.1357  0.4463  0.2834
19212W        W38746   6.725  17.025   4.397 -0.1209  0.0874 -0.1896
19213W        W38747  17.170   8.635   2.128 -0.1837 -0.2391  0.0641
19214W        W38748  13.230  18.954   0.701 -0.0588  0.1105 -0.1448
19215W        W38749   1.823  10.278   1.783  0.1464  0.0029 -0.0500
19216W        W38750  15.428   8.991   0.292  0.0173  0.3107  0.0876
19217W        W38751  11.967   1.675  10.583  0.1911  0.2314 -0.3754
19218W        W38752  17.038  13.903  14.099 -0.1711  0.0674 -0.1465
19219W        W38753  11.412   7.920  10.943 -0.2148  0.1568  0.0115
19220W        W38754   7.801  16.781   3.190  0.0300  0.3118 -0.0624
19221W        W38755  11.585  16.595  14.021  0.0848  0.1614  0.0509
19222W        W38756   7.248   1.916   0.537  0.1860 -0.1951 -0.3446
19223W        W38757   1.258  13.794  11.968 -0.1569  0.0923 -0.1557
19224W        W38758  16.823  19.164   1.551  0.1043 -0.0388 -0.4365
19225W        W38759  18.771   7.751  11.602  0.1643 -0.0656 -0.0175
19226W        W38760   5.155  17.543   3.932  0.1982 -0.0518 -0.1096
19227W        W38761  18.923  11.919  10.529  0.0372  0.1089 -0.2022
19228W        W38762   3.015  18.853   3.492  0.2919  0.0279  0.0022
19229W        W38763  15.897   8.452   0.913  0.0002  0.0367 -0.0227
19230W        W38764   1.650   2.688  13.224  0.1176 -0.1534 -0.1050
19231W        W38765  15.405   0.505   1.054 -0.0934 -0.2371 -0.0022
19232W        W38766   3.964   9.715  11.803 -0.1381  0.0139 -0.0810
19233W        W38767  10.931   1.785  14.046  0.3618  0.0236 -0.0751
19234W        W38768   3.091   0.338  12.425 -0.0962 -0.1803 -0.2733
19235W        W38769   9.847  16.337  12.140 -0.1017 -0.1234  0.2062
19236W        W38770   4.326  18.377   3.343 -0.0214 -0.1313  0.2204
19237W        W38771   3.781  18.164  10.482  0.1052  0.0887 -0.2299
19238W        W38772   0.945  15.445  12.997 -0.0854  0.2879 -0.0700
19239W        W38773   9.524   7.832   3.139 -0.0349  0.1852  0.2914
19240W        W38774  10.491   8.811   3.182 -0.1417 -0.1233 -0.0432
19241W        W38775  14.592  14.387  14.155 -0.0441  0.1715 -0.1140
19242W        W38776   7.572   2.669  10.906  0.3420 -0.3025 -0.0201
19243W        W38777   0.081   5.843  12.529  0.1370 -0.0768  0.4164
19244W        W38778   9.247  12.979  12.502  0.0538 -0.1420 -0.1311
19245W        W38779  14.857  14.057   9.407  0.1055 -0.2318  0.0248
19246W        W38780   7.435   8.786   1.890 -0.1179  0.2131  0.1747
19247W        W38781   8.940  11.636  11.743 -0.0995 -0.3596  0.0634
19248W        W38782  18.976  18.942  10.001 -0.1853  0.0097 -0.0496
19249W        W38783   2.318  10.354   1.519 -0.1254  0.0648 -0.1635
19250W        W38784  17.343  18.649  11.454 -0.1283 -0.2388  0.1482
19251W        W38785   0.942   1.664   0.981  0.2415 -0.2022 -0.1949
19252W        W38786   3.761  18.436   9.625 -0.4980 -0.0958  0.0643
19253W        W38787   1.656  17.227   1.820  0.0934  0.0080 -0.0482
19254W        W38788   0.327   1.426   0.352  0.0121  0.1385  0.2525
19255W        W38789  18.295   4.450  12.300 -0.0087 -0.1347  0.0140
19256W        W38790   0.779   3.432  11.526 -0.1879  0.0033  0.0525
19257W        W38791  14.432  17.280   3.074  0.0906 -0.0828  0.0353
19258W        W38792   7.925  14.010   4.580  0.1370 -0.1460 -0.2420
19259W        W38793   8.996   4.833  14.300  0.0952  0.1510  0.0506
19260W        W38794   0.764  11.476   0.930  0.2434  0.3718  0.0817
19261W        W38795  11.930   2.679   0.388  0.1134 -0.2019  0.0265
19262W        W38796   9.697   9.253  13.532  0.0969  0.4257 -0.0796
19263W        W38797  18.625   2.939   0.113  0.4468 -0.0519  0.0252
19264W        W38798   4.570  13.116   4.161 -0.1463 -0.1219 -0.0132
19265W        W38799  10.665  16.236   0.744 -0.2469  0.0576  0.0670
19266W        W38800  16.411  15.209  10.483 -0.0701  0.2900  0.0738
19267W        W38801  12.685  17.728  13.513  0.1265 -0.1506 -0.3341
19268W        W38802  17.683  13.594   2.674  0.1732  0.0868 -0.3441
19269W        W38803   1.619  16.695  10.959 -0.1465 -0.3433  0.2764
19270W        W38804   4.195   6.822   3.261  0.0868  0.0099  0.0562
19271W        W38805  13.062   0.834  13.322 -0.1499  0.0173 -0.0002
19272W        W38806  12.109  10.566  14.326  0.0003  0.3677 -0.2067
19273W        W38807  15.776   1.665  14.235 -0.1069  0.1511 -0.2972
19274W        W38808  15.312   8.100   0.102  0.0876  0.1309  0.2938
19275W        W38809  13.323   6.004   3.267 -0.6732 -0.1663  0.0304
19276W        W38810   3.725  15.456   0.027 -0.0175  0.0315  0.1603
19277W        W38811  11.215  18.803   0.034  0.4264  0.0114 -0.0531
19278W        W38812   8.380  14.504   1.624  0.3204  0.1683 -0.1205
19279W        W38813  11.746  16.593   1.824 -0.0058  0.2761  0.0600
19280W        W38814  11.689   2.744  13.029 -0.0985  0.0932  0.3599
19281W        W38815  11.249  11.894   3.583 -0.0672 -0.0072  0.0984
19282W        W38816   9.041  12.047  13.522  0.4577 -0.0359 -0.1088
19283W        W38817   9.311  17.087  13.050  0.0176 -0.1288 -0.0424
19284W        W38818  18.689   9.885  13.404  0.3354 -0.1066  0.1444
19285W        W38819   8.206  19.520  13.910  0.0199  0.0068  0.0665
19286W        W38820   8.245   0.274   0.708  0.2698  0.2726 -0.0919
19287W        W38821   3.080  19.286  10.967  0.0383 -0.0139  0.1268
19288W        W38822  10.682  14.981   4.545  0.2315 -0.1655  0.2380
19289W        W38823  13.013   1.876   1.293 -0.1441 -0.0959  0.0277
19290W        W38824   7.696  18.457   3.182  0.2534 -0.0481 -0.1792
19291W        W38825  15.681   5.054  14.250 -0.0095  0.4969  0.1510
19292W        W38826   5.095   7.286   0.345  0.3792 -0.0982  0.1224
19293W        W38827   7.326   4.195  13.681  0.1237  0.0794 -0.1575
19294W        W38828  10.466  13.961   1.283 -0.1716 -0.0752 -0.0898
19295W        W38829   2.361   9.921   0.669  0.0401 -0.2874  0.2395
19296W        W38830  13.446   0.085  10.867 -0.2297 -0.2529  0.0458
19297W        W38831   3.665  10.876  12.088  0.1309  0.2173 -0.0676
19298W        W38832   4.752   4.550   0.222  0.0490  0.0132  0.2778
19299W        W38833   4.241   9.192   0.719 -0.1384 -0.0383 -0.0673
19300W        W38834  17.971   6.182   3.239  0.1657 -0.3034  0.0711
19301W        W38835  17.139  12.317  13.700  0.2110  0.3541  0.2273
19302W        W38836   5.215   7.858  13.372 -0.0430 -0.0145 -0.1487
19303W        W38837   4.424   4.725   1.239 -0.1692  0.2372  0.2767
19304W        W38838  10.082  18.816  13.976  0.0175  0.2089 -0.3352
19305W        W38839   2.553  10.307   5.191 -0.0445  0.2786  0.1137
19306W        W38840  10.784   5.677  10.372 -0.0299 -0.3207 -0.2406
19307W        W38841   6.833  12.305   3.493 -0.2458  0.0563 -0.1286
19308W        W38842  15.162   8.280   2.973  0.0967  0.0964  0.1231
19309W        W38843   2.744  18.928   3.076 -0.0648  0.1113 -0.2982
19310W        W38844  14.916   7.220   1.647 -0.0593 -0.0311 -0.1703
19311W        W38845   1.910   1.499   0.866  0.0962 -0.0474  0.0666
19312W        W38846  12.750   8.222   2.959  0.0982  0.1865 -0.0831
19313W        W38847  16.400   5.454  13.567 -0.0323  0.1351  0.2196
19314W        W38848  13.047  13.345   1.207 -0.3592  0.2836  0.2480
19315W        W38849  13.221   7.217  13.250  0.1109 -0.3978  0.1209
19316W        W38850   4.554   7.126   0.528 -0.0698 -0.1007 -0.1412
19317W        W38851  12.593   4.722  11.675  0.1727 -0.1262 -0.3383
19318W        W38852   2.658   2.435  13.019 -0.0349 -0.2502 -0.0676
19319W        W38853  12.829   7.179   4.934  0.2999 -0.0035  0.0863
19320W        W38854   1.203  12.985  11.540  0.2044  0.1112 -0.0504
19321W        W38855   8.059  19.076  14.110  0.1577  0.1561  0.1076
19322W        W38856   6.965  16.748  13.658 -0.2327 -0.0263  0.1687
19323W        W38857  18.448   5.523   3.774 -0.0335  0.3742  0.1876
19324W        W38858   8.666   0.441  14.229 -0.2255 -0.2218 -0.1308
19325W        W38859  17.597   4.402   1.956 -0.0384 -0.1257 -0.0168
19326W        W38860  16.950   5.079   2.113  0.1186 -0.2287 -0.1102
19327W        W38861  12.417  12.239  11.961  0.1173  0.0435  0.1278
19328W        W38862   4.693   4.695  11.938  0.0249 -0.0436 -0.5873
19329W        W38863  18.971   6.450   1.180 -0.3702 -0.0751 -0.0714
19330W        W38864   8.644   3.887  10.661 -0.1550 -0.0353 -0.0180
19331W        W38865   5.004  12.919  11.563  0.0463 -0.1253  0.0714
19332W        W38866  11.868   0.400   9.403 -0.1036 -0.1260  0.0742
19333W        W38867  13.034  16.614   1.915  0.1960 -0.0152 -0.1304
19334W        W38868  10.077   1.084   2.374 -0.0815 -0.1820  0.1423
19335W        W38869   1.627   5.449   2.326 -0.0666 -0.0012 -0.1043
19336W        W38870  12.845   2.475   0.567 -0.3330 -0.2169 -0.0581
19337W        W38871   4.727   7.532   2.840  0.0234  0.1419 -0.0096
19338W        W38872  11.166  17.723   0.095 -0.0883  0.4291  0.0295
19339W        W38873   9.499   8.005   4.702  0.1385 -0.2018  0.1369
19340W        W38874   9.986  11.969  13.320 -0.2362 -0.0361 -0.4282
19341W        W38875  17.360  18.988   0.993 -0.2675  0.0494 -0.2422
19342W        W38876   1.548   9.856  12.929 -0.0193 -0.1695  0.0769
19343W        W38877   0.126  11.068   3.060  0.5419  0.0654 -0.5006
19344W        W38878   5.841  11.122   3.183 -0.0214 -0.0634  0.0091
19345W        W38879  13.414   0.532  11.090  0.0842 -0.0544 -0.1076
19346W        W38880   6.792  10.210   0.841 -0.1550 -0.3004  0.0439
19347W        W38881   9.300  19.160   1.246  0.0648 -0.1770 -0.0134
19348W        W38882  15.003   1.641  11.407  0.3046  0.0643  0.2040
19349W        W38883  12.257  16.739  10.946  0.0643  0.0814 -0.0395
19350W        W38884   7.766   8.093  12.906 -0.1628 -0.2272  0.0407
19351W        W38885  17.461   3.765  12.034 -0.0117  0.1446  0.0783
19352W        W38886  13.055  12.818  10.381  0.2045 -0.0968  0.1366
19353W        W38887   4.273  15.759  11.187  0.1762  0.2085  0.0749
19354W        W38888   9.536   2.452   1.772  0.0606  0.2187 -0.2336
19355W        W38889   8.781  14.807  10.789  0.3721 -0.2174 -0.0212
19356W        W38890  19.106   7.252   3.108 -0.0688  0.1235  0.0298
19357W        W38891   1.355   9.410   2.137  0.0354  0.1780  0.2702
19358W        W38892  13.586   1.001  13.375 -0.1657  0.3516  0.2683
19359W        W38893  10.826  18.344   2.978  0.1481 -0.0320 -0.0541
19360W        W38894  14.082  11.994   4.097  0.1377 -0.0254  0.1832
19361W        W38895  12.549   9.692   4.445 -0.0785  0.0278 -0.1737
19362W        W38896  12.146   1.947  10.962 -0.0984  0.1281  0.0415
19363W        W38897   2.577  10.204  12.847  0.1299  0.2759 -0.0731
19364W        W38898  10.539  18.649  13.779 -0.0462 -0.0794  0.0075
19365W        W38899   9.439   5.769   0.031 -0.1099 -0.1784 -0.4482
19366W        W38900   9.055   1.740  12.881  0.1561  0.1322 -0.3635
19367W        W38901   4.793   2.276  10.711 -0.2805 -0.0375  0.3962
19368W        W38902   6.088  13.773   2.803  0.2948  0.1669 -0.0880
19369W        W38903  16.013   3.293   0.446 -0.1381  0.1434  0.0059
19370W        W38904   7.258   5.287   1.629  0.2591  0.3421 -0.1907
19371W        W38905  17.410   1.646  13.430  0.1615 -0.0618  0.0458
19372W        W38906   8.640   9.193   2.051  0.2243 -0.2023 -0.0844
19373W        W38907  18.197   6.708  13.370 -0.3389 -0.1075  0.2725
19374W        W38908   2.038  14.736  11.546  0.0741  0.0976 -0.0519
19375W        W38909   5.026  15.509  11.348 -0.0006  0.0497  0.1726
19376W        W38910   2.273   8.172   0.533  0.0318  0.0129  0.1047
19377W        W38911  16.540  16.500   9.705 -0.1880 -0.1766 -0.2102
19378W        W38912  14.760  15.406  13.412  0.1462  0.0099 -0.2600
19379W        W38913  15.221   4.426   5.246 -0.0338  0.0128 -0.2333
19380W        W38914  16.840   9.714  12.425  0.4448 -0.0752  0.2399
19381W        W38915  18.684  15.812   9.704 -0.3255  0.1072  0.0624
19382W        W38916   1.888   2.493  13.816 -0.1127  0.2344 -0.0157
19383W        W38917  16.501   3.084   9.989 -0.2439 -0.0131  0.1075
19384W        W38918   8.610  10.081   0.490 -0.2903  0.2272 -0.0643
19385W        W38919  13.591   9.102  13.777 -0.2237 -0.0291  0.0659
19386W        W38920  10.568   6.018   3.991 -0.1161 -0.0055 -0.1524
19387W        W38921   1.099  12.261  12.162 -0.0203 -0.0092  0.1563
19388W        W38922   4.299  18.951   0.983  0.0263 -0.0801  0.1017
19389W        W38923  19.324   2.069   3.373 -0.3445  0.0982 -0.2119
19390W        W38924  18.832  14.269  13.055 -0.1992  0.3681  0.1822
19391W        W38925  17.951   1.687   0.943  0.3851 -0.6155  0.1785
19392W        W38926   0.183   2.220   1.733 -0.1938 -0.2841 -0.1552
19393W        W38927   0.262  11.294   0.196 -0.0009  0.2388 -0.0720
19394W        W38928  14.422   9.900  11.616  0.1595  0.0609  0.2027
19395W        W38929   6.028   1.461   4.710  0.3145  0.2759 -0.0622
19396W        W38930  12.800  12.115   2.611  0.1414 -0.0649 -0.0424
19397W        W38931   9.913   0.246   2.143  0.3028  0.1414  0.0330
19398W        W38932   4.350  16.509  13.007  0.2340  0.1392  0.3279
19399W        W38933  18.792  18.966   0.186 -0.3248 -0.1908 -0.1389
19400W        W38934   4.910   6.508  11.386  0.2952 -0.0436  0.1564
19401W        W38935   9.108  14.842  13.620 -0.1837  0.2738  0.0150
19402W        W38936  12.491   2.314  12.866 -0.0183  0.0776  0.0784
19403W        W38937   1.864  17.097  13.403 -0.0916  0.3091 -0.0687
19404W        W38938   6.979  11.426   3.279  0.0110  0.1636  0.4349
19405W        W38939  12.320  17.518  13.841 -0.2157 -0.3506 -0.1142
19406W        W38940  19.213   5.655  11.739 -0.2678  0.5996  0.0483
19407W        W38941   7.325  13.492   1.207  0.0259  0.1777  0.2173
19408W        W38942  12.455  15.084   0.298  0.0287 -0.0523  0.2532
19409W        W38943   8.769  12.661  13.002 -0.0153 -0.0371 -0.0986
19410W        W38944   2.202   2.638   2.585 -0.0824  0.1168 -0.2666
19411W        W38945   4.460  13.498  12.384  0.0960  0.3652 -0.0367
19412W        W38946  19.336  10.148  10.610  0.1891 -0.1838 -0.1623
19413W        W38947  16.887   4.141  13.660 -0.1925 -0.1889 -0.0575
19414W        W38948   5.998  18.079  11.030 -0.3584  0.0905  0.1390
19415W        W38949   4.767   1.709  11.827 -0.1268  0.0536  0.1592
19416W        W38950  10.502   4.542  13.565 -0.0095  0.2868  0.0765
19417W        W38951  10.243  18.254   1.173  0.0327 -0.3947  0.3872
19418W        W38952   9.130  15.661  13.424  0.2770  0.1616  0.1652
19419W        W38953  16.759   3.087  13.167  0.0589  0.0806 -0.2809
19420W        W38954  12.175  12.123   3.455 -0.2226  0.0614 -0.2300
19421W        W38955   0.785   1.856   4.041 -0.0533  0.2051  0.2390
19422W        W38956   9.302  10.246   3.496  0.0322  0.3069 -0.0665
19423W        W38957  18.589   0.317  10.384 -0.0965  0.0943  0.0101
19424W        W38958   8.609   0.193  11.873  0.0190 -0.0539 -0.0844
19425W        W38959  16.122  19.419  11.155  0.1594  0.0383 -0.0301
19426W        W38960   7.415   5.333  11.927  0.0102  0.2051 -0.0631
19427W        W38961  17.681  11.448  10.905  0.1535  0.0469  0.0682
19428W        W38962   0.454   2.317   3.903  0.0309 -0.1314  0.1400
19429W        W38963  17.385  12.309  10.949  0.3432 -0.1110  0.0165
19430W        W38964   1.630   8.800   1.017  0.0292 -0.2023 -0.0025
19431W        W38965   5.778   5.020   2.981 -0.0213  0.0052  0.3250
19432W        W38966  16.717   8.116   0.364 -0.2074  0.2258 -0.2225
19433W        W38967   7.412   7.512   3.598  0.2338 -0.2298 -0.1224
19434W        W38968   3.262  13.073  14.000 -0.1141  0.2070 -0.0501
19435W        W38969  13.466  15.039   0.002  0.2067  0.1559 -0.0749
19436W        W38970  10.752  15.465   1.804  0.0499  0.0790 -0.2242
19437W        W38971   9.471  13.994   0.027 -0.1239  0.0683  0.0488
19438W        W38972  14.761  17.797  13.102 -0.0110  0.1329 -0.0365
19439W        W38973   6.263   5.571  10.985 -0.0112  0.1451 -0.1817
19440W        W38974  16.974  15.032   4.029 -0.0096  0.0036 -0.1343
19441W        W38975  17.806   7.630   2.930  0.2844 -0.2240  0.0533
19442W        W38976  17.953   3.198   0.477 -0.0890 -0.1606 -0.3130
19443W        W38977   9.323  18.773  13.309 -0.2524  0.0597 -0.5169
19444W        W38978  16.289  16.297  12.358 -0.0151  0.2246  0.1642
19445W        W38979   7.294   3.783  13.345  0.0770  0.0257 -0.3920
19446W        W38980  15.676  11.840  13.815 -0.1688  0.1178  0.1421
19447W        W38981  12.014   4.934  10.625 -0.4579 -0.0699 -0.1018
19448W        W38982  10.935  11.302  10.977 -0.0523 -0.1267 -0.1448
19449W        W38983   5.536  19.355   1.361  0.0932 -0.0223  0.0615
19450W        W38984  14.246  11.048  12.328  0.0856 -0.0450  0.0325
19451W        W38985  14.692   6.978  13.745 -0.0457 -0.3641 -0.3930
19452W        W38986  12.958  18.840  14.051  0.0448 -0.2206  0.1765
19453W        W38987   4.728   0.896  11.570  0.0584 -0.0907  0.2213
19454W        W38988   3.160   3.160   1.569 -0.0020  0.1455  0.3077
19455W        W38989   6.064  17.436   1.599  0.3415 -0.1098  0.1594
19456W        W38990  19.461   8.891   3.256 -0.3006 -0.3724  0.1985
19457W        W38991   1.177   9.628   3.435 -0.3823  0.1475 -0.0740
19458W        W38992  10.627  18.837   0.470  0.0007  0.2344  0.0080
19459W        W38993  18.526   5.241  12.266 -0.1915 -0.0129 -0.1314
19460W        W38994   1.535  18.566   2.083  0.0497  0.0831  0.1585
19461W        W38995  17.100  10.350   1.686 -0.0371  0.0814 -0.0319
19462W        W38996   8.989  10.916   2.437  0.1004 -0.0190  0.0201
19463W        W38997   2.260   8.812  11.940 -0.3481  0.3145 -0.0227
19464W        W38998   4.824  15.880   0.195  0.0406 -0.0275 -0.2217
19465W        W38999  18.429   3.872   1.604 -0.1417  0.1725  0.0470
19466W        W39000   8.561  19.414  13.494  0.4091 -0.0316  0.0503
19467W        W39001  18.074   3.970  12.488  0.1921  0.0793 -0.0354
19468W        W39002   4.279   5.245   1.534 -0.1934  0.1044 -0.1785
19469W        W39003  16.369  15.949   1.258 -0.2402 -0.0341  0.0789
19470W        W39004   9.955  12.874   1.704 -0.1272  0.1006  0.0880
19471W        W39005   3.246   6.142  12.942  0.1008  0.0049  0.2357
19472W        W39006  15.740   4.087  13.327  0.1718  0.1799 -0.0389
19473W        W39007   5.179   0.077   3.533 -0.3350 -0.0587  0.3390
19474W        W39008   4.259   2.817  11.561  0.0360 -0.1203  0.0560
19475W        W39009   7.471   3.144   9.543 -0.2341  0.1178  0.0345
19476W        W39010  10.761   1.607  12.071 -0.1581  0.1215  0.0887
19477W        W39011  11.995  13.000   3.426 -0.1473 -0.3484  0.0519
19478W        W39012  17.400   4.037  13.466 -0.3257  0.1456  0.0351
19479W        W39013   2.807  19.361   3.341  0.1121 -0.1358  0.1143
19480W        W39014  15.094  15.848  12.692  0.0465 -0.1700 -0.1200
19481W        W39015   1.559  18.061  11.085 -0.1345 -0.1138  0.0789
19482W        W39016  11.107  15.485   3.100 -0.0914 -0.2883 -0.0501
19483W        W39017   1.639   6.614  11.542  0.1226 -0.2182 -0.1852
19484W        W39018   7.797   7.388  11.233 -0.3730  0.0938 -0.2047
19485W        W39019  16.137  15.649   1.590 -0.2944 -0.2159 -0.2050
19486W        W39020  19.351   4.903   1.686  0.0479 -0.0560  0.3986
19487W        W39021   9.756   7.475   3.663 -0.1867 -0.3480  0.1616
19488W        W39022   5.725  18.665  13.006 -0.0209 -0.0711  0.0270
19489W        W39023   2.167  14.718   1.246 -0.0633 -0.1591 -0.0071
19490W        W39024   6.268   4.676  14.230  0.0232 -0.1552 -0.0691
19491W        W39025  16.810  16.152   4.656  0.3525  0.1058 -0.2007
19492W        W39026   0.351   9.369   0.192 -0.0506 -0.0749 -0.1778
19493W        W39027   4.585   0.861   3.869  0.3462  0.3364  0.0760
19494W        W39028  14.127   5.101  13.487  0.1199  0.1203  0.0005
19495W        W39029   9.925  12.555  13.434  0.0432  0.3344  0.2919
19496W        W39030   9.505   6.957   3.094 -0.1442 -0.1126  0.2054
19497W        W39031   6.131  16.650  12.391 -0.2650 -0.0721  0.3384
19498W        W39032   8.395  19.420   3.700 -0.3335 -0.0606  0.1842
19499W        W39033  10.920  11.547   2.719  0.3064  0.3242 -0.2943
19500W        W39034  17.875   2.613   2.360  0.0685  0.0563 -0.1623
19501W        W39035   5.976   4.890   0.602  0.1202  0.2345  0.2359
19502W        W39036   7.793   1.242   3.788 -0.1135 -0.0315 -0.3550
19503W        W39037  10.948  14.835   2.354 -0.0961  0.0458  0.1875
19504W        W39038   5.901   3.515   3.239  0.0975 -0.0486  0.0560
19505W        W39039   5.350  17.230  11.294  0.1419 -0.0744  0.1783
19506W        W39040  17.598  16.889   9.567  0.3192  0.3100 -0.0194
19507W        W39041   9.693   7.637   4.390 -0.0742  0.1764  0.1433
19508W        W39042   5.803  14.340   0.432  0.0183  0.0803  0.4071
19509W        W39043   8.776   6.140  10.314 -0.1488  0.0559  0.0204
19510W        W39044   8.826  12.399   2.335 -0.0468 -0.1647 -0.0129
19511W        W39045  18.470  15.199   3.513 -0.0349 -0.3129  0.1254
19512W        W39046  18.480   2.810   3.059 -0.0620 -0.1830  0.2970
19513W        W39047   7.716   8.074   3.074  0.2829 -0.2835  0.2603
19514W        W39048  18.050  19.218   0.538  0.2135  0.2596  0.1636
19515W        W39049   4.191   5.162   4.126 -0.0552 -0.0664 -0.1305
19516W        W39050   8.301  16.191   3.690  0.5496  0.1499  0.0084
19517W        W39051  15.728  14.104   1.903 -0.1261  0.5979  0.0589
19518W        W39052  17.242  15.023  11.308 -0.0764 -0.2064 -0.4165
19519W        W39053   2.866  19.343  13.809  0.1916  0.1468  0.0652
19520W        W39054  16.130   2.491  13.701  0.0680 -0.2207  0.3549
19521W        W39055  10.048  18.403   3.519  0.0674 -0.0848  0.0631
19522W        W39056   1.558  13.190   1.223  0.4319  0.3570  0.1671
19523W        W39057  16.553  14.485  10.234  0.1281 -0.1150 -0.0549
19524W        W39058   7.007  14.923  14.135  0.1187  0.3866  0.0178
19525W        W39059  10.436   1.241   1.203  0.0389  0.0130  0.2366
19526W        W39060   4.229   4.985  12.017 -0.2353 -0.1819 -0.1183
19527W        W39061   8.596   4.324   1.554  0.1824  0.0463  0.3363
19528W        W39062   8.744  14.956  13.948 -0.1430  0.1672 -0.0496
19529W        W39063   7.810  10.302  12.467  0.0600 -0.0495 -0.2392
19530W        W39064   7.209   9.924   0.937 -0.2930  0.0176 -0.1282
19531W        W39065   4.876   9.146  12.995 -0.2898 -0.2564 -0.1496
19532W        W39066  10.079  19.165  10.800  0.0419  0.2507  0.0637
19533W        W39067   8.222  13.716   2.110  0.1979  0.4139  0.0743
19534W        W39068   4.855  11.412   0.414  0.0179  0.4023 -0.2411
19535W        W39069   8.830  18.669  14.274  0.0235  0.2078  0.2400
19536W        W39070   0.959  16.504  10.880  0.2045 -0.2477  0.2723
19537W        W39071   3.267   8.260   1.307  0.0615  0.2308  0.0744
19538W        W39072  13.450   9.360   2.184 -0.0749  0.1999 -0.1489
19539W        W39073   1.909  12.858   0.521  0.0447 -0.1459 -0.1975
19540W        W39074  18.701  19.137   4.102  0.0912  0.0084  0.0338
19541W        W39075  12.776  15.382  11.336 -0.1308  0.3743 -0.0753
19542W        W39076  15.045   9.407  12.342  0.2015  0.1485  0.2748
19543W        W39077   5.463   6.102   0.663  0.2264 -0.0351  0.0741
19544W        W39078   0.254  10.644   0.362  0.0084 -0.2523 -0.1118
19545W        W39079  17.552   7.979   3.910  0.0653  0.2396 -0.0723
19546W        W39080  17.495   8.104   0.828 -0.0207 -0.2006 -0.0389
19547W        W39081   9.560  13.349   0.964 -0.0133 -0.1628 -0.2372
19548W        W39082  14.449  15.312   3.186 -0.0504 -0.2283 -0.0983
19549W        W39083  11.134  13.939  10.804  0.0386 -0.2361 -0.1363
19550W        W39084  19.289   2.223  12.949 -0.3072  0.1005  0.0729
19551W        W39085   5.403  16.937   1.160 -0.0862  0.1376 -0.3049
19552W        W39086  19.172   6.661  11.075 -0.1371 -0.1164  0.2137
19553W        W39087   0.422   6.174   0.525  0.1513  0.2718  0.0832
19554W        W39088  10.558  14.202   1.984 -0.1719  0.0163  0.0867
19555W        W39089   6.478   4.218   0.839  0.0599  0.1722  0.1134
19556W        W39090   2.349  11.362   0.478 -0.0345  0.1068  0.0584
19557W        W39091   4.194   8.523   1.781 -0.0533 -0.1133 -0.2554
19558W        W39092  15.957  13.736   4.805  0.0764  0.2663 -0.1363
19559W        W39093  19.257  10.154   3.212  0.0390  0.0627  0.0994
19560W        W39094   8.263  17.993  10.312 -0.2101 -0.0834 -0.1190
19561W        W39095   9.795  12.654   5.343 -0.4190 -0.4401 -0.1219
19562W        W39096   8.665  15.821   0.016 -0.0362 -0.1618 -0.3927
19563W        W39097   7.658   3.329   0.698 -0.1508  0.2226 -0.3115
19564W        W39098  18.308   4.290   1.883  0.5200 -0.0528  0.4754
19565W        W39099  18.818  17.657   2.739 -0.1413 -0.2455 -0.0733
19566W        W39100   7.811   7.623   5.054  0.0244  0.0870 -0.2514
19567W        W39101  18.546  10.603   0.900 -0.1057  0.3623  0.0515
19568W        W39102   6.734  14.925   1.216  0.0245 -0.0997  0.0488
19569W        W39103   9.873  12.015   2.852 -0.0398  0.0601 -0.2327
19570W        W39104  10.491   7.159  11.322 -0.1571  0.1452  0.0062
19571W        W39105   6.247  17.904  12.292 -0.0478  0.1476 -0.0729
19572W        W39106  11.103   8.469  11.955 -0.0183  0.2242 -0.4346
19573W        W39107   5.752  10.841  12.673 -0.1605  0.0815 -0.0708
19574W        W39108   9.891   5.711  11.188 -0.0603  0.1219  0.0839
19575W        W39109   8.700  10.544   4.575 -0.1017  0.0959  0.0209
19576W        W39110   3.421  11.043   3.348 -0.2003 -0.0352  0.0228
19577W        W39111   8.282  15.343  11.930 -0.3575 -0.1725 -0.0106
19578W        W39112   2.530   1.754   1.056  0.1228 -0.1431 -0.1983
19579W        W39113   2.508  17.652  12.159 -0.1692  0.1819  0.2142
19580W        W39114   2.335  18.166   9.824  0.0660 -0.1191 -0.4819
19581W        W39115  17.416   2.399   2.364  0.5223  0.0476  0.0334
19582W        W39116  17.254   4.463   0.122  0.1167  0.0637 -0.1134
19583W        W39117  18.965   7.572  13.560  0.0090 -0.0207  0.0621
19584W        W39118  15.312   4.231   3.310 -0.0678 -0.3004  0.0964
19585W        W39119  11.795   3.488  10.595  0.4640 -0.2881 -0.0771
19586W        W39120  12.964   8.766  13.389  0.0781 -0.0178  0.2699
19587W        W39121   0.469   0.455   2.252  0.4408 -0.1676  0.0648
19588W        W39122  18.500  17.322   2.010  0.0317 -0.5190 -0.2417
19589W        W39123   9.150  10.426   0.778 -0.0792  0.0660  0.3978
19590W        W39124   4.878   8.523  11.300 -0.1097 -0.1361 -0.0321
19591W        W39125  13.935   7.111  12.687 -0.2390 -0.3717 -0.0010
19592W        W39126   1.692  18.804  13.557  0.3015 -0.0943  0.1895
19593W        W39127   3.569   1.856  13.851 -0.0207 -0.1168  0.2194
19594W        W39128   1.350  14.779  11.308 -0.3546 -0.0283  0.2362
19595W        W39129   9.424   0.110  13.493 -0.0868 -0.2619 -0.0464
19596W        W39130   6.482   0.746  10.796  0.1574  0.0974  0.0245
19597W        W39131   1.918  11.118   0.663 -0.0315 -0.2402  0.0720
19598W        W39132   8.217   4.096  14.188 -0.1020  0.0429  0.2029
19599W        W39133   7.308  12.721   1.438 -0.1830  0.1932 -0.0538
19600W        W39134  10.491  10.987  12.510  0.4246  0.1191  0.1366
19601W        W39135  12.532   7.904   2.666  0.2642 -0.3200 -0.0548
19602W        W39136   3.626  15.089  10.700 -0.4910  0.2164  0.1171
19603W        W39137   8.980   8.711   0.098 -0.0186 -0.5653  0.1943
19604W        W39138  12.900  11.654  12.689 -0.4293 -0.0215  0.2723
19605W        W39139  12.202  14.517  10.289  0.3268  0.0792  0.2117
19606W        W39140  14.035  11.394   2.369  0.2126 -0.0307 -0.0576
19607W        W39141  13.275   1.854  13.233  0.0680  0.1253 -0.0638
19608W        W39142  12.561  10.796   3.504  0.1697  0.1919 -0.0422
19609W        W39143  16.649  13.570   2.027  0.2855  0.1267  0.2594
19610W        W39144  12.719   1.424   1.112 -0.0215 -0.0375  0.1618
19611W        W39145  16.058   6.446  11.183 -0.3345  0.0610 -0.1874
19612W        W39146  15.470  10.243   3.046 -0.2002  0.2171 -0.0808
19613W        W39147   0.305  19.013   3.684  0.0163 -0.3360  0.1349
19614W        W39148  12.349  12.450   1.993 -0.1989 -0.1313 -0.3882
19615W        W39149  16.491  12.053   3.837 -0.0961 -0.1611 -0.0852
19616W        W39150  16.973  16.221   1.900 -0.1383 -0.2179 -0.1200
19617W        W39151  11.958   4.152   1.735 -0.2226  0.2648  0.0915
19618W        W39152  15.424  12.689  11.375  0.0388  0.0307  0.1668
19619W        W39153   4.915   9.868   2.560  0.0575 -0.3074 -0.0647
19620W        W39154   3.690  10.065   2.989  0.1000  0.1573 -0.2248
19621W        W39155   6.912   6.867   2.407 -0.3024  0.4650  0.2006
19622W        W39156  16.590   9.752   2.865  0.2118 -0.0170  0.0311
19623W        W39157  18.884  11.301   0.672  0.0352  0.3510 -0.4014
19624W        W39158   6.141  13.758  13.113 -0.2946  0.1919  0.0419
19625W        W39159   6.086   0.902  10.433 -0.0920 -0.1054 -0.1804
19626W        W39160   7.395  15.125   1.482  0.0909  0.1295  0.0932
19627W        W39161   9.007   4.282   3.465 -0.0776 -0.0913  0.0130
19628W        W39162   6.226   3.404  13.564  0.1443  0.0377 -0.1531
19629W        W39163  11.120   2.727   2.636 -0.0776  0.1439  0.0410
19630W        W39164  18.018  11.550   4.757 -0.1989 -0.0406 -0.3254
19631W        W39165   5.258  16.507  11.796  0.0359  0.3439 -0.3679
19632W        W39166  14.845   2.637   4.026  0.0737  0.0532 -0.1560
19633W        W39167  18.516  16.532   2.892 -0.1956 -0.4380 -0.2848
19634W        W39168  16.615   1.578  10.227  0.0359 -0.1836  0.0572
19635W        W39169  10.080   1.390  13.318 -0.0020  0.1291  0.0315
19636W        W39170  17.925  12.250  12.071  0.2535  0.1227 -0.1448
19637W        W39171  11.070  12.141   0.912 -0.1981 -0.1530  0.1629
19638W        W39172  12.886   6.726  12.168  0.0100 -0.0109 -0.0871
19639W        W39173  18.897   3.742   2.988  0.0584 -0.0049  0.0208
19640W        W39174   0.407  14.985   2.475  0.0957  0.1085  0.1264
19641W        W39175   5.768  18.814   1.125  0.2216 -0.0734  0.1739
19642W        W39176  13.436   8.681  12.584 -0.1697 -0.2575 -0.2688
19643W        W39177   7.034   3.772   3.325  0.2023 -0.0593  0.1556
19644W        W39178  13.762  11.916   3.198  0.1609 -0.2977  0.3285
19645W        W39179   2.036  12.422  14.173 -0.2794  0.3847 -0.1895
19646W        W39180  17.449   6.733   2.624 -0.1261  0.3118  0.1156
19647W        W39181   2.327   8.738  10.631  0.0483  0.2479 -0.0221
19648W        W39182  17.790   1.679   4.548  0.1472 -0.3067  0.2047
19649W        W39183  11.084   8.066  13.694 -0.1663 -0.2129  0.3069
19650W        W39184   7.247  17.286   2.760 -0.1107  0.0332  0.2914
19651W        W39185  16.917   0.818   0.914  0.1577  0.3104  0.1147
19652W        W39186   3.620  15.734   0.462 -0.0115 -0.2070  0.1578
19653W        W39187  17.304   9.204   3.133  0.0323  0.2391 -0.0395
19654W        W39188   4.019   5.178  14.023 -0.0714  0.2923  0.1838
19655W        W39189  17.649   8.644  12.328  0.3140 -0.2143 -0.1814
19656W        W39190   3.310  14.449   3.649  0.2206  0.0623  0.2201
19657W        W39191   6.910  18.054   3.956 -0.0996 -0.1660  0.0519
19658W        W39192   5.595   4.059  12.958 -0.0494 -0.0134 -0.3880
19659W        W39193   7.453   0.700   1.914  0.3816 -0.2728  0.1769
19660W        W39194  13.617  10.289   2.462  0.1135  0.0092  0.2687
19661W        W39195  18.132   7.592  12.528 -0.0255  0.0730  0.1152
19662W        W39196  18.137   4.304   2.469 -0.0684 -0.0021 -0.1243
19663W        W39197   5.392   7.370   3.031 -0.2700  0.0728  0.1709
19664W        W39198  15.556   3.739   2.437  0.0335 -0.0064 -0.0295
19665W        W39199  12.629  15.956   3.382  0.2120  0.2123  0.1880
19666W        W39200  17.201   0.333  11.795 -0.1669 -0.2901 -0.2273
19667W        W39201   5.607   2.559   2.340 -0.0345  0.0723  0.0993
19668W        W39202   3.950   2.824  12.798 -0.0913 -0.0216  0.0089
19669W        W39203  14.200   8.249  12.791  0.0481 -0.0888  0.2474
19670W        W39204  12.643   3.233   2.299 -0.0290  0.0057 -0.0582
19671W        W39205  13.319   0.041  13.742  0.0754  0.0025 -0.2830
19672W        W39206   9.063  13.612   2.331 -0.6386 -0.1884 -0.3460
19673W        W39207  12.385  16.641   3.126  0.2466 -0.0144  0.1438
19674W        W39208  11.889   1.657   3.281 -0.1686 -0.2870 -0.1431
19675W        W39209   3.198  16.579   3.844 -0.1174  0.0914  0.0008
19676W        W39210   1.293  10.595  13.311 -0.0358  0.0567 -0.0064
19677W        W39211  15.105  10.178   2.709  0.0644  0.0566 -0.1775
19678W        W39212  13.020  18.453  12.015 -0.3657  0.1211 -0.0974
19679W        W39213   4.971   5.537   2.132  0.2448 -0.0290 -0.1109
19680W        W39214   9.279   4.402   1.539  0.2693  0.1468 -0.0770
19681W        W39215   4.858   9.037  10.461 -0.0629  0.1820 -0.2410
19682W        W39216   8.399  14.707  11.610  0.1467  0.0101 -0.1162
19683W        W39217  11.080   9.581  10.638 -0.4918 -0.1251  0.0964
19684W        W39218   2.825   2.597   2.730 -0.3025 -0.0100  0.2467
19685W        W39219   4.117   2.108  11.279 -0.1587 -0.0934 -0.1921
19686W        W39220  14.131  10.325  13.378 -0.0423 -0.0057  0.5186
19687W        W39221  11.458  11.756  13.489  0.0590  0.1046  0.1483
19688W        W39222   4.311  13.861  11.155  0.2363  0.1666  0.0449
19689W        W39223   5.048  11.687  12.310 -0.0866  0.2042 -0.1388
19690W        W39224   1.620  13.645  12.384 -0.1649 -0.0947 -0.5140
19691W        W39225   9.687  17.300  12.816  0.0980  0.4017  0.0694
19692W        W39226   6.731  18.654  10.447 -0.3223 -0.2660  0.0835
19693W        W39227   4.592   2.093   2.461 -0.2514 -0.2656  0.0808
19694W        W39228   0.603  18.448   9.955 -0.3956 -0.1670 -0.0251
19695W        W39229  11.063  13.840  13.927  0.0517  0.1124 -0.2227
19696W        W39230  18.404   6.027   1.861 -0.2392 -0.2770  0.2667
19697W        W39231  16.464  15.828   3.025 -0.1299 -0.0482 -0.4576
19698W        W39232   9.736  15.152   3.277 -0.0790 -0.0744 -0.1537
19699W        W39233  14.304  14.662  10.689 -0.2239  0.1810 -0.0376
19700W        W39234  14.059  16.015   0.669 -0.1530  0.1693 -0.0744
19701W        W39235  17.317   1.889  11.626 -0.3920 -0.0335 -0.1790
19702W        W39236  13.866   2.491  14.038  0.1347  0.2349 -0.3127
19703W        W39237   9.493  16.240  10.389 -0.0108  0.2546 -0.1043
19704W        W39238   9.245  11.928  11.410 -0.3772  0.1856  0.0156
19705W        W39239   3.209  15.919   1.048 -0.2421  0.2380  0.1647
19706W        W39240   5.142  19.437  10.613 -0.2169  0.1962  0.2094
19707W        W39241   8.745   1.792   1.921  0.0107  0.3479  0.0948
19708W        W39242  16.092  19.022   2.288 -0.0081  0.1609  0.0266
19709W        W39243   4.603  18.503  12.028 -0.1594 -0.0168 -0.1523
19710W        W39244   7.029   7.571  13.198  0.1655  0.1580  0.0416
19711W        W39245  18.230   1.894   2.635 -0.2241  0.2005 -0.0491
19712W        W39246   5.207   5.119   3.155  0.1221  0.0321  0.0335
19713W        W39247  14.252   4.280  13.626 -0.1328  0.0292 -0.1707
19714W        W39248  14.447  12.473   2.808 -0.1365  0.2280 -0.0531
19715W        W39249   8.911  12.106   0.411 -0.2833  0.1342 -0.1031
19716W        W39250  11.849   9.732  12.710  0.3395 -0.0952  0.1171
19717W        W39251   4.947  18.351  10.038 -0.0896  0.0876  0.1112
19718W        W39252  18.385  14.665  14.270  0.0628  0.0834 -0.1085
19719W        W39253   1.901  18.828  10.934 -0.1631 -0.0504 -0.2703
19720W        W39254   2.232   2.713   3.375 -0.0505 -0.2636 -0.1081
19721W        W39255   7.930   1.163  13.802 -0.1877  0.3582 -0.0462
19722W        W39256  12.941   5.734   2.271  0.0965  0.0040 -0.3893
19723W        W39257   9.045   0.207  12.232 -0.0371 -0.0163 -0.1585
19724W        W39258  17.494   1.125  13.474 -0.0963  0.5103  0.1813
19725W        W39259   3.857  13.671   0.098  0.0084 -0.1193 -0.3252
19726W        W39260   0.649  11.053  13.980 -0.0761 -0.0856  0.3938
19727W        W39261  15.339  18.343  13.411 -0.2330 -0.2634 -0.0854
19728W        W39262   8.572  15.299  13.334  0.0334 -0.1919 -0.1415
19729W        W39263  15.304   2.387  13.350  0.2511  0.1499 -0.3032
19730W        W39264   5.083   8.608   2.056  0.4653  0.0662 -0.3611
19731W        W39265  18.912  11.910  12.317  0.1405  0.1561 -0.1323
19732W        W39266  10.291  13.198  11.583  0.0379  0.1809  0.0166
19733W        W39267   7.006  13.278   1.480 -0.2658 -0.0035  0.0483
19734W        W39268   0.010  16.044   2.877 -0.0463 -0.1076  0.0421
19735W        W39269   0.638   1.350   3.858  0.2276  0.2389  0.0221
19736W        W39270   3.986   9.280  11.522 -0.0694 -0.1074  0.2290
19737W        W39271  13.138  11.793  10.862  0.1831  0.1680  0.1277
19738W        W39272  16.279   3.307  13.171 -0.1199 -0.1181 -0.1293
19739W        W39273  17.486   7.268   0.077  0.2129  0.2989  0.1621
19740W        W39274  16.038   7.436  13.712 -0.0792  0.0359  0.1284
19741W        W39275  14.964  17.102   0.126 -0.0852 -0.0444 -0.0744
19742W        W39276   2.295   0.315  12.021 -0.1983  0.1106 -0.2621
19743W        W39277   0.888  11.313   2.815  0.1196 -0.0459  0.1284
19744W        W39278  17.110  12.995   0.354  0.0229  0.0312  0.0320
19745W        W39279  10.826  12.559   3.216 -0.2603 -0.1574  0.0237
19746W        W39280   6.909  16.539  11.977  0.1848  0.1089 -0.0544
19747W        W39281   6.462  14.943   0.188  0.1832  0.1279  0.0620
19748W        W39282  12.167   1.746   0.875  0.0098 -0.2358 -0.4309
19749W        W39283  14.224  16.357   1.467  0.2477  0.0387  0.0833
19750W        W39284   5.739   7.356  11.831  0.0403  0.0968  0.0901
19751W        W39285   8.605  16.682   4.848 -0.0219  0.1252  0.0221
19752W        W39286  12.515   0.589   3.456 -0.1709  0.3477 -0.1016
19753W        W39287  11.144  10.610  14.140  0.0401  0.1559 -0.1162
19754W        W39288   5.131   8.118   4.078  0.0295 -0.3107  0.0383
19755W        W39289  19.399  15.866   3.921 -0.1583  0.0471 -0.1945
19756W        W39290  15.879  16.391   2.915 -0.1440 -0.1359 -0.2277
19757W        W39291   8.645  16.243   9.380  0.1346  0.0195 -0.2036
19758W        W39292   6.120   0.298   0.370  0.2764 -0.1440  0.1481
19759W        W39293   4.151  10.313  10.181  0.3514 -0.2226  0.2190
19760W        W39294  12.666   8.856   3.627  0.1898  0.1998  0.0505
19761W        W39295  13.785   3.720   2.092 -0.0928  0.1669  0.0981
19762W        W39296   4.979   6.915   0.633 -0.0913 -0.1188 -0.1223
19763W        W39297   3.136  18.835  13.949  0.1708  0.0683  0.2614
19764W        W39298  18.804   0.863   3.134 -0.0062  0.0615 -0.0547
19765W        W39299   5.622  14.450   4.538  0.0427  0.2549 -0.3401
19766W        W39300   6.473  17.215  12.767 -0.0206 -0.1736  0.0321
19767W        W39301  14.111   6.291  11.640  0.2073 -0.2080 -0.1862
19768W        W39302  18.006   2.432  13.700 -0.0416 -0.0836  0.2079
19769W        W39303   7.664   2.058  12.055  0.0637 -0.0854  0.1108
19770W        W39304  14.507   5.855   4.424  0.0061  0.0314  0.0552
19771W        W39305  10.007   0.156  12.360  0.2382  0.4080 -0.2537
19772W        W39306  15.274  12.812   3.636 -0.1977  0.0111  0.0283
19773W        W39307  12.819   0.784  13.791 -0.0531 -0.0504 -0.1164
19774W        W39308   9.625  16.095  11.064  0.0558  0.4646  0.0685
19775W        W39309  14.446  14.193  11.078  0.2179 -0.0153  0.0314
19776W        W39310   5.712   7.233  10.628 -0.1869 -0.0758  0.0751
19777W        W39311   9.582  14.452   2.136 -0.0983  0.2039  0.2095
19778W        W39312  14.684   4.859  14.084 -0.4205  0.1468 -0.0949
19779W        W39313  16.762  11.036   0.442 -0.1250  0.0618  0.1519
19780W        W39314  15.433  14.946  12.114 -0.2812  0.2446 -0.3125
19781W        W39315   8.187  10.296  12.880  0.1520 -0.1417  0.3440
19782W        W39316  14.885   7.863   0.247  0.0215 -0.0405  0.2500
19783W        W39317  10.421  12.580   2.840  0.0339 -0.2558 -0.1726
19784W        W39318  13.967   3.432   4.010 -0.0376 -0.0654  0.1424
19785W        W39319   1.620  17.091  10.123  0.4354 -0.0775  0.2928
19786W        W39320   2.517  14.933  11.557  0.0326 -0.2158 -0.0351
19787W        W39321   2.904   3.063  13.983  0.0796 -0.2397  0.1678
19788W        W39322  14.701   5.642   0.678  0.0051  0.2230 -0.1293
19789W        W39323  15.746  17.381   9.414 -0.0158 -0.1244  0.1165
19790W        W39324  10.399  17.149   3.447 -0.1915  0.0429 -0.0113
19791W        W39325  17.959   4.543   0.206 -0.0401  0.1912  0.3220
19792W        W39326   5.887   1.063  13.373 -0.0643  0.0272  0.0749
19793W        W39327  10.949   1.995   0.732  0.0314  0.0784  0.2501
19794W        W39328   1.201  14.692   0.006  0.0712  0.2870 -0.2669
19795W        W39329   4.155   0.782   2.294  0.1455 -0.1769  0.0672
19796W        W39330  14.556  15.574   4.039 -0.0447  0.0164 -0.2221
19797W        W39331  15.885   5.128   4.013  0.2412  0.0886  0.4176
19798W        W39332   2.687  17.267  10.940 -0.0360  0.0299  0.1224
19799W        W39333   0.502  15.002  12.894  0.3456  0.1718 -0.1415
19800W        W39334   7.597  16.525  12.469 -0.2596 -0.1786 -0.0726
19801W        W39335  12.160   1.141  12.273 -0.1377 -0.0963  0.0089
19802W        W39336  16.831  11.594  12.093  0.1173 -0.1985  0.1467
19803W        W39337   0.364  13.056   4.433  0.0243  0.4276  0.3257
19804W        W39338  17.342  18.902  13.453  0.0918  0.3508 -0.2356
19805W        W39339   9.140   1.794   2.322  0.2228 -0.1152 -0.3382
19806W        W39340  18.448  12.895  12.143  0.1449  0.0703 -0.0070
19807W        W39341  13.716  12.080   0.748  0.3451 -0.0666 -0.0494
19808W        W39342   0.448  14.997   1.135  0.0620 -0.3131 -0.1184
19809W        W39343  15.599   2.817   2.070 -0.1849 -0.2021 -0.0039
19810W        W39344  13.532   9.462  12.020  0.2376 -0.0027 -0.1141
19811W        W39345  17.412  13.607   3.216  0.0125 -0.4318 -0.0709
19812W        W39346   0.828   9.242   4.557  0.1838 -0.1307  0.2450
19813W        W39347   6.153   4.455   3.515  0.0573  0.0403 -0.2424
19814W        W39348   7.007  16.854  10.332 -0.5312  0.0011 -0.0180
19815W        W39349  19.423   7.591   0.480 -0.2117 -0.0643  0.0967
19816W        W39350   6.118   3.951   3.475  0.1161 -0.2389 -0.3031
19817W        W39351   5.895  10.342  11.995 -0.0505 -0.0961  0.0672
19818W        W39352   7.622   0.785   3.606  0.2208 -0.0047  0.0950
19819W        W39353  18.145   6.203  13.559 -0.2919 -0.2269 -0.1158
19820W        W39354  19.012   9.240  12.654 -0.1124  0.1766 -0.2514
19821W        W39355   1.326   1.236  10.114  0.0915  0.0693 -0.0287
19822W        W39356   7.958   0.788   2.038 -0.2445  0.1349  0.0034
19823W        W39357   1.797  13.461  13.430  0.1013  0.2606  0.0536
19824W        W39358   1.935  13.674   2.576 -0.1344  0.1442  0.1896
19825W        W39359  11.859  18.814   2.009  0.3510 -0.1440  0.0065
19826W        W39360   6.945  17.952  10.655 -0.1158 -0.3045 -0.1658
19827W        W39361   1.145  18.180  12.015  0.3902  0.0714 -0.0290
19828W        W39362  11.251   7.425   2.670  0.1159  0.0631 -0.0351
19829W        W39363   8.866  16.324  12.944 -0.0681  0.1342 -0.0411
19830W        W39364  17.534   2.955   1.320 -0.1388  0.0821 -0.0790
19831W        W39365   0.862  15.901   3.565 -0.0796  0.0902 -0.2860
19832W        W39366   6.760   8.235  13.823  0.0941  0.1981  0.0934
19833W        W39367  18.424   5.284   0.658 -0.0684 -0.1215 -0.0391
19834W        W39368  14.995  12.753  11.709 -0.3582 -0.3526 -0.0799
19835W        W39369   5.624  17.200   3.558 -0.0482  0.2085  0.1571
19836W        W39370   3.141   7.136   1.811 -0.1868 -0.2748 -0.1320
19837W        W39371  14.740  15.937   4.412  0.0726 -0.0808  0.3919
19838W        W39372  15.419  15.153  13.310 -0.0947  0.1341  0.2556
19839W        W39373   8.925   4.450  11.966 -0.1680  0.0688  0.0688
19840W        W39374  13.834  16.825   9.604  0.2192  0.1414 -0.0242
19841W        W39375   6.410  19.250   0.822  0.0783 -0.1077  0.0013
19842W        W39376   2.689  18.460  10.038 -0.0086  0.0512  0.0370
19843W        W39377   0.705  16.422  13.001  0.1883 -0.1663  0.2444
19844W        W39378   1.281   6.046  11.661 -0.2028  0.2813  0.3584
19845W        W39379  16.989  11.169   1.279  0.2525 -0.0680  0.0756
19846W        W39380   0.922  17.717  11.813  0.0725  0.3498  0.1188
19847W        W39381  16.159  14.659  12.300  0.1524 -0.0710  0.2050
19848W        W39382   2.828   8.422  11.114  0.0230  0.2215  0.4103
19849W        W39383   7.909   5.617  11.874  0.0106  0.1385 -0.0803
19850W        W39384   0.855  18.797  12.252 -0.2504 -0.0880  0.2746
19851W        W39385   7.878  14.103   0.071  0.2118  0.0754 -0.2011
19852W        W39386   5.090  19.056  13.033 -0.0763 -0.2566  0.2105
19853W        W39387  18.083  18.040   2.518 -0.2135  0.0640  0.1928
19854W        W39388   9.896   8.293  10.714  0.1672  0.2329  0.1166
19855W        W39389  17.673  12.426  10.033  0.2532 -0.0017  0.2444
19856W        W39390  17.063   9.546   4.444 -0.2119 -0.2323  0.1899
19857W        W39391  18.376  16.628   0.435 -0.0921  0.1145  0.1706
19858W        W39392  14.000   5.751   1.224  0.0960  0.2575  0.2896
19859W        W39393  17.372  13.394   0.097 -0.0328  0.1399  0.3239
19860W        W39394   0.837   5.883  13.608 -0.2430 -0.2106 -0.1554
19861W        W39395  10.595  11.323  13.446 -0.0547  0.2037 -0.0859
19862W        W39396  18.299  17.824   0.809  0.2865 -0.0442 -0.3880
19863W        W39397   7.843  10.539   1.394  0.0075  0.2965 -0.1610
19864W        W39398   7.960   5.642  13.961  0.0067 -0.0120 -0.0776
19865W        W39399   4.271  10.818  12.424 -0.1032 -0.1100 -0.1805
19866W        W39400  16.985  18.045   0.736 -0.0385 -0.0410 -0.2202
19867W        W39401   2.010  10.685   2.485  0.1239 -0.1750 -0.2243
19868W        W39402   7.521   2.112   1.979  0.0961 -0.3089 -0.1601
19869W        W39403   8.936  16.127  11.768 -0.4572  0.0138  0.0744
19870W        W39404  17.189  14.155  12.333  0.0225 -0.0931 -0.0897
19871W        W39405   2.283  15.468  10.337  0.2234 -0.3331  0.1067
19872W        W39406  18.344  18.711   3.401  0.1387 -0.2877 -0.0007
19873W        W39407   2.166   4.028  11.398  0.1911  0.1515  0.4870
19874W        W39408   8.498   6.860   9.710  0.0914 -0.2316  0.1549
19875W        W39409  19.494  15.271  10.132  0.0299  0.1490 -0.0396
19876W        W39410   5.504  14.702  12.832 -0.1034  0.1539 -0.0703
19877W        W39411  18.260  11.142   4.674  0.0415  0.1396 -0.3399
19878W        W39412   8.495   4.400   3.637  0.1909 -0.0646  0.1188
19879W        W39413   3.559  15.558  10.847  0.1107 -0.1725  0.3472
19880W        W39414  14.640  15.255   0.895  0.0869  0.0396 -0.4277
19881W        W39415   4.734  15.849   2.611 -0.0327 -0.1500  0.0535
19882W        W39416  15.960   8.412   1.437  0.0148 -0.1276  0.0449
19883W        W39417   4.282   7.303   3.344 -0.0517  0.0035  0.2499
19884W        W39418   4.979   4.834   3.887  0.0976 -0.2205 -0.1616
19885W        W39419   3.364  14.247  12.825  0.1210  0.1538 -0.0054
19886W        W39420  10.050   3.177   4.234  0.2186 -0.1786  0.1931
19887W        W39421   1.111  10.652   3.432  0.0700 -0.2047 -0.1918
19888W        W39422   2.990   3.096  13.288 -0.0071 -0.1558  0.1700
19889W        W39423  18.240   6.014   5.278  0.1102  0.2774  0.1813
19890W        W39424  13.080   6.968   3.497 -0.0053 -0.0859 -0.2597
19891W        W39425   1.524   6.373   0.260  0.0466 -0.0913 -0.1482
19892W        W39426   9.144  18.649   1.311  0.2542 -0.0171 -0.1143
19893W        W39427   6.048   6.594  12.057 -0.1127  0.2434 -0.1726
19894W        W39428  11.637   1.160   3.298  0.0894  0.0881  0.0558
19895W        W39429   6.582  14.981  10.874 -0.1450  0.3015 -0.0567
19896W        W39430  12.039   1.209   2.339  0.1277  0.0277 -0.0141
19897W        W39431  15.558  15.361   3.414  0.1080  0.4703 -0.0399
19898W        W39432   7.275  14.343   1.438 -0.1662  0.1646 -0.0922
19899W        W39433   7.916  17.223   3.446  0.1604  0.0637 -0.0119
19900W        W39434   8.564   7.925  13.720 -0.2652  0.1121  0.0047
19901W        W39435   9.770   8.640  12.493  0.1489  0.1418  0.1814
19902W        W39436   5.595   9.050   2.626  0.0282 -0.0184 -0.2642
19903W        W39437   9.883   3.777  13.012  0.0859  0.1319  0.0228
19904W        W39438   6.484   3.083  13.877  0.3572 -0.0351  0.3982
19905W        W39439   5.178   8.646  12.243 -0.1150 -0.0719 -0.1754
19906W        W39440   4.545  10.804   2.992  0.0595 -0.1276 -0.2159
19907W        W39441  10.235  12.097   2.072 -0.0185  0.2931  0.3830
19908W        W39442   9.808   0.976  13.564 -0.0004  0.1438  0.1401
19909W        W39443   1.927   5.449   1.454 -0.4263  0.3180 -0.0979
19910W        W39444  16.325   4.239  13.351 -0.1668  0.0380  0.1516
19911W        W39445   8.491   1.078   2.106 -0.0507 -0.1195 -0.3144
19912W        W39446   3.537   6.385   1.798  0.0015  0.1574  0.0299
19913W        W39447   6.248   4.887  12.140 -0.1942 -0.0310  0.3463
19914W        W39448   6.068   5.864   1.354  0.0724 -0.1112  0.0673
19915W        W39449  18.598  11.254  13.791 -0.0599 -0.0451  0.1417
19916W        W39450   7.847   5.514   2.180 -0.1150  0.1437  0.2342
19917W        W39451  15.733   7.270  11.582  0.1649  0.0431 -0.3287
19918W        W39452  14.892  14.402  11.243 -0.0313 -0.0130  0.0373
19919W        W39453   9.918  11.440   1.512  0.2701  0.0665  0.1136
19920W        W39454  12.549  16.677  10.466  0.0523 -0.2785 -0.1285
19921W        W39455   3.588   2.613   3.354 -0.2170  0.1475  0.1270
19922W        W39456   8.150   8.535   2.354  0.0303  0.1011  0.0511
19923W        W39457  19.310   9.107   4.171  0.1690 -0.0573 -0.1239
19924W        W39458  11.030   1.325   0.017 -0.3874  0.1160 -0.1847
19925W        W39459  11.664   3.296  13.075 -0.2929  0.2107  0.1314
19926W        W39460  15.770   2.237  10.889 -0.0267 -0.1135  0.5857
19927W        W39461  11.354  18.954  10.155 -0.0455 -0.0534 -0.0307
19928W        W39462   0.454   2.290  13.778  0.0484 -0.1488  0.1826
19929W        W39463   0.043   4.391   3.113  0.1880 -0.2245  0.2154
19930W        W39464  16.042   3.745   2.661 -0.1531  0.1040 -0.1205
19931W        W39465   3.559  13.994  11.672 -0.1115  0.3048 -0.0364
19932W        W39466   4.274   7.282  11.279  0.5742  0.0422 -0.0405
19933W        W39467   0.384   5.174   2.607 -0.0625  0.2992  0.2317
19934W        W39468   8.604   3.453   0.397 -0.3256 -0.1283  0.1772
19935W        W39469  15.198  17.861  12.880  0.1747 -0.1180  0.0006
19936W        W39470  10.433  14.838  12.688 -0.0723 -0.0769 -0.0345
19937W        W39471  11.306  10.646   3.098  0.2758  0.1675 -0.3397
19938W        W39472  14.106   8.741   3.310  0.1875  0.1414 -0.1283
19939W        W39473  18.724  17.328   0.133 -0.0879  0.0950 -0.4036
19940W        W39474   4.388  11.161  12.094  0.0065 -0.2243 -0.0340
19941W        W39475  16.943   8.258  11.078  0.2853 -0.0083  0.0556
19942W        W39476  17.940  17.700  12.743  0.1184  0.1443  0.0069
19943W        W39477  12.346  11.724  11.860  0.0048 -0.0242 -0.1658
19944W        W39478   4.131  10.844  10.072  0.0983 -0.1577  0.2236
19945W        W39479   2.415   8.124  10.897 -0.1035 -0.0713  0.1130
19946W        W39480   4.162  10.150   2.758  0.0297 -0.2763 -0.1635
19947W        W39481   3.282   5.467   0.800  0.2357  0.0291  0.3193
19948W        W39482   1.555  17.448   0.847  0.1447  0.2166  0.0814
19949W        W39483   6.787   7.627   1.561  0.0711 -0.0020 -0.1172
19950W        W39484   0.486   7.142  11.967  0.0676  0.0439 -0.3603
19951W        W39485  11.528  18.967   1.643 -0.1302 -0.0379 -0.0999
19952W        W39486   5.116   0.068  11.430 -0.1841  0.1283  0.2595
19953W        W39487  18.852   2.290  13.290 -0.1136  0.1285  0.0720
19954W        W39488   5.729  13.139   3.965 -0.0256 -0.3575  0.0918
19955W        W39489   3.532  12.198   4.154 -0.0082 -0.1167 -0.1617
19956W        W39490   8.307  15.596   4.367 -0.0763 -0.1040  0.3057
19957W        W39491   2.506   8.739   1.346 -0.0329 -0.1054 -0.2270
19958W        W39492   7.259  18.697   5.116 -0.2172  0.2295  0.1690
19959W        W39493  13.730   2.266   0.383  0.1104 -0.0555  0.0812
19960W        W39494   8.198  17.413  12.671  0.0015 -0.2430  0.3426
19961W        W39495   4.551  16.985   5.021 -0.1962 -0.4950 -0.3417
19962W        W39496   1.941   4.519   0.024  0.0413  0.0885 -0.2902
19963W        W39497  13.767  10.704   4.079 -0.3188  0.0099 -0.0305
19964W        W39498  16.873  18.866  13.739 -0.0312  0.1757  0.1367
19965W        W39499   5.072  12.426  14.320  0.2249 -0.5153 -0.0472
19966W        W39500   7.236  11.122  14.101  0.0896 -0.2570  0.1845
19967W        W39501   3.854   3.963  13.366 -0.2472  0.1196 -0.0366
19968W        W39502   6.332  14.529   1.831  0.1196  0.0678 -0.1492
19969W        W39503   4.400   5.621  13.317 -0.1361 -0.0597  0.0505
19970W        W39504   4.764   3.355   5.060  0.0232  0.3475  0.1205
19971W        W39505  18.392  11.728   0.124  0.2407  0.1822 -0.0926
19972W        W39506   1.308  17.589  14.366  0.1323  0.1923  0.0543
19973W        W39507  15.085   2.117  12.558  0.0504  0.1056 -0.0242
19974W        W39508  19.315  16.846   2.325  0.0517  0.3239 -0.0801
19975W        W39509   2.263   7.517  12.625 -0.1352 -0.0705  0.0192
19976W        W39510  18.275   7.584  11.512  0.0790 -0.3094 -0.3387
19977W        W39511  10.091   2.499  10.830  0.0166  0.0965 -0.2766
19978W        W39512   9.262   4.805   2.098 -0.1431  0.0274 -0.1894
19979W        W39513   6.598  15.286  11.294  0.3606  0.1764 -0.0123
19980W        W39514   1.453   6.385  12.518  0.4100  0.0184 -0.0332
19981W        W39515  10.416  14.290  12.731 -0.2479 -0.1544 -0.0346
19982W        W39516  12.982   6.164  11.509 -0.0689 -0.3991 -0.3034
19983W        W39517   2.565  14.424  11.566 -0.1336  0.0932 -0.0884
19984W        W39518   3.596  12.352  12.909 -0.2917 -0.1298 -0.3693
19985W        W39519  13.001   1.880   1.807 -0.0146  0.1265 -0.0667
19986W        W39520   3.197  14.071  13.970  0.0210 -0.2780  0.0908
19987W        W39521   8.274  14.600  10.619  0.0702  0.1246 -0.0777
19988W        W39522  11.643   8.982  12.402 -0.1737 -0.0686 -0.1430
19989W        W39523  15.386   0.312  10.657  0.3924 -0.0032 -0.0073
19990W        W39524   9.156  11.331  11.459  0.0009  0.0360  0.3300
19991W        W39525  14.103   9.483  12.888 -0.2303 -0.1318  0.0029
19992W        W39526   2.273  12.536  11.548  0.0434  0.2573 -0.2194
19993W        W39527   9.079  14.067  13.940 -0.2646  0.4208  0.1562
19994W        W39528  17.866  11.280   1.260 -0.0684 -0.2823  0.0296
19995W        W39529   4.794   2.679  11.690  0.2870  0.1396  0.0851
19996W        W39530  10.418   4.374   1.531  0.1023  0.2977 -0.4061
19997W        W39531   5.651  15.878  13.187  0.1857 -0.0293 -0.0794
19998W        W39532  17.242  16.190   1.191 -0.1571  0.1359 -0.0474
19999W        W39533   5.215   2.429   0.714  0.1638 -0.2520 -0.1474
20000W        W39534  11.090   5.072   4.777 -0.1754  0.1025 -0.2067
20001W        W39535  12.658  15.710  12.925  0.2543 -0.2789  0.1455
20002W        W39536  14.154  18.747  13.300  0.1505 -0.2301  0.0987
20003W        W39537  10.234   9.588   2.129  0.0136  0.1234 -0.2173
20004W        W39538  15.915  10.247   3.356 -0.2182  0.0003 -0.0930
20005W        W39539  11.550   6.009   3.654  0.1391  0.1720  0.1690
20006W        W39540   0.463  15.340   1.557  0.1488 -0.4009  0.0024
20007W        W39541   9.312  13.293   3.112  0.0031  0.2222 -0.2653
20008W        W39542   9.743  15.313   3.753  0.0033  0.1110  0.0007
20009W        W39543  19.167   2.318  14.129 -0.3118  0.1599  0.0837
20010W        W39544  17.619   0.812   3.773  0.0299 -0.0557  0.0803
20011W        W39545   6.662  13.682   3.608 -0.0210 -0.3809 -0.0044
20012W        W39546   3.331  10.470   3.061  0.2128  0.1431  0.0888
20013W        W39547  11.618  14.702  10.387 -0.0868 -0.1239 -0.1099
20014W        W39548   4.972   1.971   1.297  0.0638  0.1739  0.0195
20015W        W39549  11.798   0.284   3.279  0.0800  0.3566  0.3190
20016W        W39550  15.238   4.131   2.411  0.3143 -0.2455  0.3032
20017W        W39551   3.376  17.908  14.115  0.1681  0.1004 -0.4291
20018W        W39552  13.637   2.787  10.683 -0.0279 -0.1832 -0.0947
20019W        W39553   4.423  17.954  10.662 -0.3003  0.1592 -0.1651
20020W        W39554  10.076   9.770   3.161 -0.0753  0.1258  0.1138
20021W        W39555   3.643   4.454  13.526  0.2366 -0.2422  0.0397
20022W        W39556  12.461   8.989   0.322  0.0839  0.0141 -0.2313
20023W        W39557  16.084   8.017  12.082 -0.2289 -0.1641  0.1246
20024W        W39558  18.183   7.250   3.331 -0.1459 -0.0302  0.0397
20025W        W39559   8.118   6.703  13.157  0.1417 -0.1126 -0.1867
20026W        W39560   2.742  10.585  10.040  0.4830 -0.1332  0.1877
20027W        W39561   4.032  14.124   3.806  0.1310 -0.2321  0.1013
20028W        W39562  11.231  15.450   1.988  0.3208 -0.2659 -0.0576
20029W        W39563  16.358  12.505  12.937  0.2676  0.2964  0.2975
20030W        W39564  17.061  11.565   3.465  0.0996  0.1013 -0.2376
20031W        W39565   1.939  17.311  12.786  0.0588 -0.1394 -0.1867
20032W        W39566  17.988  18.317   3.516  0.1662 -0.3189  0.1000
20033W        W39567  11.765  19.426  12.970 -0.0815 -0.2083 -0.4392
20034W        W39568   4.085   1.426  13.251 -0.0942 -0.1746  0.0373
20035W        W39569   9.266  15.429  11.008 -0.1025  0.0295 -0.0890
20036W        W39570  13.755  18.335  10.088  0.0348  0.0290 -0.1153
20037W        W39571   7.964   0.534   4.470  0.1172 -0.0461  0.1265
20038W        W39572  13.561  16.796   3.109 -0.2919  0.0944  0.1090
20039W        W39573   6.588   8.327   2.090 -0.0396  0.3107 -0.0741
20040W        W39574  15.997  11.182   1.920 -0.0964  0.2719  0.3779
20041W        W39575  10.803  15.137  13.622 -0.0622  0.0089  0.2307
20042W        W39576   9.494  14.659  12.655  0.0457  0.1490 -0.2438
20043W        W39577   3.841  17.908  11.406 -0.1316  0.1261 -0.0342
20044W        W39578  12.619   1.686  11.854  0.0530  0.0318 -0.1245
20045W        W39579  18.694   2.475   3.849  0.3851  0.2220 -0.0253
20046W        W39580   4.996  15.372  13.009  0.1503  0.1857 -0.0719
20047W        W39581   6.875  11.424   2.781 -0.3368  0.0279 -0.1338
20048W        W39582  14.027   5.352   0.363  0.2755  0.1345  0.2050
20049W        W39583   8.139  12.088  13.000 -0.0487  0.3002  0.4827
20050W        W39584   7.064  13.400   2.736  0.2339 -0.0366  0.2526
20051W        W39585  11.746  11.960   3.551 -0.4277  0.0698  0.1760
20052W        W39586   5.461   6.463   9.598  0.0546 -0.1574 -0.2357
20053W        W39587   7.647  10.834   2.335  0.0956  0.1433 -0.1503
20054W        W39588   2.141   0.529  13.116 -0.3537  0.0378  0.2610
20055W        W39589   1.829  16.481  12.146  0.0381  0.0800  0.1551
20056W        W39590  16.038   3.755   2.184 -0.0986  0.3389 -0.4290
20057W        W39591  12.672   4.748   2.434  0.2542 -0.0913 -0.0446
20058W        W39592  14.912  16.901   0.969  0.2477 -0.2779 -0.3553
20059W        W39593   5.737  13.607  11.102  0.3061 -0.1966 -0.2990
20060W        W39594   6.204  13.821   3.646 -0.1597 -0.2742  0.3449
20061W        W39595  12.234   5.165  12.604 -0.0451 -0.1061 -0.1484
20062W        W39596   4.100  18.801  11.795  0.0183  0.0600 -0.0009
20063W        W39597   3.476  16.454  12.940  0.0690 -0.1173 -0.0511
20064W        W39598  14.111  16.685   0.034  0.2733 -0.1891 -0.0559
20065W        W39599  17.081   5.820   3.807  0.0292  0.3893  0.0914
20066W        W39600   1.523   3.973   2.026  0.1445 -0.3421 -0.1805
20067W        W39601  15.087  11.601   2.845 -0.0152  0.1358 -0.1503
20068W        W39602  15.464   6.058   4.292 -0.0414  0.0077 -0.0497
20069W        W39603  12.136   7.405  11.016  0.2361 -0.3434 -0.0431
20070W        W39604  14.304   5.968  12.055 -0.3201  0.1354 -0.0805
20071W        W39605  16.271  14.113   9.567  0.2624  0.2864 -0.0084
20072W        W39606   7.687   1.539  12.682 -0.0673  0.2189 -0.0670
20073W        W39607   4.677  13.367  10.594  0.1217  0.0970  0.0244
20074W        W39608  16.694  12.147   1.124  0.2762 -0.0705 -0.1906
20075W        W39609  17.581  11.342   0.234 -0.1508  0.4241 -0.3168
20076W        W39610  16.932  17.534   3.126 -0.0671  0.3695  0.1334
20077W        W39611   4.587  10.532  12.090 -0.0353  0.0363  0.1611
20078W        W39612  16.696   3.596  12.986 -0.1387  0.3891  0.2781
20079W        W39613  11.573   2.551   0.036 -0.2485  0.1591 -0.0746
20080W        W39614  15.613  15.077   2.618 -0.1513  0.1443 -0.0770
20081W        W39615  11.815   3.312   1.194  0.1018  0.0391 -0.0612
20082W        W39616  13.799  12.555  10.717 -0.2061  0.3364  0.0554
20083W        W39617  18.698  19.253   1.705 -0.1212 -0.2521 -0.2983
20084W        W39618   7.199  13.045  11.802 -0.1413 -0.2335  0.0091
20085W        W39619   3.265   6.483   0.895 -0.1492 -0.3410  0.0622
20086W        W39620  14.790  10.207   1.630  0.0963 -0.1190 -0.1972
20087W        W39621   7.171   1.998  10.720  0.1945  0.2934 -0.0130
20088W        W39622  16.515   8.554   2.870  0.0167 -0.1287 -0.1393
20089W        W39623  14.071   1.781  12.834 -0.5238  0.0141 -0.0213
20090W        W39624   4.437  15.461  13.134  0.2083 -0.0011  0.1965
20091W        W39625  13.055  17.326  13.408 -0.0745 -0.4077  0.3065
20092W        W39626   0.073  14.309  11.493 -0.1520  0.0116 -0.2124
20093W        W39627   3.659   0.100  13.696  0.0533  0.0106 -0.1589
20094W        W39628   4.222  13.108   3.311 -0.2282 -0.0615  0.1013
20095W        W39629   1.396  18.111   2.286  0.1017  0.1843  0.1358
20096W        W39630  10.724  12.342  13.597 -0.3097 -0.1317 -0.5627
20097W        W39631   2.694  16.896  11.979 -0.0505  0.0555  0.1748
20098W        W39632  16.307   9.092   3.109  0.2098  0.1500  0.0504
20099W        W39633  12.404   6.380  13.974  0.0433  0.0930  0.3856
20100W        W39634  15.969   7.301   4.170  0.0133 -0.3243  0.2805
20101W        W39635   7.630   7.864  13.404  0.3661  0.1470 -0.2059
20102W        W39636   0.977  18.656   3.654 -0.1060  0.1078 -0.3281
20103W        W39637  15.092   1.581   9.067  0.0224  0.0853 -0.1073
20104W        W39638   3.944   7.171   2.960 -0.1314  0.0021  0.1295
20105W        W39639  18.382   2.720   2.259  0.2358  0.3471 -0.2156
20106W        W39640   8.196   7.385   1.560  0.0742 -0.0537  0.2836
20107W        W39641  14.324  11.818   1.449 -0.1697  0.2621  0.0858
20108W        W39642   5.354   5.157  11.569 -0.1415 -0.0429 -0.1296
20109W        W39643   1.276   3.592   2.492 -0.1692  0.1813 -0.1210
20110W        W39644   7.311  18.919   2.236  0.0700 -0.0021 -0.1581
20111W        W39645   4.204   7.588  12.122  0.2113  0.2139  0.1126
20112W        W39646  14.838   1.618   2.627 -0.2273  0.2236 -0.2320
20113W        W39647  13.869   5.644   2.549 -0.0505 -0.2951 -0.2384
20114W        W39648  13.759  19.082  10.059  0.4062  0.0160 -0.2090
20115W        W39649  10.886  18.960  10.924 -0.3488 -0.1466 -0.1344
20116W        W39650  10.249  19.461   2.471 -0.0641  0.1411 -0.0472
20117W        W39651  17.281  10.126  13.424  0.3666 -0.1148 -0.0954
20118W        W39652   2.554  15.101  10.617 -0.0028 -0.1124 -0.2094
20119W        W39653  11.133  12.499  11.905 -0.0603 -0.0975 -0.0003
20120W        W39654   8.637  13.033   5.400  0.1346  0.4172 -0.0214
20121W        W39655  14.602  14.966  12.695 -0.0682 -0.1290  0.0246
20122W        W39656  16.538  10.152   2.397  0.2064  0.0702  0.0109
20123W        W39657   1.309   3.834  14.109  0.1593 -0.2473 -0.2610
20124W        W39658  11.156   3.489   3.685 -0.1040  0.1097  0.1283
20125W        W39659  14.846   1.073  10.215 -0.1478 -0.1907  0.2382
20126W        W39660  10.171   7.875  12.147  0.0383  0.3267  0.1356
20127W        W39661  14.532  17.768   2.204 -0.0270  0.2488 -0.0263
20128W        W39662  14.055  13.806   3.322 -0.0263 -0.0270 -0.3902
20129W        W39663   8.925   9.001  10.677 -0.0058  0.1615 -0.1503
20130W        W39664   3.356  13.374  12.575 -0.1105 -0.0084 -0.1200
20131W        W39665   2.825   0.338   3.045 -0.1699 -0.0741  0.0329
20132W        W39666   1.360   7.931  13.470 -0.2394  0.0836 -0.3436
20133W        W39667   1.403   7.728   0.107  0.1170 -0.1906 -0.0901
20134W        W39668  16.514   6.933   2.524 -0.1096  0.4318 -0.0039
20135W        W39669   3.998   1.384   2.766  0.2502 -0.0686 -0.0492
20136W        W39670   5.856  14.267  14.320 -0.1709 -0.0141 -0.3807
20137W        W39671   7.341   3.945   2.307 -0.2247 -0.1159  0.0671
20138W        W39672  10.045  13.301  12.789  0.3841  0.0648 -0.1560
20139W        W39673   0.150  19.410   1.454 -0.0353  0.1559 -0.0008
20140W        W39674  17.315   5.741   2.779 -0.1492  0.0586 -0.3374
20141W        W39675   5.457  10.297   0.360 -0.0074  0.1912  0.0296
20142W        W39676   2.098  16.301  11.620 -0.0075  0.0567 -0.1890
20143W        W39677   8.168  12.769   2.760 -0.0188 -0.0467 -0.0971
20144W        W39678   1.968   4.462   3.092 -0.1876  0.0247 -0.1977
20145W        W39679   3.051   2.356  10.818 -0.4858 -0.2941 -0.4382
20146W        W39680  14.801  17.342  10.549  0.3755  0.1071  0.0236
20147W        W39681  16.655   2.227   2.717  0.2371 -0.0690  0.3147
20148W        W39682   5.433   7.354   3.698 -0.0606  0.0688  0.1176
20149W        W39683   2.575  15.425  13.888 -0.1540  0.0150 -0.1986
20150W        W39684   8.227  19.432   2.831 -0.2145  0.1760  0.0579
20151W        W39685   8.491   1.064   9.672 -0.0667 -0.1038  0.4241
20152W        W39686  10.475  11.467  11.138  0.0464  0.1814  0.0948
20153W        W39687  17.465  16.256  10.326 -0.2371 -0.2758  0.2178
20154W        W39688  14.383   3.641  10.747 -0.0660 -0.0904  0.0990
20155W        W39689   2.315   1.785   2.087 -0.1495  0.1679  0.0392
20156W        W39690   4.381  16.197  13.417 -0.0604 -0.0659 -0.1337
20157W        W39691   7.158  10.540   3.834 -0.2235 -0.1874  0.1148
20158W        W39692  18.477  17.116   2.569  0.0082 -0.3545  0.1480
20159W        W39693  15.061   4.041  13.832  0.0697 -0.2197 -0.0539
20160W        W39694  12.950  17.121   1.703  0.2180 -0.3129  0.0609
20161W        W39695  10.686  10.301   4.220  0.1343 -0.3394  0.0721
20162W        W39696   2.924  11.171  11.703  0.0148 -0.2858 -0.4226
20163W        W39697  15.388  14.129  12.192 -0.1789 -0.0482  0.0695
20164W        W39698  17.924  16.067   1.920 -0.1984 -0.2815  0.1591
20165W        W39699  11.998  16.299  13.906  0.0909 -0.2613 -0.0201
20166W        W39700  10.983   1.000   0.371  0.0155  0.0106 -0.1504
20167W        W39701   5.332  19.294   3.905  0.0263 -0.1916  0.0494
20168W        W39702   9.920  14.426   2.527 -0.0467  0.0853  0.1643
20169W        W39703   1.586   6.604   2.551  0.0330  0.0297  0.1463
20170W        W39704  12.453   7.766   0.749  0.2465  0.0569 -0.0255
20171W        W39705  18.619  18.647  11.108 -0.0405  0.1538 -0.1580
20172W        W39706   6.771  15.278  14.366 -0.0260 -0.1170 -0.0362
20173W        W39707  12.619   7.543  10.990  0.0667  0.1336 -0.3460
20174W        W39708   9.828   2.789   3.573 -0.0758  0.0566  0.0689
20175W        W39709   3.996  13.735   3.509 -0.2349  0.0718 -0.1072
20176W        W39710   7.056   9.401   0.104 -0.2615  0.2671  0.0850
20177W        W39711   3.899   3.814   9.986 -0.1305  0.1389  0.0130
20178W        W39712  18.564   7.876  13.090 -0.1420 -0.0779 -0.1090
20179W        W39713   5.325   3.847   3.817  0.1905  0.1294 -0.1201
20180W        W39714  13.519   4.598   1.412 -0.0129 -0.2380  0.0982
20181W        W39715  12.796  12.642  13.061  0.3029  0.0307  0.0788
20182W        W39716   6.094   0.708   0.669 -0.0156 -0.1127 -0.0873
20183W        W39717  11.321   7.717   2.240 -0.1382 -0.0097 -0.2404
20184W        W39718  14.216   0.973   2.817 -0.1801  0.3055 -0.1792
20185W        W39719   4.249   3.979   2.577 -0.1819 -0.0082 -0.1398
20186W        W39720   1.853   5.382  11.358 -0.0972  0.0783 -0.0384
20187W        W39721   6.899   4.071   4.028 -0.3767 -0.0907  0.0967
20188W        W39722  13.783  18.950  14.366 -0.0093 -0.2401  0.1330
20189W        W39723   1.026   5.761   2.738 -0.1496  0.1332  0.2890
20190W        W39724  13.043   4.539  13.267 -0.1262  0.0574  0.3755
20191W        W39725  11.525  16.066   1.003 -0.0086 -0.2604 -0.4269
20192W        W39726   0.598   4.194  12.025  0.1847  0.2727  0.0757
20193W        W39727  11.977  11.878   2.092 -0.3613 -0.0032  0.2127
20194W        W39728   0.994  18.830   4.234 -0.0465  0.0696  0.0919
20195W        W39729  11.190   9.737  13.688  0.0597  0.1883 -0.0451
20196W        W39730  10.011   9.009  12.779  0.0438 -0.0414 -0.2932
20197W        W39731  14.938   6.935   3.334  0.1006  0.2926 -0.2967
20198W        W39732   2.032   7.518  11.839  0.1967 -0.0521  0.1764
20199W        W39733  19.259  10.099  14.096  0.3339 -0.0416  0.0524
20200W        W39734  14.903  15.079  12.059  0.1376  0.2609  0.0664
20201W        W39735  14.066  19.264   0.381  0.1534 -0.0941  0.1999
20202W        W39736  13.068   8.252  14.027 -0.2854  0.4129  0.2230
20203W        W39737  15.316  17.566  13.815  0.0069 -0.0972  0.0057
20204W        W39738   4.247  15.223   1.899  0.1196  0.4845 -0.1723
20205W        W39739   3.858  12.578  10.966  0.2253  0.2477 -0.0148
20206W        W39740   1.626  10.338  12.822 -0.1946 -0.0064 -0.0411
20207W        W39741   6.521   3.950  10.697  0.0662 -0.0199 -0.2597
20208W        W39742  15.186  11.955   0.226  0.2568 -0.1251  0.1147
20209W        W39743   7.429   4.734   1.686  0.0397 -0.3547 -0.0318
20210W        W39744   8.278  13.660   0.801  0.2826 -0.1344 -0.0017
20211W        W39745   1.737   9.812  12.243 -0.1772  0.0002  0.1853
20212W        W39746   7.548  17.397  13.715 -0.0299 -0.3069  0.2056
20213W        W39747   3.261  11.678  12.582  0.1526 -0.2658  0.0934
20214W        W39748   4.139  13.983  11.618 -0.1534 -0.0346 -0.0060
20215W        W39749  17.430  11.837   2.831 -0.3610  0.1144  0.2757
20216W        W39750   1.452  10.559   3.131  0.0760 -0.2893  0.1091
20217W        W39751  17.182  12.715   1.131 -0.1717  0.1247  0.0126
20218W        W39752  12.138  17.536   3.191 -0.0138 -0.1012 -0.1694
20219W        W39753   9.293  11.212  11.948  0.0046  0.0436 -0.2031
20220W        W39754   8.750  17.795   4.084 -0.1177  0.2095  0.0720
20221W        W39755  13.794   9.319   0.976 -0.0054  0.0867 -0.1228
20222W        W39756  18.195  18.982  13.136  0.0589 -0.0385 -0.1219
20223W        W39757  11.978  12.754   1.910 -0.0471 -0.1693 -0.0165
20224W        W39758   9.788  17.767  12.604  0.4615  0.0645 -0.2443
20225W        W39759   4.193  16.189   2.912  0.0147  0.1353  0.0608
20226W        W39760  12.929   0.233  10.813  0.0247  0.1035 -0.1503
20227W        W39761   7.732  10.859   4.096 -0.2964 -0.2818 -0.1362
20228W        W39762  14.409  18.090  10.809 -0.1495  0.0070  0.1336
20229W        W39763  10.040  17.198   0.741  0.2990  0.1776  0.0192
20230W        W39764  13.439  16.562  12.329  0.0950 -0.1866  0.0818
20231W        W39765  18.160  13.069  13.483  0.1412 -0.0142  0.4344
20232W        W39766   3.786  10.526  12.654 -0.0784 -0.0123  0.0297
20233W        W39767  15.050   5.191   3.894 -0.0531 -0.2552  0.2296
20234W        W39768  10.930  11.260   0.537  0.2707  0.2663 -0.1883
20235W        W39769  16.247  11.793  12.319 -0.1409  0.3090  0.2537
20236W        W39770  11.091  10.688  11.030 -0.0871 -0.2164  0.2324
20237W        W39771  16.345  13.438   0.949  0.0738 -0.1539  0.0629
20238W        W39772  11.055  18.634  12.598 -0.0285 -0.0316 -0.0990
20239W        W39773  16.236  16.495  13.200  0.0234 -0.0728  0.0228
20240W        W39774   4.246  16.776   0.340  0.3547  0.2693  0.3577
20241W        W39775   2.471  13.764   1.274 -0.0776  0.3753 -0.1324
20242W        W39776  11.876  17.777  13.679 -0.2016 -0.1727  0.1019
20243W        W39777  11.368  13.029  14.033  0.1298  0.1259 -0.1439
20244W        W39778  15.187  13.675   0.194  0.2247 -0.0473 -0.0443
20245W        W39779   3.923   1.699   1.290 -0.0043 -0.0122 -0.1261
20246W        W39780  14.431  14.237   2.905  0.1307  0.0624 -0.3343
20247W        W39781   4.744   0.606   2.404  0.0967  0.1994 -0.0542
20248W        W39782   0.286  11.855  13.060  0.2604  0.1167  0.1302
20249W        W39783   6.439  13.534   1.308  0.0102  0.0309  0.3224
20250W        W39784   7.256  13.111  10.454 -0.0672 -0.3398 -0.0139
20251W        W39785  11.217  10.469  13.258 -0.0872  0.1588 -0.4491
20252W        W39786  12.240   6.577  10.656  0.0686 -0.0434 -0.0478
20253W        W39787  18.054  14.830  11.201  0.1240  0.3110 -0.3474
20254W        W39788   3.857   5.925   2.174 -0.1202  0.3313  0.2917
20255W        W39789   0.581  11.886   0.679 -0.1042  0.2318  0.0327
20256W        W39790   1.768   9.651   1.549 -0.1888 -0.1079 -0.0750
20257W        W39791   7.020   4.996  12.751 -0.0352 -0.1343 -0.1916
20258W        W39792  13.877   4.134   3.936  0.0856 -0.3731  0.1129
20259W        W39793   7.514   8.806  13.534 -0.1049 -0.2301  0.0417
20260W        W39794  19.237  10.612  10.988 -0.0167 -0.3310  0.2021
20261W        W39795  11.784  10.356   0.294  0.0861  0.0814  0.2194
20262W        W39796  17.258  14.507   2.862  0.2304  0.1806  0.6798
20263W        W39797   4.543   5.695   4.158  0.2181  0.0793 -0.2146
20264W        W39798  11.695  17.929   0.252  0.3997 -0.2024 -0.1623
20265W        W39799   9.659  12.117   1.127 -0.1600 -0.1081  0.1733
20266W        W39800   1.693  18.130   4.785 -0.1151 -0.2888 -0.1381
20267W        W39801  10.588  12.398  11.885  0.0722 -0.1702 -0.1218
20268W        W39802   5.932  12.209  11.452 -0.1964 -0.0649 -0.1784
20269W        W39803   5.483   4.978   0.663  0.0408 -0.1551 -0.0892
20270W        W39804  14.638   7.956   3.627  0.0841 -0.2685  0.1084
20271W        W39805  17.917   9.469  12.536 -0.0764 -0.4121  0.1047
20272W        W39806  16.703   4.941   0.877 -0.3964  0.1395 -0.0164
20273W        W39807   4.119  11.303  13.073 -0.2607 -0.1184 -0.1787
20274W        W39808   9.524  10.754  12.063  0.0299 -0.0959  0.0663
20275W        W39809  13.535   9.651   4.368 -0.2729  0.4519  0.2463
20276W        W39810   6.614  13.426  13.833 -0.1266  0.1289  0.1979
20277W        W39811   8.137   7.727  11.472 -0.0193  0.1765 -0.2184
20278W        W39812   8.602  11.234  13.062 -0.3652  0.0176  0.0088
20279W        W39813   1.969   6.935   0.390  0.1730 -0.0439  0.1248
20280W        W39814  18.858   3.498   1.229  0.1919  0.0351 -0.0393
20281W        W39815   3.531   5.385   4.942 -0.0866 -0.0195  0.1961
20282W        W39816  10.744   3.865   3.521 -0.0558 -0.3034  0.1036
20283W        W39817  12.542  10.600  12.357 -0.0125  0.0045  0.0637
20284W        W39818   0.411   3.546  13.687 -0.1683 -0.0954  0.2096
20285W        W39819   6.106  12.898   2.468 -0.2154 -0.1915  0.1148
20286W        W39820  11.820  16.336   0.072 -0.1877  0.1281  0.1255
20287W        W39821  11.589  17.354   1.486 -0.1897 -0.0238 -0.3258
20288W        W39822   9.548  10.149  12.404 -0.0641  0.1208 -0.5005
20289W        W39823  13.254  16.424  13.759 -0.1811  0.2417 -0.2112
20290W        W39824   1.780  15.246  11.517  0.1185  0.2092  0.0420
20291W        W39825   4.556   7.886   2.478  0.2084 -0.0466 -0.1639
20292W        W39826   2.646  11.108  12.204 -0.1310 -0.0428 -0.0712
20293W        W39827  15.711  11.331  14.042  0.0048  0.0409  0.1471
20294W        W39828  13.198  13.782   3.073 -0.0799 -0.0996 -0.2435
20295W        W39829   5.368  11.315   3.468 -0.2752  0.2099  0.3210
20296W        W39830  18.579  15.490  11.500 -0.0165  0.1251 -0.2694
20297W        W39831  18.296  11.999   2.797 -0.4534  0.4016 -0.2372
20298W        W39832   9.454  10.780  13.468 -0.0294  0.0541  0.0549
20299W        W39833   8.217  16.761  11.607 -0.0528  0.2039 -0.0326
20300W        W39834  17.933   6.216   4.189  0.0223 -0.2908 -0.1014
20301W        W39835   2.214  15.304   1.468 -0.0750 -0.2010 -0.0428
20302W        W39836   7.526  16.159   4.936 -0.1435 -0.2607  0.1757
20303W        W39837   1.870  15.651  13.528 -0.2079  0.2525 -0.0372
20304W        W39838  11.369  16.546  11.292 -0.0425 -0.0533  0.0673
20305W        W39839  16.773  12.756   4.841  0.0982 -0.2161  0.2254
20306W        W39840   0.597  12.679  11.001  0.1696 -0.3922  0.0399
20307W        W39841  14.108  10.693  13.783  0.0716 -0.0447 -0.0955
20308W        W39842  12.101   9.197   2.854  0.0421 -0.2592  0.0369
20309W        W39843   7.902   9.918  13.166 -0.3988  0.0276 -0.1068
20310W        W39844  17.496  19.125  11.345 -0.0297 -0.0665 -0.2058
20311W        W39845   1.035  18.422  12.509 -0.1310 -0.1656  0.2648
20312W        W39846  10.195  16.933   2.521 -0.1030  0.3958 -0.2610
20313W        W39847   1.056  16.848  12.846 -0.0370 -0.0657 -0.2746
20314W        W39848  14.081  10.481  10.589 -0.2774  0.2828 -0.2546
20315W        W39849  13.715   3.455  13.396 -0.4461  0.1586  0.2092
20316W        W39850  17.896   7.664  14.341 -0.0684 -0.1161  0.1978
20317W        W39851   0.786  16.106  14.258 -0.2128  0.2195  0.0203
20318W        W39852   8.804  18.963   1.101  0.2115 -0.0832  0.1108
20319W        W39853   5.646  15.690   1.311  0.2182 -0.0817  0.3274
20320W        W39854   7.263   0.405   2.315  0.1893 -0.1923  0.1656
20321W        W39855  18.471   2.702  12.713  0.0592  0.3238  0.2708
20322W        W39856  18.348  16.222  11.507 -0.2337 -0.0412  0.1280
20323W        W39857   4.583   5.699   2.855  0.3057 -0.0705 -0.1570
20324W        W39858   3.077  18.101   2.644 -0.1077  0.0120  0.1183
20325W        W39859   7.077  11.564   3.757  0.1034  0.0613  0.0698
20326W        W39860   0.514  18.088   1.273 -0.2260  0.0979 -0.0403
20327W        W39861   9.129   8.916   1.453  0.1430 -0.1866  0.1007
20328W        W39862   1.671   9.705  11.675  0.0910  0.2315 -0.0188
20329W        W39863  11.793  12.473   1.523  0.2797  0.0608 -0.1114
20330W        W39864  15.167  14.858  13.713  0.0075 -0.0619  0.0066
20331W        W39865   8.611  11.677   0.403 -0.3069  0.0612 -0.0495
20332W        W39866   7.070   7.866   3.705  0.1506 -0.0580  0.3132
20333W        W39867   7.226  13.138   2.277 -0.3049  0.1020  0.0685
20334W        W39868  14.362  19.235   9.977 -0.2994  0.2146 -0.3121
20335W        W39869  13.735  14.480   0.069  0.1029 -0.0529  0.3469
20336W        W39870  10.185   3.474   2.647  0.0838 -0.1309  0.2739
20337W        W39871  16.830  14.632   0.834 -0.0599 -0.3104 -0.0555
20338W        W39872   4.878   5.119  11.232 -0.1144 -0.0119  0.1132
20339W        W39873   1.236  16.872  10.529  0.3698 -0.1882  0.2997
20340W        W39874   1.635  11.570  14.240  0.0104  0.6126 -0.0990
20341W        W39875   0.031   2.672  12.814  0.0090  0.0144 -0.3669
20342W        W39876  11.458   0.867   1.364 -0.0325  0.2570  0.3200
20343W        W39877   3.452   6.886   3.154 -0.3151  0.0194  0.1219
20344W        W39878  13.437  18.449   0.599  0.0417  0.0509  0.1818
20345W        W39879   6.472  10.929   1.930 -0.0603 -0.4187  0.2793
20346W        W39880   0.267   7.580  12.129 -0.1780 -0.1454 -0.0575
20347W        W39881   4.923   0.455   3.241  0.2503 -0.1974  0.0635
20348W        W39882   2.381  14.587  12.965  0.0836 -0.0968 -0.1517
20349W        W39883   0.531  14.675  11.861  0.0452  0.1245 -0.2949
20350W        W39884   6.365   3.318   1.029 -0.0520 -0.1724 -0.0120
20351W        W39885  14.252  16.345  13.036 -0.3323  0.2274  0.0655
20352W        W39886   5.509  11.012   4.203  0.2108  0.0140  0.2579
20353W        W39887  14.429   4.374   3.917 -0.1396  0.3272  0.0868
20354W        W39888   9.109  16.713  12.693 -0.2510 -0.2097 -0.2661
20355W        W39889  11.014  15.291  10.768 -0.3165 -0.1195  0.1975
20356W        W39890   2.611   1.343  11.183  0.2631 -0.0818  0.1805
20357W        W39891   4.534   0.516  12.243 -0.2848  0.1975 -0.1248
20358W        W39892   4.501  10.975  13.889  0.2875 -0.2521 -0.0513
20359W        W39893   8.552   2.489   2.474 -0.2691  0.0362 -0.1801
20360W        W39894  12.947   8.074   2.438 -0.3473  0.0450  0.0162
20361W        W39895   7.686   5.828   1.706 -0.0913 -0.0677  0.0944
20362W        W39896   5.663   5.503  11.398  0.0357  0.0267  0.0065
20363W        W39897   6.990  10.578   3.070 -0.0926 -0.0274  0.2280
20364W        W39898   1.401  15.589   0.459 -0.1359  0.2662 -0.3875
20365W        W39899   8.344   3.056   2.559 -0.2761 -0.2746 -0.1675
20366W        W39900   3.851  18.418  11.946  0.1513  0.3176  0.0250
20367W        W39901  12.625  11.404  13.604 -0.2128 -0.0113 -0.5750
20368W        W39902   8.962  17.120  11.355 -0.1574 -0.0322  0.1176
20369W        W39903   2.567  13.495   0.864 -0.0460 -0.0107  0.3197
20370W        W39904   1.230   0.869   0.394  0.1269 -0.0662  0.2954
20371W        W39905  16.702   9.153  10.995 -0.3902 -0.3400  0.0402
20372W        W39906   7.799  14.874  12.703 -0.0591 -0.1760 -0.1455
20373W        W39907  17.443  12.631   1.876 -0.0529 -0.0621 -0.3455
20374W        W39908  17.141   3.684   0.820  0.0327  0.0357 -0.3005
20375W        W39909  16.589   5.360   4.208  0.0536 -0.3098  0.2582
20376W        W39910   2.471   2.221   5.007 -0.1993  0.1349  0.1491
20377W        W39911   3.585  19.474   5.304 -0.3069  0.2100 -0.0029
20378W        W39912  11.501  19.173  11.490  0.1299  0.2403  0.0572
20379W        W39913  18.648   0.693   1.519  0.2487  0.0783 -0.0806
20380W        W39914  17.405  10.005   0.800 -0.1552 -0.2789 -0.1917
20381W        W39915   0.417   3.762  11.405 -0.3187  0.3787  0.2064
20382W        W39916   5.862   5.302   0.885  0.1826  0.0027 -0.1764
20383W        W39917   5.874  17.777   2.476  0.1508 -0.0305  0.0247
20384W        W39918   7.440  19.428   2.249 -0.1349  0.0782  0.0534
20385W        W39919  10.497  15.525   1.020  0.1707 -0.2044 -0.0532
20386W        W39920  18.815  12.519   1.106 -0.0747 -0.0538 -0.0723
20387W        W39921  16.223  15.873  13.865 -0.3202 -0.0992 -0.3139
20388W        W39922   9.726  14.822   3.820 -0.3858 -0.1706 -0.1568
20389W        W39923   4.729   7.189  12.084  0.0776  0.1164 -0.2556
20390W        W39924   0.542  12.668   3.003 -0.0225 -0.0299  0.2361
20391W        W39925  15.850   4.907  10.111 -0.0370  0.0578 -0.0874
20392W        W39926  13.470   1.330  10.140  0.2446 -0.2710  0.1041
20393W        W39927   4.103   6.926   3.846  0.2609 -0.0452  0.1445
20394W        W39928   8.603  13.006   3.607  0.0003  0.0862 -0.0015
20395W        W39929  12.696   6.811   1.437 -0.3275 -0.1284 -0.0864
20396W        W39930  15.097  15.817  10.563 -0.2299  0.0603 -0.1650
20397W        W39931   6.198  15.878  13.087 -0.3706  0.0517 -0.3349
20398W        W39932  12.859  19.275  10.504  0.2353  0.1117  0.0143
20399W        W39933   6.285  19.202   3.662 -0.3043  0.4887  0.0130
20400W        W39934   3.211   3.933   2.361 -0.1173  0.2427 -0.1085
20401W        W39935  16.296   2.994  11.911 -0.0348  0.2601  0.1551
20402W        W39936   0.138  17.599  11.434  0.1102 -0.0887  0.3010
20403W        W39937  18.360  15.138   1.106 -0.1873 -0.1154  0.2111
20404W        W39938  19.218   3.435  10.260 -0.1933 -0.0708  0.0157
20405W        W39939   9.441   5.782   2.916 -0.0858 -0.1491 -0.1093
20406W        W39940  11.839   6.584   0.796  0.2070 -0.0676  0.1379
20407W        W39941   1.169  17.200  12.106 -0.1831 -0.3979 -0.1122
20408W        W39942  13.379  10.439   3.848 -0.0507  0.0041 -0.0237
20409W        W39943  17.951  12.527   1.825  0.3068 -0.2510 -0.0918
20410W        W39944  13.913   9.916  13.650 -0.1006  0.0429 -0.2209
20411W        W39945   2.714   1.537   5.310 -0.2356  0.0859 -0.0795
20412W        W39946  19.233   3.240   3.388 -0.0166 -0.1194 -0.0841
20413W        W39947  14.274  14.862   1.596 -0.0198 -0.0477  0.4296
20414W        W39948  18.694  18.367   3.220 -0.1218 -0.0493 -0.0156
20415W        W39949  18.863  13.278  11.925  0.2383 -0.0284  0.1010
20416W        W39950  10.441  11.042  11.426  0.1435  0.2196  0.0514
20417W        W39951  17.830  17.931  11.145  0.1807 -0.0265  0.2317
20418W        W39952   7.264  19.419  11.578  0.0126 -0.4614 -0.1261
20419W        W39953   8.391   1.825  13.216 -0.3708 -0.0697 -0.0887
20420W        W39954  17.174   7.781  14.036 -0.2726 -0.0928  0.2320
20421W        W39955   4.371   6.588  11.409  0.1318 -0.2483  0.1770
20422W        W39956   3.925  18.424   2.563  0.1193  0.2419  0.1225
20423W        W39957  18.158  11.580   2.464  0.0239  0.1206  0.2854
20424W        W39958   4.972  18.273  12.338  0.2399 -0.1409 -0.0572
20425W        W39959   0.581  16.991  13.750  0.1753  0.2132 -0.0280
20426W        W39960  11.219  12.976   4.189 -0.0257  0.2385 -0.0155
20427W        W39961   9.643   6.867   2.219  0.0388 -0.0735  0.0433
20428W        W39962  11.928  16.002  11.602  0.2860  0.1422  0.2862
20429W        W39963  17.507   4.908  11.073  0.0476 -0.0055  0.3012
20430W        W39964  12.797  13.691   1.470  0.0600  0.2576 -0.0701
20431W        W39965   3.315  10.024   4.242  0.1380 -0.1492 -0.1190
20432W        W39966   5.183   4.976  12.053 -0.0217 -0.0832  0.0608
20433W        W39967   0.958  15.073  13.320 -0.2050 -0.1146 -0.1003
20434W        W39968   3.649  17.008   1.914  0.0482  0.0880  0.2483
20435W        W39969  14.602  11.629   3.192  0.1317 -0.1647 -0.2140
20436W        W39970  11.715  14.941  11.115  0.0567  0.0387  0.1627
20437W        W39971  13.703   7.627  14.222  0.4023 -0.1602  0.0525
20438W        W39972   2.433  17.425   0.118  0.1881 -0.0900 -0.0571
20439W        W39973  15.145   4.353  14.354  0.2998  0.1386  0.0536
20440W        W39974  10.466  17.105   0.382  0.1165  0.2097  0.0732
20441W        W39975   6.624   9.145  13.176 -0.1571  0.3093 -0.1667
20442W        W39976   2.681   0.091  12.145  0.0425 -0.0978  0.0508
20443W        W39977  10.056   3.948   1.739  0.2273  0.0447  0.3347
20444W        W39978   7.175   9.190   1.008 -0.0985 -0.0936  0.4611
20445W        W39979   6.752   2.596   1.061 -0.0374  0.0148  0.0007
20446W        W39980   9.886   6.319  11.261 -0.1777  0.0333  0.0370
20447W        W39981  15.849  14.028   3.038  0.2269 -0.0160 -0.0352
20448W        W39982   7.521  15.557  11.297  0.0766 -0.1060 -0.1963
20449W        W39983   6.513   8.680  13.690  0.0614 -0.1072 -0.2706
20450W        W39984  19.492   1.984   3.846  0.0968 -0.1485  0.0516
20451W        W39985   4.027   4.134  11.550 -0.2879  0.3424 -0.0730
20452W        W39986  11.703  10.899  10.626 -0.0706  0.1675 -0.2706
20453W        W39987  15.327   6.736   3.015  0.0237 -0.2189  0.0876
20454W        W39988  19.458   4.881   1.159 -0.1370  0.0820 -0.0067
20455W        W39989   4.833   1.981   2.867 -0.1195 -0.0189 -0.0581
20456W        W39990   3.989  13.115   0.994  0.4946 -0.0835 -0.2447
20457W        W39991  12.861  16.405   3.288 -0.0027 -0.1241 -0.3093
20458W        W39992  12.229   9.692  14.151 -0.0434  0.0038 -0.2299
20459W        W39993   4.559   0.968  13.505 -0.2532 -0.2052 -0.2367
20460W        W39994  12.076  10.760   1.645 -0.2441  0.2442 -0.0720
20461W        W39995   3.438   8.478  11.542 -0.2008  0.1098 -0.4454
20462W        W39996   9.163   1.587  10.325  0.1785 -0.1303 -0.2286
20463W        W39997  11.392   6.553  10.696  0.3808  0.1797 -0.1573
20464W        W39998  11.002  11.381  11.777 -0.1505  0.2545  0.2525
20465W        W39999  16.878  12.774  12.977 -0.2436 -0.2031  0.0395
20466W        W40000  12.946   7.294   2.805 -0.0211  0.2605 -0.0626
20467W        W40001   6.201  14.671   0.554  0.2510 -0.3027 -0.0422
20468W        W40002  16.987  13.156  12.170 -0.0528 -0.2708  0.2846
20469W        W40003  17.664  12.741   2.821  0.2716 -0.1568  0.1107
20470W        W40004  18.736  13.143  10.396  0.1438  0.0426  0.4250
20471W        W40005   1.902  12.514  11.946 -0.1802  0.1509  0.0434
20472W        W40006   2.185  14.942   0.250  0.0894 -0.1078  0.3140
20473W        W40007  14.618  16.270   4.069 -0.2379 -0.0251 -0.0923
20474W        W40008   2.693  13.833  12.274 -0.0549 -0.0899  0.2762
20475W        W40009   8.974  17.860  11.825  0.0442  0.0559  0.0598
20476W        W40010   4.965   6.214   0.014 -0.0936 -0.0187 -0.1697
20477W        W40011   4.744  15.379   1.962 -0.3208 -0.0847  0.0242
20478W        W40012   6.315  19.318  12.627 -0.1120  0.0586  0.0881
20479W        W40013   2.364   7.199  13.032  0.0419  0.0263  0.2897
20480W        W40014   7.856  15.916   3.762 -0.0322 -0.4996 -0.0625
20481W        W40015  19.153   3.979   9.398  0.4288  0.2355  0.2027
20482W        W40016  11.570  13.959  14.047  0.0921 -0.1536  0.0430
20483W        W40017  12.564  15.550   2.581 -0.0069 -0.1063 -0.1060
20484W        W40018  18.253   5.600  11.390  0.3113  0.0403  0.1646
20485W        W40019  12.533  14.574  11.439 -0.0256 -0.1337 -0.1839
20486W        W40020   6.831   3.534   1.155  0.4017  0.2765  0.0074
20487W        W40021  15.935   4.503  13.901  0.2855  0.2312 -0.0389
20488W        W40022   7.015  15.599  11.385  0.2629 -0.2412  0.1960
20489W        W40023   3.475  15.974  13.768  0.1873  0.0666  0.2805
20490W        W40024   8.143   6.402   4.349  0.2676  0.1826  0.2208
20491W        W40025  14.739   5.805   2.837 -0.1105 -0.0367  0.1516
20492W        W40026  12.561   9.228   2.671 -0.1339  0.5063  0.3418
20493W        W40027  11.051   3.641   1.996 -0.1257  0.3890  0.2477
20494W        W40028  14.513  19.214   3.108  0.3425 -0.0977 -0.0130
20495W        W40029   4.180  10.720  12.952  0.0320  0.0317 -0.1635
20496W        W40030   4.437   3.390   0.804  0.1382 -0.0214 -0.1730
20497W        W40031   1.013   4.634  13.345 -0.2330 -0.0564  0.0302
20498W        W40032  16.272   4.599  10.709 -0.1916  0.1782 -0.0794
20499W        W40033  12.609  11.856   1.838  0.1991  0.0535 -0.1918
20500W        W40034   7.975  17.194   2.071  0.0944 -0.2456 -0.0151
20501W        W40035   9.598  18.631  12.425  0.2554 -0.0323 -0.0299
20502W        W40036  10.779   3.953  11.289 -0.2515 -0.2342 -0.0278
20503W        W40037  17.689   0.985   9.653 -0.0465 -0.0670  0.1575
20504W        W40038  13.080  16.935  10.868 -0.1412 -0.1192 -0.0217
20505W        W40039   4.926   9.350  10.076 -0.0614  0.3240 -0.1434
20506W        W40040  13.841  15.172  11.063 -0.0943 -0.2649 -0.2019
20507W        W40041   7.695   9.209   0.996  0.0957  0.0450  0.1091
20508W        W40042   3.361  10.624  12.367 -0.0062 -0.1364  0.0870
20509W        W40043  14.798   0.828  13.133 -0.3132  0.0571  0.2413
20510W        W40044  11.054   3.176   4.117 -0.0199  0.0458 -0.2386
20511W        W40045   3.518  14.959   2.321 -0.1420  0.2257 -0.2838
20512W        W40046  10.743   1.950   1.462  0.1191  0.0963 -0.0285
20513W        W40047  15.679  16.436   1.696 -0.0133  0.1906 -0.1053
20514W        W40048  12.556   8.971  13.853  0.3253 -0.1800 -0.1924
20515W        W40049  15.305   2.407   2.150 -0.4718  0.2001 -0.0868
20516W        W40050  17.740  14.536   2.671  0.4373 -0.5623  0.4943
20517W        W40051  15.086   2.952  10.309 -0.1959  0.2186  0.4176
20518W        W40052   4.000   7.940   0.405 -0.1591 -0.0457 -0.3477
20519W        W40053  15.060   9.817   0.919 -0.0459  0.1603 -0.0392
20520W        W40054   4.836  19.506  12.913  0.4696  0.0385 -0.0591
20521W        W40055  11.636   4.436   3.185  0.1801  0.0858  0.0268
20522W        W40056   8.968  13.465  10.387  0.2502  0.0979  0.1696
20523W        W40057  14.212   2.492   1.669 -0.1120  0.1745  0.2411
20524W        W40058  19.450  11.376  14.158  0.2143  0.0658 -0.2263
20525W        W40059  12.466  13.756  11.433  0.1002  0.1142 -0.2985
20526W        W40060  19.432   6.523   3.929 -0.2111  0.2591  0.0364
20527W        W40061   1.483  17.437  13.393  0.0983 -0.3032  0.3292
20528W        W40062   1.674   2.356   1.818 -0.2014 -0.1569 -0.1328
20529W        W40063  13.035   4.184   0.900  0.0198  0.0909 -0.0257
20530W        W40064  15.912   3.183  12.119  0.0506 -0.0000 -0.2717
20531W        W40065   1.552  10.994   3.449 -0.4671 -0.1241  0.3670
20532W        W40066   5.441  13.966   2.053  0.0942 -0.0917 -0.1018
20533W        W40067  15.686   2.458   4.104 -0.0288 -0.1284  0.0493
20534W        W40068   3.339  10.092  14.341 -0.1482  0.1363  0.1607
20535W        W40069  13.452  11.063  11.248 -0.2285 -0.0192  0.1931
20536W        W40070  19.082  19.046   3.071 -0.0697  0.4219  0.0693
20537W        W40071  17.335  17.965  12.012 -0.2524  0.0188 -0.0477
20538W        W40072   2.731  11.906  12.340  0.1904 -0.0324  0.1340
20539W        W40073  18.259  13.197  13.973  0.1665 -0.2901 -0.0755
20540W        W40074   7.956  15.930   5.223  0.3298 -0.3259  0.2704
20541W        W40075   0.609   5.853  12.771  0.1552  0.1059 -0.3511
20542W        W40076  18.188   0.702   0.641 -0.0881 -0.0935 -0.2037
20543W        W40077   3.929   7.613   1.150  0.0306 -0.1789 -0.0522
20544W        W40078   4.596  13.677   1.658  0.1420  0.0484 -0.2808
20545W        W40079  13.950   4.177  13.206 -0.0758  0.1192 -0.1350
20546W        W40080   9.454  19.430   2.885 -0.1738 -0.0467 -0.1082
20547W        W40081  18.046  17.073   1.284 -0.1546 -0.1378  0.2333
20548W        W40082   1.314  17.569   1.689 -0.0850  0.0543  0.0575
20549W        W40083  16.976  18.811   1.883  0.3652 -0.0031 -0.3928
20550W        W40084  12.189   7.956  12.136 -0.1494  0.0987  0.0388
20551W        W40085   7.313   8.133  10.708  0.0166  0.1068 -0.2195
20552W        W40086  13.843   8.279   4.798 -0.1057 -0.1141 -0.1527
20553W        W40087  13.195  10.653  11.574 -0.1248 -0.0852  0.1294
20554W        W40088   6.269   9.315  12.933 -0.1869  0.0458 -0.0509
20555W        W40089   6.065  10.664  13.237  0.2578 -0.1872  0.3241
20556W        W40090  15.586  18.271  11.734 -0.0741  0.0064 -0.2572
20557W        W40091  15.692  12.850  10.873  0.0844 -0.1089  0.1752
20558W        W40092   8.342   5.342   3.477 -0.2656  0.0496  0.0469
20559W        W40093  15.564  12.620  13.610  0.3704 -0.3083 -0.2068
20560W        W40094  11.526  15.771  12.192  0.1690 -0.3509  0.2125
20561W        W40095   9.031  12.583  11.089 -0.0010 -0.0897  0.1651
20562W        W40096  13.905   7.699  12.704  0.0470  0.1404  0.1393
20563W        W40097   1.820   1.722   9.072  0.0518  0.0550 -0.0439
20564W        W40098  17.458   5.849   1.743  0.1379 -0.1820  0.3794
20565W        W40099  11.278  17.392  12.054 -0.0994  0.0999  0.1341
20566W        W40100  10.465  16.919   2.972  0.2053 -0.0644 -0.2511
20567W        W40101  16.213  12.418  11.950  0.0286  0.1633  0.1938
20568W        W40102  10.806   2.865   3.730 -0.0675 -0.1025 -0.2084
20569W        W40103  16.381   5.640   2.849 -0.1904 -0.2898 -0.4419
20570W        W40104   4.189  12.204   1.430  0.0218  0.3215  0.0147
20571W        W40105  17.504  19.474  11.794 -0.2020 -0.2076  0.3575
20572W        W40106  16.083   5.004  11.028 -0.2064 -0.0305 -0.2713
20573W        W40107   4.000  18.154   2.082  0.0182  0.0287  0.0530
20574W        W40108   8.980   0.140  10.042  0.3192 -0.1128 -0.2595
20575W        W40109   9.366  14.941   1.572 -0.0343  0.1279  0.0784
20576W        W40110   6.738  15.140   2.413  0.0499 -0.0081  0.3182
20577W        W40111  13.898  15.888  13.253  0.0489  0.3380 -0.1455
20578W        W40112   2.701  15.161   1.329  0.0860  0.2760 -0.4547
20579W        W40113   7.440  15.268   2.717 -0.5363  0.1094 -0.0495
20580W        W40114  19.009   3.056  12.806 -0.2785  0.3680 -0.2036
20581W        W40115  17.909  17.381  11.186  0.0011  0.1014  0.2795
20582W        W40116  11.079  16.610  10.527  0.0347 -0.1759  0.1763
20583W        W40117   1.757  12.760   3.559  0.0058 -0.0543  0.1138
20584W        W40118   3.875   4.336  13.009  0.0695 -0.0586  0.5613
20585W        W40119  10.253   0.172  13.208 -0.0296  0.1963 -0.2283
20586W        W40120   0.573  15.685   1.990  0.0800  0.0707 -0.0256
20587W        W40121   7.095   4.751  10.498 -0.4228 -0.2544  0.1791
20588W        W40122  16.559   2.510   3.368 -0.1855 -0.1038  0.1652
20589W        W40123   6.603  12.153  10.993 -0.1427 -0.0590  0.0443
20590W        W40124   3.207   1.968  11.121  0.0252 -0.0189  0.1271
20591W        W40125   9.400   9.535   3.231 -0.1256 -0.2857 -0.1637
20592W        W40126   8.844  18.303   2.680 -0.1811 -0.0356  0.0562
20593W        W40127  13.026   6.292   0.070  0.2922  0.2289  0.1904
20594W        W40128  15.288   6.706  10.890  0.0126  0.3989 -0.3154
20595W        W40129   4.138  12.006  13.875 -0.1497 -0.1745  0.1671
20596W        W40130  19.452   8.878  10.331 -0.1241  0.1155 -0.0460
20597W        W40131   6.191  14.341   9.938  0.0716  0.1071  0.2420
20598W        W40132  17.804  15.879  11.288  0.1565 -0.1106 -0.0953
20599W        W40133   5.341  15.133   2.705 -0.1335 -0.2002  0.0165
20600W        W40134  12.673  18.911  10.816  0.0983  0.0581  0.2917
20601W        W40135  10.373  12.895  12.672  0.0218 -0.1867  0.0160
20602W        W40136   2.407  16.603  13.435 -0.2063  0.0913 -0.0459
20603W        W40137   6.405  11.861  12.147 -0.0201 -0.2584 -0.1011
20604W        W40138   9.128   2.587   0.142  0.3855 -0.0164  0.3463
20605W        W40139  15.233   0.003   2.320 -0.0012 -0.0376 -0.3444
20606W        W40140  19.182   3.453  13.814 -0.0851 -0.3098 -0.0569
20607W        W40141  13.555   6.286  11.589  0.2119  0.3583 -0.2408
20608W        W40142  16.095   4.585   2.826  0.0798  0.3943  0.0793
20609W        W40143   6.496   6.032   1.835  0.2856 -0.2117  0.1119
20610W        W40144   9.556  17.023  10.727 -0.0648 -0.0591  0.1033
20611W        W40145  13.874   9.963   1.658  0.3563 -0.0393  0.3096
20612W        W40146   1.097   2.660  12.210 -0.2792 -0.0210  0.4427
20613W        W40147  19.152  18.959  10.467 -0.0540  0.2284 -0.1180
20614W        W40148   5.749  10.382  11.162 -0.2618 -0.0944 -0.0830
20615W        W40149  12.948  17.108   2.494 -0.0295 -0.0510 -0.1390
20616W        W40150   0.949   3.131  10.300  0.0970  0.0653  0.0706
20617W        W40151   9.142   1.174   3.551  0.2069 -0.0279  0.0449
20618W        W40152   1.016   9.898   1.300  0.0966  0.0180  0.0466
20619W        W40153  19.079   0.842   3.791  0.3793  0.0190 -0.1855
20620W        W40154  16.299   8.900   0.834  0.1044 -0.0863  0.1950
20621W        W40155  19.382   2.929  12.408 -0.2759  0.0043  0.1113
20622W        W40156  15.079   6.386   0.302 -0.0995 -0.1924 -0.1727
20623W        W40157   8.128   0.403  14.113 -0.2057 -0.0567  0.2079
20624W        W40158   6.295  11.457  11.235  0.0388  0.2601  0.1564
20625W        W40159  14.969   0.783  11.893 -0.1919 -0.0664 -0.1487
20626W        W40160   2.674   8.513   1.884 -0.1967 -0.3044  0.0982
20627W        W40161   7.219  13.663   0.614 -0.0777  0.2245 -0.0168
20628W        W40162  14.654  15.003  10.585  0.4605 -0.0034  0.0075
20629W        W40163  17.849  18.993  13.566 -0.0302 -0.3655  0.0499
20630W        W40164   8.072   4.047   2.855 -0.1004 -0.3779  0.3704
20631W        W40165  14.534   9.480  13.595  0.0374 -0.0556  0.0770
20632W        W40166   3.984  12.007  12.825 -0.1590  0.0243 -0.0042
20633W        W40167  11.367  14.248   1.661  0.0928 -0.1398  0.3086
20634W        W40168   6.668  16.288   1.667  0.3199  0.0385  0.0985
20635W        W40169  14.200  15.203   0.444 -0.2237  0.0719 -0.0948
20636W        W40170  19.334   3.105   1.972 -0.4823  0.3132  0.4057
20637W        W40171  15.586   8.159   0.484 -0.2167  0.1446  0.1091
20638W        W40172   9.738   2.798  12.291  0.2339 -0.5901  0.0348
20639W        W40173  12.015   5.430   1.382  0.1942 -0.0096  0.1896
20640W        W40174  17.301  13.095   1.993 -0.1235  0.1286  0.2361
20641W        W40175   4.752  13.393   4.542 -0.2476  0.4522 -0.0589
20642W        W40176  14.463  14.648  11.346 -0.2644 -0.2195 -0.1164
20643W        W40177  12.588  16.242   1.573 -0.1221  0.2558 -0.0948
20644W        W40178  13.222  13.029   2.639  0.1857  0.0838 -0.0227
20645W        W40179   8.768  13.420  12.131 -0.0862  0.1347  0.2360
20646W        W40180  16.426  11.953  12.777 -0.0774 -0.0645  0.3141
20647W        W40181  11.650   6.063  12.777 -0.0735  0.2678  0.3053
20648W        W40182   7.361   5.679   1.337  0.0790  0.2529 -0.3094
20649W        W40183   9.542   7.378   1.251 -0.1939  0.0072 -0.1456
20650W        W40184   4.562   3.144  11.774 -0.3026  0.2787 -0.3680
20651W        W40185  13.108   3.095   1.441  0.2016 -0.2796  0.1475
20652W        W40186   4.640  18.664   0.044  0.0173 -0.1644  0.0417
20653W        W40187  15.827  10.816   2.426 -0.0087 -0.2202  0.0387
20654W        W40188   5.065  18.360   4.462 -0.2311  0.3303 -0.0234
20655W        W40189  12.682   8.348  14.333  0.2481  0.4781  0.0458
20656W        W40190  10.090   0.944   1.364  0.1858  0.1966  0.1008
20657W        W40191   5.844   0.946  12.246 -0.2657 -0.2430 -0.2526
20658W        W40192  12.721  15.834  10.972  0.3104 -0.0054 -0.2394
20659W        W40193  10.894   2.684   1.104 -0.1370 -0.2130 -0.1438
20660W        W40194  14.448  15.501   8.849 -0.2995  0.4410  0.2906
20661W        W40195   2.038  14.024  10.625 -0.1620 -0.1597  0.1031
20662W        W40196   3.731   3.503   8.977 -0.0230  0.1171  0.0767
20663W        W40197  19.187   6.734   0.786 -0.0845  0.2356  0.0645
20664W        W40198  16.266  11.948  10.344  0.0071  0.2458  0.2657
20665W        W40199   3.281   6.283   2.321 -0.1862  0.0923 -0.0286
20666W        W40200   2.280   7.092   1.850 -0.4700  0.1462 -0.0156
20667W        W40201   3.093   8.909  11.219 -0.2170  0.1551  0.0348
20668W        W40202  11.386  14.975   0.925  0.1587  0.1464 -0.0471
20669W        W40203   7.478   8.882  12.247  0.2622  0.2183 -0.1234
20670W        W40204  14.813   8.758   2.285 -0.0534 -0.0317  0.0322
20671W        W40205   1.388  12.977  11.087 -0.1116 -0.0363  0.1894
20672W        W40206  12.719   2.814   2.606 -0.2565  0.0941  0.2461
20673W        W40207   2.118   6.714  11.608 -0.0144 -0.3156  0.0281
20674W        W40208  14.006  19.001  11.012 -0.3409 -0.3896  0.0779
20675W        W40209   6.215  12.539   2.823 -0.0972  0.1572 -0.0126
20676W        W40210   1.890  11.479   1.736 -0.5056  0.2172 -0.1376
20677W        W40211  17.207   7.956  13.496  0.3102 -0.1387 -0.2566
20678W        W40212   2.756  14.972  12.681 -0.1035 -0.1169 -0.1651
20679W        W40213   3.819  18.319   3.049  0.1076  0.1918 -0.0738
20680W        W40214  13.344   6.416  13.563 -0.0829 -0.0001  0.0526
20681W        W40215  11.892  16.611   2.982 -0.0302 -0.0918 -0.3587
20682W        W40216  15.839  14.842   1.351 -0.0421  0.0457 -0.0658
20683W        W40217  12.719   3.907   1.197  0.0058 -0.2794 -0.0325
20684W        W40218  17.123   2.824  10.330 -0.2365 -0.1275 -0.0170
20685W        W40219   8.261  17.175  11.828  0.1074 -0.4115  0.4683
20686W        W40220   3.426  15.767   3.300 -0.2932 -0.3640 -0.3727
20687W        W40221  16.049   1.468  11.184  0.0997  0.0847  0.1239
20688W        W40222   4.968  17.046   3.852 -0.3141 -0.0960 -0.2635
20689W        W40223   2.256   5.744  11.324  0.1619  0.0220 -0.0958
20690W        W40224  11.025   4.933  14.038  0.4916 -0.0429  0.4212
20691W        W40225  13.664   3.515   0.794  0.0871  0.2302 -0.1227
20692W        W40226   8.685   4.315   2.127 -0.1638 -0.0781  0.0387
20693W        W40227  12.108   3.449  10.179 -0.2770 -0.0075  0.2107
20694W        W40228   0.524  19.426   2.152  0.3253 -0.3788 -0.2548
20695W        W40229  11.591  18.287   2.331 -0.0221  0.0420 -0.0327
20696W        W40230   2.339   7.050   4.766 -0.0498  0.0015 -0.1245
20697W        W40231   6.916   3.134   3.980 -0.2644  0.0349  0.1458
20698W        W40232  11.458   9.668  13.016 -0.2342 -0.2947  0.1682
20699W        W40233  13.007   1.796  13.752  0.1307 -0.2322  0.0629
20700W        W40234  15.073   3.380  11.552  0.0431 -0.1307 -0.1934
20701W        W40235   6.529   1.498   4.301  0.0861 -0.0302 -0.0103
20702W        W40236   8.093   1.268   1.772  0.1639  0.0800  0.1875
20703W        W40237   2.147  17.593   9.684 -0.0012  0.0934 -0.2223
20704W        W40238  18.527   9.528   0.337  0.3903  0.1462  0.1234
20705W        W40239  15.961   1.966  12.945  0.1588  0.1665  0.1688
20706W        W40240   4.372  16.455   1.120  0.1329  0.2649  0.1933
20707W        W40241   5.787  15.643  12.355  0.2341 -0.0637  0.2892
20708W        W40242   3.064  11.827   3.287 -0.1683  0.2622  0.0700
20709W        W40243   2.162  12.379   3.981 -0.0834 -0.1346 -0.0557
20710W        W40244  13.855  12.530  12.509  0.1137  0.0053  0.4125
20711W        W40245  11.016   5.399   1.002  0.3637 -0.0616 -0.0840
20712W        W40246   8.740   5.235   0.525  0.1926 -0.1507  0.0212
20713W        W40247  13.275   5.302  13.684  0.0854 -0.1191  0.2728
20714W        W40248   9.377  13.126   4.279 -0.1163  0.1226 -0.2496
20715W        W40249   8.375  11.387   1.337 -0.3188 -0.2974 -0.2321
20716W        W40250  16.501  15.508   0.539 -0.0414  0.0947  0.2055
20717W        W40251   4.377   2.554  12.940  0.3306  0.6131 -0.1450
20718W        W40252  13.956  17.672   0.853 -0.2854  0.1155  0.1709
20719W        W40253   7.852   0.323   1.658 -0.0421  0.2641 -0.0007
20720W        W40254  14.742   3.313   2.538  0.0612 -0.1527  0.1851
20721W        W40255  15.007  18.317  13.072 -0.2324  0.1863  0.0741
20722W        W40256   7.249  11.289  11.136  0.2166 -0.0264 -0.0332
20723W        W40257   8.314  17.719   3.019  0.1311  0.1226  0.0570
20724W        W40258  10.705  11.210   2.936 -0.2068  0.2624  0.2038
20725W        W40259  11.224  10.396   0.223 -0.1402 -0.1570 -0.2235
20726W        W40260   3.982   5.816  10.608  0.1068  0.0455  0.1995
20727W        W40261  17.369   3.329  13.503  0.0556 -0.3150 -0.1967
20728W        W40262   8.523  10.302   2.036 -0.0688  0.0338 -0.1559
20729W        W40263   1.305   5.924   0.841  0.0630 -0.0634  0.1095
20730W        W40264   9.316   0.543   1.812 -0.1206 -0.0988 -0.1925
20731W        W40265   4.702   9.951  13.863  0.3631 -0.5232 -0.1713
20732W        W40266  12.834  16.681  14.243  0.2687 -0.0004 -0.2419
20733W        W40267  10.629   1.078   0.724  0.0860  0.3536  0.0936
20734W        W40268  16.256  19.392   0.545  0.0220  0.0015 -0.0092
20735W        W40269  11.668  14.142   2.143  0.1191  0.1224  0.0744
20736W        W40270  13.810  14.915   0.302 -0.2544  0.2723 -0.0831
20737W        W40271   5.272   3.479   0.697 -0.0426  0.0227  0.0570
20738W        W40272  13.839  15.569   3.997 -0.2510 -0.0815  0.0428
20739W        W40273   7.643  18.568   2.244 -0.0119  0.1450  0.3981
20740W        W40274   0.760  15.725   0.389 -0.0846 -0.2119 -0.0578
20741W        W40275   0.065  10.292   0.635  0.0254  0.3506 -0.2743
20742W        W40276  14.470  12.892   2.464 -0.1381 -0.2447  0.1793
20743W        W40277   9.381  14.478  13.504 -0.0850 -0.0553  0.0324
20744W        W40278  17.193   3.376  13.038 -0.1090 -0.0380 -0.3089
20745W        W40279   8.868   1.346   3.199  0.0281 -0.0324  0.4354
20746W        W40280  10.023  12.342  12.898  0.1205 -0.0558 -0.4369
20747W        W40281  16.191   9.646  10.237 -0.4317 -0.0846  0.0239
20748W        W40282   3.840  15.294  12.594  0.3730 -0.1084 -0.1659
20749W        W40283  17.419  10.192  12.031 -0.0921  0.1895  0.0311
20750W        W40284  17.547  15.782  10.497 -0.2556  0.2828  0.0073
20751W        W40285   6.457  18.962  14.253 -0.0756 -0.2503 -0.1840
20752W        W40286  14.549   8.967   3.278 -0.1385  0.2679 -0.2034
20753W        W40287   0.146   5.345   0.963 -0.3251  0.1092  0.1523
20754W        W40288  16.767  11.622   2.627  0.0303  0.1068  0.3076
20755W        W40289  13.278  15.157  11.254 -0.0299 -0.1447 -0.1167
20756W        W40290   3.206   4.947   1.564 -0.0011 -0.3273  0.0261
20757W        W40291  19.169   5.040  13.589 -0.2155 -0.0059 -0.0481
20758W        W40292  19.263   6.584  14.151  0.3531  0.1437 -0.0791
20759W        W40293  11.325   4.666   0.597 -0.1620  0.2082  0.0164
20760W        W40294  15.735  10.594  12.788 -0.2072 -0.1560 -0.1843
20761W        W40295  14.807   6.677  13.235 -0.1224  0.0947 -0.0032
20762W        W40296   7.866   5.647   1.243 -0.1437 -0.2391 -0.5065
20763W        W40297  10.788  13.908  11.187 -0.0915 -0.0684  0.3285
20764W        W40298   8.284   6.549   1.154  0.1554 -0.0460  0.1444
20765W        W40299   0.356   3.950  10.957 -0.0698 -0.0768  0.0773
20766W        W40300  13.783  16.616   0.720  0.3905  0.0736 -0.1914
20767W        W40301   5.398   0.536   3.394  0.2353 -0.0615 -0.4375
20768W        W40302  19.324   0.671   4.304 -0.5028  0.0000  0.2093
20769W        W40303  13.016   1.043   2.848  0.0417 -0.0683  0.1615
20770W        W40304   5.947   9.770   3.263  0.0704 -0.1556  0.4191
20771W        W40305  18.112   1.051   0.233 -0.4728 -0.1726 -0.0072
20772W        W40306  13.530   4.144  11.056  0.1432  0.0187  0.0813
20773W        W40307  18.141   6.752   0.840  0.0810 -0.1006  0.2698
20774W        W40308  19.484   6.222  10.957  0.0192  0.0779 -0.1819
20775W        W40309  18.579  15.611  13.328  0.0110 -0.2746 -0.0039
20776W        W40310  15.053  16.736  10.087  0.1813 -0.0702  0.0539
20777W        W40311  10.616   4.106   0.581 -0.0106 -0.0728 -0.4460
20778W        W40312   8.317  15.419  12.873 -0.0473 -0.0680  0.0022
20779W        W40313  16.212   1.993   1.686 -0.3787  0.1682 -0.0191
20780W        W40314  15.972  17.754  10.717 -0.0816 -0.1116  0.3618
20781W        W40315   0.185  17.485  12.638 -0.0039  0.0363  0.2106
20782W        W40316   7.816   0.025   0.446 -0.2576 -0.1135  0.0643
20783W        W40317   3.352  19.299   1.545 -0.1780  0.1649 -0.5688
20784W        W40318   2.848   3.299  11.360 -0.1461 -0.0632 -0.1024
20785W        W40319   1.553  18.227   9.686  0.0885 -0.0354 -0.0184
20786W        W40320  12.171   2.437  11.733 -0.0741  0.0446  0.0850
20787W        W40321  12.494   5.582   3.173  0.2043  0.3252  0.0116
20788W        W40322  16.712   6.830  12.225 -0.0448  0.1979  0.2954
20789W        W40323  16.673  14.190  13.857 -0.1516 -0.1505  0.0336
20790W        W40324  10.670   9.142  12.116  0.2935 -0.0178 -0.1812
20791W        W40325   3.710  17.131   0.011  0.0512 -0.5389  0.0366
20792W        W40326  15.873   8.270  12.463  0.1180 -0.2382 -0.3973
20793W        W40327   0.609  18.809   9.551 -0.0306  0.0817  0.2359
20794W        W40328  17.807   2.211   1.014  0.0604  0.4822  0.1577
20795W        W40329  15.382  12.330  10.096 -0.1079 -0.1358  0.1411
20796W        W40330   9.735   8.198  12.283 -0.2334  0.1253  0.1841
20797W        W40331  11.386  17.441  11.177  0.0111  0.2096  0.0578
20798W        W40332   6.355   9.733   2.931  0.1769 -0.0851 -0.1645
20799W        W40333  12.813   6.148   2.499  0.1753 -0.1883 -0.3813
20800W        W40334   4.225  18.956  12.224  0.0957  0.2780 -0.1667
20801W        W40335  10.377   8.390   1.910  0.0411 -0.1762 -0.0277
20802W        W40336  12.835  12.548   4.425  0.3349  0.0672 -0.0416
20803W        W40337  14.529  13.425   3.262 -0.1392  0.2180 -0.2314
20804W        W40338   1.626  16.104  12.894  0.4603 -0.2519 -0.1406
20805W        W40339   9.193   6.650   0.884  0.1283 -0.0298  0.4667
20806W        W40340   9.439   8.961   0.154  0.0338 -0.0455  0.0995
20807W        W40341   3.554  11.338   3.960  0.0801  0.2905 -0.0352
20808W        W40342  15.897  15.415  11.227 -0.0775 -0.2124  0.2593
20809W        W40343  12.524  13.317  11.742  0.0808 -0.1692 -0.1718
20810W        W40344   7.647   7.094   0.655 -0.1283 -0.0008  0.0759
20811W        W40345   6.355  12.375  13.215 -0.1866 -0.0336 -0.1501
20812W        W40346   6.089   0.422  11.272  0.0266  0.0532 -0.0667
20813W        W40347   3.081  13.420  12.177  0.0017  0.0389 -0.2885
20814W        W40348  13.629   1.901  11.561  0.2655 -0.1716 -0.0623
20815W        W40349  19.290   4.426   0.440  0.1212 -0.2314  0.1579
20816W        W40350  11.801  18.294  13.661  0.1612  0.2754  0.0144
20817W        W40351   2.168  10.401  13.718 -0.1982  0.1384  0.0997
20818W        W40352  12.858   6.755   3.978 -0.1459 -0.0693 -0.1390
20819W        W40353   3.050   9.783  11.763  0.1654  0.2779 -0.4599
20820W        W40354   1.380  10.836   1.215 -0.2060 -0.3198  0.1266
20821W        W40355  14.190   4.844  10.485 -0.0608  0.1718 -0.2266
20822W        W40356   9.594  17.655  13.163  0.0400  0.0946 -0.2074
20823W        W40357   8.003   4.572  13.480 -0.1953  0.2658 -0.2139
20824W        W40358   5.361  16.661   4.012 -0.0672  0.1382 -0.1656
20825W        W40359  19.450   3.205  11.928 -0.0455  0.2438  0.0618
20826W        W40360  14.621  15.984  12.903  0.4005  0.1088 -0.2983
20827W        W40361   3.078   8.771  10.353 -0.0313 -0.1621 -0.2099
20828W        W40362  19.369  17.817  12.415 -0.0435  0.3064  0.2269
20829W        W40363   8.169   2.573   2.055 -0.2098  0.3927 -0.1816
20830W        W40364   5.189   3.502   1.855 -0.2577 -0.3179 -0.1402
20831W        W40365   9.582   3.323   3.110  0.2689  0.1330  0.0065
20832W        W40366  14.532   4.418   3.305 -0.2018  0.2198 -0.1241
20833W        W40367   8.731   9.720  13.353  0.2709 -0.3232  0.2352
20834W        W40368  18.442  10.998   0.618  0.5664 -0.1811 -0.0014
20835W        W40369   2.796   8.858  10.792  0.1407  0.4106 -0.2641
20836W        W40370   2.379  15.392  14.343 -0.0722 -0.0504  0.1820
20837W        W40371   2.882   4.699   0.330  0.2057  0.2190 -0.0073
20838W        W40372   6.815  12.701  11.727  0.1026 -0.1382  0.3140
20839W        W40373   4.266   9.848  13.281  0.3178  0.0593 -0.1997
20840W        W40374   9.631  14.488  10.521  0.1518  0.0764  0.0534
20841W        W40375  17.506   0.474  13.520  0.0251  0.1904  0.1847
20842W        W40376  10.027   2.339  13.619 -0.1102  0.0019  0.0726
20843W        W40377   0.452  19.053   1.880 -0.0104 -0.1008 -0.0035
20844W        W40378  17.482  15.443   0.698 -0.7132  0.1328  0.0511
20845W        W40379   4.366  12.058   0.100  0.1381  0.0062 -0.2544
20846W        W40380   9.599  15.271   0.672  0.0987  0.0151  0.1056
20847W        W40381  18.158   8.750   1.519  0.1220 -0.2743  0.1079
20848W        W40382  18.451   9.225  12.482  0.5207 -0.2155  0.1360
20849W        W40383   3.007   3.922  11.779 -0.0295 -0.0196  0.2445
20850W        W40384  12.099   0.669  13.892 -0.0379  0.2411 -0.0317
20851W        W40385  12.192   5.504  12.164 -0.1481  0.1618 -0.4306
20852W        W40386  10.783   3.252  11.520  0.2589  0.0464 -0.0935
20853W        W40387   3.953  11.257  10.477 -0.1487  0.2277 -0.1247
20854W        W40388  12.426  14.611   2.430  0.1891 -0.1959 -0.4262
20855W        W40389  13.823   3.003  12.129 -0.3288  0.1666  0.0214
20856W        W40390  16.540   7.047   4.311  0.1199  0.5067  0.1827
20857W        W40391   1.430  13.984   1.741 -0.1387 -0.2741  0.2155
20858W        W40392  19.228  14.743  13.424 -0.3560  0.1445  0.3519
20859W        W40393   9.202   5.286   0.774 -0.0438  0.3725  0.1857
20860W        W40394   8.733  15.992   0.968  0.0461  0.1668 -0.2490
20861W        W40395  14.236   3.044  11.846 -0.0521  0.1969  0.2011
20862W        W40396   4.656   1.032  10.448  0.4124 -0.0407 -0.2639
20863W        W40397  17.511  17.894  11.576 -0.3717 -0.3081 -0.0751
20864W        W40398   0.455   6.457   1.330  0.3796  0.2755  0.1758
20865W        W40399  17.993   8.803   2.631 -0.1198 -0.1347 -0.1642
20866W        W40400   2.203  17.912  10.274  0.2635  0.2359 -0.0400
20867W        W40401   7.685   5.770   0.177  0.1449 -0.1751  0.3423
20868W        W40402   6.683  11.793   3.478 -0.1873  0.1245 -0.1739
20869W        W40403   6.091  11.507  13.565 -0.1376 -0.1325 -0.0128
20870W        W40404   2.846  16.883   2.128  0.2917  0.1422 -0.0229
20871W        W40405   6.385   2.795   1.323 -0.2643 -0.2580 -0.0687
20872W        W40406   8.519   2.577   3.799  0.2644  0.2550 -0.1735
20873W        W40407   0.955   8.996   2.306 -0.3815 -0.2774  0.0334
20874W        W40408   0.040  10.207   0.137 -0.2829  0.2961 -0.1914
20875W        W40409   3.977  15.469  13.853  0.1098 -0.0438  0.1305
20876W        W40410  15.933   6.042   4.034 -0.3171 -0.3789 -0.0737
20877W        W40411  19.333   3.270  14.302  0.0766 -0.2576 -0.0996
20878W        W40412   1.582   2.047   0.013 -0.0029  0.0159  0.2511
20879W        W40413  13.128  14.083   3.575 -0.1567 -0.0201  0.1794
20880W        W40414  10.278  14.349   1.603 -0.0460 -0.2507 -0.0709
20881W        W40415  14.058  17.526   2.741 -0.2160 -0.0802 -0.0822
20882W        W40416  18.328  15.619   0.743 -0.1773 -0.2148  0.0652
20883W        W40417   8.469   7.657  12.760  0.3887 -0.3357 -0.1556
20884W        W40418   8.909   7.002   3.978  0.1442 -0.1649 -0.1622
20885W        W40419  19.004   3.169  13.286 -0.0990  0.1790  0.1546
20886W        W40420   7.887  16.273  12.785  0.3422  0.5319 -0.3153
20887W        W40421  18.845   5.156   0.438  0.1354 -0.0851 -0.0673
20888W        W40422  18.929   1.086   1.334  0.0633 -0.0575  0.2384
20889W        W40423  18.817   8.279  11.640  0.0352  0.2890 -0.3433
20890W        W40424  15.990  19.231   8.986 -0.0811  0.2816  0.3780
20891W        W40425  18.353   9.168  13.729  0.2603  0.0516 -0.0451
20892W        W40426   0.577   9.434   4.107  0.3702 -0.0691  0.3241
20893W        W40427   9.030  10.098  12.616  0.3243  0.4331  0.2566
20894W        W40428   1.117   6.797   1.742  0.1086  0.0726  0.0397
20895W        W40429  11.270  10.662   1.852  0.3704  0.1505 -0.0171
20896W        W40430  19.207  13.626   3.457 -0.2969  0.0929  0.4917
20897W        W40431   1.959   6.294  11.365  0.0224  0.1503  0.1983
20898W        W40432   1.823  16.025  12.042  0.0335  0.1957 -0.0077
20899W        W40433   7.445   7.205   2.248 -0.1145 -0.1717 -0.3600
20900W        W40434   5.368   6.474   3.186 -0.0737 -0.1736 -0.0601
20901W        W40435  12.658  19.071   0.022  0.0811 -0.0110 -0.0328
20902W        W40436   6.259   3.608  10.950 -0.0511 -0.0751 -0.0691
20903W        W40437  16.383   7.065   0.922 -0.0840  0.1542 -0.4799
20904W        W40438   6.985  19.503  10.866  0.1887 -0.0872  0.2808
20905W        W40439  12.954  15.873   2.471 -0.0356  0.0118  0.0322
20906W        W40440  10.125  16.527   2.864 -0.0414 -0.0526 -0.1692
20907W        W40441   0.923  15.345   1.887  0.3409 -0.2959  0.0478
20908W        W40442   8.508   5.002  12.684  0.0586 -0.0548  0.0116
20909W        W40443   2.733  17.688   1.274 -0.1815 -0.2411 -0.1156
20910W        W40444  13.399   5.064   3.748 -0.3113  0.0238 -0.3252
20911W        W40445   3.555   4.240  12.516 -0.2112 -0.0518  0.0449
20912W        W40446  12.880  13.126   9.874  0.0810 -0.2232  0.2589
20913W        W40447   0.629   1.441  14.137  0.1714 -0.3725  0.0517
20914W        W40448   0.818  14.303   2.854  0.1600  0.1920 -0.1505
20915W        W40449   7.433   5.135  10.686  0.0627  0.0054 -0.0842
20916W        W40450   3.140  17.513   2.775  0.0300  0.1025  0.0938
20917W        W40451  14.235  17.384   2.268  0.0642  0.1395 -0.3407
20918W        W40452   3.433   6.659   3.841  0.1778  0.1685  0.1119
20919W        W40453  12.106  19.016   1.619  0.0647  0.0288 -0.2160
20920W        W40454  11.794   1.548   2.053 -0.1471 -0.0877  0.2487
20921W        W40455  14.595  10.899   0.207 -0.0743  0.1377 -0.1473
20922W        W40456   1.226   1.431  11.901 -0.3472  0.1609  0.0051
20923W        W40457  18.879   9.545   1.819  0.2232  0.1783  0.0922
20924W        W40458   3.989  10.034  12.830  0.0206  0.0955  0.1069
20925W        W40459   5.599   8.163  11.575 -0.1266 -0.1564  0.0866
20926W        W40460   8.854  14.860  11.677 -0.3733  0.0677 -0.1072
20927W        W40461  13.488  14.440   3.519 -0.3887 -0.2235 -0.2234
20928W        W40462  10.889  14.537   3.537 -0.0268 -0.1949 -0.0555
20929W        W40463   0.811   1.715  10.693 -0.1743  0.0676 -0.3691
20930W        W40464   7.576  17.496   1.407  0.1253 -0.1640 -0.0881
20931W        W40465   4.690   6.922  12.643  0.2206 -0.2301  0.4767
20932W        W40466   2.349  18.599  12.863 -0.1255 -0.2449  0.5334
20933W        W40467  12.850  18.675  12.432  0.0879 -0.1734  0.2827
20934W        W40468   4.955   9.934  10.716  0.0469 -0.0442 -0.2688
20935W        W40469  11.787   9.887   0.069 -0.0198 -0.1155  0.0785
20936W        W40470   1.252  18.439  12.928  0.1730  0.1410 -0.0396
20937W        W40471  11.029   6.259   1.764  0.1584 -0.1718 -0.1926
20938W        W40472   3.043  16.474   4.333 -0.1889  0.0848  0.1025
20939W        W40473  17.710  11.716  13.717 -0.2499  0.0403 -0.3091
20940W        W40474  16.752   7.108   3.552 -0.1059 -0.3572 -0.0544
20941W        W40475  15.839  12.358   0.602 -0.0973  0.1402 -0.1701
20942W        W40476  13.616  19.488   0.691  0.1256 -0.2628  0.0985
20943W        W40477  15.128   9.446  11.434 -0.0785 -0.3880 -0.0282
20944W        W40478   7.838   2.725  11.355  0.1124 -0.0125  0.0197
20945W        W40479   2.541   2.707  12.121  0.0384  0.0450 -0.1033
20946W        W40480   2.222  16.958  10.397 -0.1041  0.0543 -0.1759
20947W        W40481   9.885   2.771  10.472  0.1042 -0.0699 -0.0144
20948W        W40482   9.253  15.271   2.183  0.0412 -0.4304 -0.0661
20949W        W40483   8.830  10.388  13.911  0.0425 -0.3304 -0.0348
20950W        W40484  14.637   3.910  13.582  0.0431 -0.3907 -0.1512
20951W        W40485  17.434   0.752  14.001 -0.2502  0.3420  0.3443
20952W        W40486  17.072   6.408  13.910  0.1015  0.0808 -0.0392
20953W        W40487  18.960   1.399  13.224  0.0132 -0.4308 -0.2007
20954W        W40488   3.413   3.105   4.677 -0.1526 -0.2992 -0.1733
20955W        W40489   2.280   2.770   0.079 -0.0049  0.2265  0.0023
20956W        W40490  12.323   3.604   2.495 -0.1383  0.0608  0.0060
20957W        W40491  11.541  12.988   0.207 -0.0694  0.0183  0.0046
20958W        W40492  16.143   6.370  10.242  0.3787  0.1710 -0.0217
20959W        W40493  12.867  18.371  10.782 -0.0251 -0.0090  0.0573
20960W        W40494   2.112   0.264   0.224 -0.0082 -0.1162 -0.2043
20961W        W40495  12.377   9.791  13.701  0.1555 -0.0368  0.2276
20962W        W40496   9.444   7.760  13.910 -0.1616 -0.0335  0.1101
20963W        W40497   3.338   3.695  10.793 -0.0588  0.1338 -0.1977
20964W        W40498   7.173   6.132   2.166  0.0399  0.1532 -0.0312
20965W        W40499   7.482  16.766  10.621 -0.0136  0.1688 -0.1065
20966W        W40500  18.267   1.622   1.405  0.3289 -0.0648  0.0606
20967W        W40501  10.790  15.746  12.981  0.4302 -0.1346 -0.0813
20968W        W40502   5.412   1.762  13.112  0.2370 -0.1703 -0.1595
20969W        W40503   0.584   6.941  10.805  0.0305  0.4252  0.1705
20970W        W40504   9.922   7.083   3.398 -0.0409 -0.0108 -0.2575
20971W        W40505   8.649   8.976  14.144  0.0148  0.0335  0.6503
20972W        W40506  15.880  16.130   0.775 -0.0876  0.0506 -0.1887
20973W        W40507   3.784   3.592  10.576  0.0292 -0.1538 -0.0579
20974W        W40508   0.873   4.184  13.217  0.1690 -0.1275 -0.0665
20975W        W40509  11.767   1.181  10.492  0.1085 -0.2934  0.2162
20976W        W40510   0.474  12.967   2.535  0.0946 -0.0020  0.0171
20977W        W40511   1.701   7.685  12.653 -0.1761 -0.0706  0.2892
20978W        W40512  14.885  14.258   3.644  0.5466  0.0854  0.4672
20979W        W40513  11.919  15.463  12.397  0.2350 -0.1572 -0.1589
20980W        W40514  19.520  15.387  11.777  0.0230 -0.2342  0.0744
20981W        W40515  18.937   8.818   0.374 -0.3456  0.0818 -0.2293
20982W        W40516  15.720  13.861   3.515  0.0882 -0.0713 -0.1095
20983W        W40517   1.889   0.353   5.104  0.1559  0.1451  0.0601
20984W        W40518  17.997  12.683  11.837 -0.0147 -0.0176 -0.2528
20985W        W40519  15.916   4.732  12.103  0.1043 -0.0380 -0.0272
20986W        W40520  17.984  15.351   3.661  0.0093 -0.3548  0.2151
20987W        W40521   8.616  10.448   0.813  0.0503 -0.2735  0.1597
20988W        W40522   6.670  16.353  12.864 -0.0805 -0.1366 -0.0487
20989W        W40523  13.585  13.767  13.209  0.0641  0.1172 -0.1740
20990W        W40524  12.846  14.067  12.236 -0.1116 -0.0065  0.0781
20991W        W40525  17.841   1.519   1.752 -0.1989 -0.0237 -0.3079
20992W        W40526   2.490   2.940   3.754  0.0871  0.0433  0.0659
20993W        W40527  16.050  19.296   1.349 -0.0144 -0.2947  0.0395
20994W        W40528   2.196  10.516  12.005  0.4681 -0.0438 -0.3077
20995W        W40529   2.269  14.688  11.120 -0.3279  0.1296  0.1078
20996W        W40530  19.149  19.130  12.307  0.1318 -0.0011  0.2676
20997W        W40531   4.299  10.390   5.719 -0.2025  0.2498 -0.0364
20998W        W40532  10.990  18.270   1.079  0.4799 -0.0388 -0.1193
20999W        W40533  19.229  18.307   0.368 -0.2247 -0.2382  0.0456
21000W        W40534  11.563  14.174  10.499  0.2847  0.0032 -0.2709
21001W        W40535   8.407   7.509   2.447  0.3211  0.2423 -0.2280
21002W        W40536   2.350   5.009   2.091 -0.0720 -0.0605 -0.0953
21003W        W40537  17.222  14.707   0.483  0.1208  0.1041  0.0314
21004W        W40538   6.921   5.621  11.919  0.1708  0.0558 -0.2114
21005W        W40539   1.620   3.985  11.119 -0.1174 -0.1930 -0.0747
21006W        W40540   3.148  16.121   0.274 -0.0798  0.0887 -0.2337
21007W        W40541  15.521  10.807  14.227  0.1368 -0.1147  0.1452
21008W        W40542   0.307   4.634   1.721 -0.1610 -0.0188  0.1371
21009W        W40543   4.423   2.299   4.348 -0.2655 -0.2317 -0.0695
21010W        W40544  11.846   1.557   0.570  0.0601 -0.1544  0.1089
21011W        W40545  17.819   2.145  12.833 -0.4633 -0.0519 -0.1972
21012W        W40546  11.899   5.403  11.459  0.0964  0.2387 -0.1172
21013W        W40547  14.926  15.406   3.110 -0.0007 -0.2454 -0.0193
21014W        W40548   0.584  14.846   0.557 -0.0124 -0.0846 -0.0910
21015W        W40549   0.452  12.891   2.027  0.2701 -0.2143  0.3321
21016W        W40550  19.272   4.480  12.397  0.0706 -0.0628 -0.0915
21017W        W40551   8.331  11.039  11.206  0.0722  0.0234 -0.1692
21018W        W40552  10.726   9.125   4.174 -0.1603 -0.0046 -0.0674
21019W        W40553  14.326   7.637   1.636 -0.3116  0.1476 -0.0877
21020W        W40554  10.478   9.157   1.482 -0.0592  0.2968  0.0310
21021W        W40555   0.116   4.780   4.622 -0.0690 -0.0388 -0.1147
21022W        W40556   8.995   0.481   2.695  0.2310  0.0163 -0.0215
21023W        W40557   3.907  17.327   3.269 -0.4319 -0.1894  0.4099
21024W        W40558   6.014   6.895  10.970 -0.0071 -0.0117 -0.2973
21025W        W40559   6.671  14.423  11.258 -0.2428  0.1757 -0.0310
21026W        W40560   4.171   6.332   3.357 -0.1284 -0.5062 -0.5824
21027W        W40561   3.117   2.974  12.338 -0.0439  0.0114 -0.1491
21028W        W40562  15.011  17.568   2.036  0.0473  0.1951 -0.0641
21029W        W40563  16.771   4.813   1.408  0.3248 -0.0768  0.3012
21030W        W40564  17.249  14.805   1.657  0.0937  0.1957 -0.1734
21031W        W40565  12.449   8.619  12.912 -0.0272  0.2907  0.0164
21032W        W40566  12.439  13.589  14.361  0.2599 -0.1844 -0.0289
21033W        W40567  15.703  12.382   1.602 -0.1321 -0.1401 -0.2371
21034W        W40568   4.552  17.373  13.502  0.1212  0.1619  0.3787
21035W        W40569   5.844   6.683   1.968  0.1608 -0.1766 -0.2430
21036W        W40570  16.575  15.799  11.224  0.1930 -0.1628  0.3337
21037W        W40571  14.500   8.452   3.530 -0.0538 -0.0162  0.2536
21038W        W40572  15.780  15.922  11.747  0.1362  0.1627 -0.1512
21039W        W40573  13.332  10.070  12.940 -0.3513  0.3207 -0.0038
21040W        W40574  19.127  13.242  10.811 -0.1794  0.3256  0.0412
21041W        W40575  17.987   9.247   3.937  0.2361  0.0270 -0.1010
21042W        W40576   9.016  12.169   3.821  0.1992 -0.1708 -0.4470
21043W        W40577   1.976   3.873   1.766  0.0503  0.0556 -0.2567
21044W        W40578  10.033  16.219   1.941 -0.0307  0.0257  0.2086
21045W        W40579   5.330   2.303  14.277 -0.3503  0.0442 -0.1456
21046W        W40580  18.298   2.946   0.857 -0.3383  0.2426 -0.0701
21047W        W40581   8.099   7.670   2.003 -0.0796  0.3874 -0.0264
21048W        W40582   9.278  12.655   0.355  0.0289  0.1168  0.0446
21049W        W40583  13.780   2.348   0.910  0.0021 -0.1683 -0.1268
21050W        W40584   4.211   5.576   3.850  0.3749  0.3865 -0.0187
21051W        W40585  14.133  15.779   1.748 -0.0824  0.0252  0.2306
21052W        W40586   0.398   5.912  13.855  0.0084 -0.2983 -0.2440
21053W        W40587   6.633  18.637  12.012 -0.1426 -0.3563  0.1838
21054W        W40588  15.076   8.215   1.957 -0.0801  0.0544 -0.1036
21055W        W40589   5.042   7.710   3.181  0.1483 -0.2509 -0.0214
21056W        W40590  15.165  14.525   2.515 -0.3736 -0.0095 -0.0700
21057W        W40591  14.534   7.916  13.995 -0.2354  0.4616  0.1825
21058W        W40592   3.517  13.976   3.247  0.0859 -0.0652  0.2172
21059W        W40593  17.433   5.354  10.616  0.1138  0.0137  0.2249
21060W        W40594  17.311   8.821   3.471  0.4784 -0.0808  0.0858
21061W        W40595   7.898   5.080   2.555 -0.1751  0.1917  0.2739
21062W        W40596   4.865  10.748   4.380  0.0172 -0.1464  0.1083
21063W        W40597   3.942  11.750   2.587 -0.1409 -0.0978  0.1713
21064W        W40598  10.678  10.511  11.456  0.2204  0.1138  0.0662
21065W        W40599  17.421  15.800  13.827 -0.0736 -0.0163  0.2544
21066W        W40600   3.989  18.288  12.770  0.1347 -0.1010  0.2415
21067W        W40601   4.503  10.725   1.085 -0.1806  0.0732 -0.2034
21068W        W40602  16.716  11.418   4.891 -0.2978 -0.1763 -0.1400
21069W        W40603  17.501  11.101  13.955  0.3327 -0.1387  0.1956
21070W        W40604   6.231   3.737  12.558 -0.2378 -0.2845  0.0985
21071W        W40605  15.869   9.666  13.637  0.1722 -0.4401 -0.3328
21072W        W40606   1.918  14.218   3.570  0.3161 -0.0426 -0.0032
21073W        W40607  13.551  18.114   3.241 -0.1205  0.5640  0.0159
21074W        W40608  18.795   4.752  12.347  0.1019 -0.4185 -0.0647
21075W        W40609  12.916   4.709   0.711 -0.3453 -0.0446  0.2405
21076W        W40610   5.622  13.581   2.976 -0.0449  0.0344 -0.0288
21077W        W40611   9.445   8.452  11.621  0.2215 -0.3379 -0.1042
21078W        W40612   5.763   6.996  10.168 -0.3577 -0.1201 -0.0141
21079W        W40613  13.417   7.679   4.103  0.2099 -0.0854 -0.5931
21080W        W40614  18.636   7.217   3.420 -0.0853  0.0731  0.1925
21081W        W40615  17.342   2.442  10.610 -0.0353 -0.1231 -0.3205
21082W        W40616   6.154   6.773   1.532  0.0881  0.2474  0.0355
21083W        W40617   2.458   7.058   0.495  0.2148  0.2634  0.0173
21084W        W40618   4.599   5.840   5.565 -0.1395 -0.1125 -0.1029
21085W        W40619  18.860   4.147  12.441 -0.1330  0.0571  0.0389
21086W        W40620  14.410   2.954  12.357 -0.0335 -0.1671  0.0199
21087W        W40621  14.427   1.266  10.409  0.0422  0.1182 -0.2191
21088W        W40622  11.495   3.581  12.042 -0.2272 -0.0482  0.0906
21089W        W40623  13.860  18.021  12.548 -0.1016  0.0318  0.3094
21090W        W40624   6.065  13.199   1.083  0.0631 -0.0011  0.1156
21091W        W40625  15.083   7.351   0.394  0.3038 -0.1676 -0.2257
21092W        W40626   3.372   4.555  11.078  0.3133 -0.1821  0.3589
21093W        W40627   7.810  16.925   0.266  0.1728  0.2028  0.3477
21094W        W40628  14.909   3.480  13.413  0.5406  0.0443 -0.1229
21095W        W40629  15.468  18.401  12.886 -0.0782 -0.1935  0.2557
21096W        W40630  16.307   9.562  11.093  0.1151  0.1437 -0.2383
21097W        W40631   8.139   9.422  11.070 -0.0324 -0.2166 -0.2049
21098W        W40632   6.378   2.156   0.014 -0.0845  0.0092  0.0955
21099W        W40633  10.149  17.503   0.337 -0.3982 -0.3279  0.1381
21100W        W40634   4.280   8.427   0.605 -0.4771 -0.1787  0.0930
21101W        W40635   0.141   1.911  12.879  0.1858  0.0845 -0.0687
21102W        W40636  16.251  13.079   0.233  0.0532  0.1422  0.2049
21103W        W40637  14.990   6.437   4.167 -0.0594  0.3942 -0.1541
21104W        W40638   2.626  18.055  12.442  0.1980  0.0044 -0.4127
21105W        W40639  17.181  16.416   0.742  0.0578  0.0410  0.1405
21106W        W40640   1.775   5.327   2.852  0.0449  0.1809  0.0763
21107W        W40641   5.790   3.714   3.760  0.0451 -0.0268  0.0807
21108W        W40642   4.500  18.663  11.558  0.3682  0.3311 -0.0648
21109W        W40643  11.828   1.624  11.412 -0.0963  0.0227 -0.2832
21110W        W40644   6.889   1.720  12.285 -0.0199  0.2860  0.1131
21111W        W40645  16.233  16.630  11.402 -0.1426  0.0347  0.1244
21112W        W40646  14.312  14.179  12.516  0.1842 -0.1590  0.2873
21113W        W40647  13.397  18.030   1.461 -0.0578  0.0691  0.1656
21114W        W40648   9.145   2.738   0.605 -0.0290 -0.3249  0.1502
21115W        W40649   0.436  16.397   0.809  0.1699  0.1712 -0.0377
21116W        W40650  16.073   9.321  13.303 -0.0248  0.2249 -0.1480
21117W        W40651   2.688  13.552   4.264  0.0630 -0.0235  0.1717
21118W        W40652  15.097  17.526  13.358 -0.0896  0.1285  0.0799
21119W        W40653   2.465  17.643  11.155 -0.2709 -0.1284  0.0273
21120W        W40654   4.864  18.583   2.489  0.1169 -0.2065  0.3507
21121W        W40655   5.243   7.581   4.289  0.0772  0.0792  0.1722
21122W        W40656   7.744   0.736   4.060 -0.2217 -0.2146  0.2648
21123W        W40657   7.683   3.920   1.227  0.1364  0.1930 -0.0048
21124W        W40658   6.112   5.441   0.154 -0.0131  0.0468 -0.2329
21125W        W40659  15.931   6.938   3.726 -0.3702 -0.4336  0.0916
21126W        W40660   0.067  13.288   3.600 -0.2351  0.0400  0.1314
21127W        W40661  14.278   8.389  11.295 -0.1102 -0.1356 -0.0274
21128W        W40662   2.501   3.444   2.493 -0.0050  0.0342  0.2490
21129W        W40663   9.938   9.263   2.451 -0.0435  0.0302 -0.3937
21130W        W40664  11.590   8.239  11.781 -0.0334 -0.1142  0.2609
21131W        W40665  18.309   8.478   0.448 -0.2467 -0.3554 -0.0546
21132W        W40666   2.074   4.628   0.487  0.1806 -0.0513  0.2909
21133W        W40667   5.408  14.423   4.067  0.0285  0.2880 -0.0480
21134W        W40668  11.836  13.254  10.940  0.2910  0.0706  0.1213
21135W        W40669  10.467   8.672  12.796 -0.0044 -0.1676 -0.0921
21136W        W40670   3.133  17.247   1.200 -0.0024  0.0487  0.0765
21137W        W40671  11.486   1.216   2.358 -0.0976  0.0598  0.0242
21138W        W40672   6.547  11.480  12.413 -0.1584  0.2736  0.1410
21139W        W40673   6.562   7.499  10.564 -0.2253  0.0422 -0.0170
21140W        W40674   5.669   2.213   0.879  0.1072  0.1395  0.0766
21141W        W40675   4.968  10.188  12.831  0.3179  0.2466 -0.0919
21142W        W40676  16.683   4.247  11.963  0.2150 -0.0791  0.1458
21143W        W40677  12.099   4.973  13.438  0.1100  0.1408 -0.0019
21144W        W40678   4.300   0.739  11.744  0.1732  0.0535 -0.0258
21145W        W40679   7.854  17.322   9.855  0.1180 -0.0519 -0.0468
21146W        W40680  15.222  14.440  13.459  0.3908  0.1607 -0.1186
21147W        W40681   6.952  14.330   3.932  0.1810  0.0787  0.0173
21148W        W40682  11.478   0.320  10.834  0.1414 -0.1232  0.2385
21149W        W40683   4.447  16.941   3.396 -0.0512  0.1624 -0.3945
21150W        W40684  11.869   3.222   3.044 -0.1610  0.1284  0.1659
21151W        W40685  17.974  14.372  13.369  0.0305  0.0533  0.2764
21152W        W40686   4.596  19.091  10.404  0.1249 -0.0582  0.0596
21153W        W40687  10.037   9.200  11.407 -0.2876  0.2667 -0.0214
21154W        W40688   2.870   1.856  12.942 -0.0523  0.1244  0.0476
21155W        W40689  13.542   8.695   2.802  0.0664  0.0219  0.3609
21156W        W40690  14.228   4.439  10.153  0.1554 -0.2178 -0.0638
21157W        W40691  19.101  19.045   2.053  0.1608  0.0184  0.2060
21158W        W40692   0.270   9.361  13.254 -0.0785 -0.4441  0.0796
21159W        W40693   1.709  11.710  13.313  0.3690  0.2061 -0.3733
21160W        W40694   1.851   3.898   3.358  0.1135 -0.3488 -0.1076
21161W        W40695   2.777   4.318  12.561  0.2936 -0.0847  0.2642
21162W        W40696   0.104   0.229  12.937 -0.1510  0.4200  0.0434
21163W        W40697   3.375  10.645  12.916 -0.0519 -0.0396 -0.0678
21164W        W40698   9.153   1.645   3.544 -0.3650  0.2072 -0.2111
21165W        W40699  15.742   1.667   2.615 -0.2980 -0.4446 -0.0027
21166W        W40700   2.508  15.567   3.881  0.2352 -0.0210 -0.1789
21167W        W40701  13.394   8.135  11.838  0.1517 -0.1378 -0.0288
21168W        W40702   1.805   6.245   4.493  0.0478 -0.0310  0.1482
21169W        W40703   4.729   5.874  12.275  0.0623 -0.3150  0.1870
21170W        W40704  13.034  14.468  13.573 -0.1632  0.0270 -0.3066
21171W        W40705   8.796  17.936  13.192  0.1224  0.0810  0.1540
21172W        W40706  16.347   0.372   1.931 -0.1019  0.0245 -0.1048
21173W        W40707  16.314   3.177   0.850 -0.3790 -0.0206 -0.3561
21174W        W40708  13.209  10.732   2.658  0.0793  0.2675 -0.1848
21175W        W40709  10.155   6.148   1.221 -0.3111 -0.2452  0.0451
21176W        W40710   4.079  12.259   3.904 -0.0372 -0.0555 -0.2910
21177W        W40711   8.965   9.542  14.083  0.2287  0.1331  0.0461
21178W        W40712  12.603  14.879  12.899  0.0299 -0.0981 -0.0278
21179W        W40713  13.562  16.642   1.688  0.2570  0.1405 -0.4884
21180W        W40714   9.053  19.335   3.396  0.0435 -0.1294 -0.0791
21181W        W40715  15.634  12.236   4.132 -0.1660  0.2592 -0.1598
21182W        W40716  13.726  13.462   3.607 -0.2237 -0.0196  0.4576
21183W        W40717   4.023  17.508  13.549 -0.0082 -0.1058  0.1678
21184W        W40718   6.583  13.395   0.072 -0.2332  0.0259 -0.3691
21185W        W40719  13.230  18.529   3.579 -0.0610  0.1199  0.2464
21186W        W40720  17.252  16.521   1.609 -0.1488  0.2017  0.2737
21187W        W40721  17.818  12.911  10.563  0.0854  0.1411  0.1163
21188W        W40722   8.314  13.083   0.651  0.0131  0.2562 -0.3007
21189W        W40723   3.376  14.033   1.859 -0.3091 -0.1460  0.0245
21190W        W40724   1.816  10.421  14.026  0.0290  0.1307  0.1303
21191W        W40725  12.352  15.525  14.371  0.0567  0.1376 -0.3824
21192W        W40726   1.213  14.598  10.378 -0.0032 -0.0325  0.2771
21193W        W40727   7.823   3.051  13.192 -0.0430 -0.1480  0.0019
21194W        W40728   9.857   5.953  13.641 -0.0679 -0.1836 -0.2422
21195W        W40729   9.426  17.598   2.608  0.1956 -0.2807  0.0115
21196W        W40730   5.447  17.610   0.611  0.4909 -0.0398 -0.2116
21197W        W40731  16.707  16.802   2.699  0.1695 -0.5682  0.1148
21198W        W40732   4.577   4.504  13.728  0.1569  0.2343  0.2192
21199W        W40733   3.423   7.131  12.614 -0.2575 -0.0834 -0.1161
21200W        W40734  19.236  11.762  11.909 -0.4727  0.0365 -0.3128
21201W        W40735   3.060  10.976  13.792 -0.2653  0.0678  0.1652
21202W        W40736   1.810  15.136   0.568 -0.1190  0.0009  0.3301
21203W        W40737  14.421   2.588   3.714  0.3222 -0.1636 -0.0855
21204W        W40738   2.388   1.674   3.441 -0.1085  0.1191 -0.3124
21205W        W40739  18.352   8.359   1.779 -0.1561 -0.2418 -0.0751
21206W        W40740  13.994  17.870  13.237 -0.0322  0.1606  0.2538
21207W        W40741   7.362   2.528   3.144 -0.0925  0.2420  0.1893
21208W        W40742   4.854   4.561   3.310  0.3600  0.1470  0.1271
21209W        W40743  14.582  12.592   0.808 -0.3622  0.0478  0.0953
21210W        W40744   9.593  17.059   3.406 -0.1698  0.0979 -0.0355
21211W        W40745  15.284   5.986   3.319  0.0703 -0.5282  0.2934
21212W        W40746  16.129  19.062   3.169 -0.0629 -0.2834 -0.0428
21213W        W40747   6.008   9.646   0.468 -0.3436 -0.1123 -0.1408
21214W        W40748   6.512   9.815   0.702  0.3586  0.0237  0.0077
21215W        W40749   1.987   0.809  13.558  0.0923  0.2618 -0.1289
21216W        W40750  16.162   4.482   2.080 -0.2776 -0.3407 -0.2512
21217W        W40751   6.941  18.272  12.903  0.3160  0.1504 -0.1607
21218W        W40752   3.753   6.776   0.131  0.1374  0.1096  0.1557
21219W        W40753  18.020  16.025   3.684  0.1217 -0.1247 -0.2089
21220W        W40754   6.948  14.447   0.968  0.1348 -0.1796 -0.2145
21221W        W40755  17.548  16.764  10.452  0.0294  0.1913  0.1164
21222W        W40756   9.588  17.615  13.852  0.1586  0.1383 -0.1973
21223W        W40757   9.323  13.655  10.782 -0.2270  0.1259 -0.3352
21224W        W40758   3.830  18.723   4.753 -0.0612 -0.2328 -0.1511
21225W        W40759  10.747   5.868  13.905  0.3100 -0.1943 -0.1026
21226W        W40760  12.815   3.503  14.100  0.0362  0.1834 -0.0468
21227W        W40761  10.855  16.371   2.253  0.2166 -0.0871 -0.0819
21228W        W40762   8.509  14.577   0.665 -0.3019 -0.0236  0.0263
21229W        W40763  16.957  18.449  12.784  0.1373 -0.2678  0.0133
21230W        W40764  10.735  11.572  13.046 -0.1312  0.0891  0.0338
21231W        W40765   0.977  12.879   1.801 -0.1251 -0.0007 -0.0094
21232W        W40766   5.513  13.215  11.537 -0.1250  0.0772  0.1364
21233W        W40767   6.568  12.395  12.775 -0.2737 -0.2052  0.1266
21234W        W40768  17.551  11.710   4.648 -0.1751 -0.0470  0.0419
21235W        W40769   8.193   1.072  13.344 -0.1797 -0.0451 -0.0948
21236W        W40770  11.737  15.708  13.707  0.1335  0.3427  0.0792
21237W        W40771  17.956   0.617  13.182  0.1059 -0.0382 -0.0814
21238W        W40772   1.491   9.043  12.659  0.1707  0.0363 -0.0277
21239W        W40773  17.826  10.926  11.754  0.2634  0.0330  0.3444
21240W        W40774   0.899   0.485  11.830 -0.0481  0.1455 -0.1580
21241W        W40775  13.603   3.623   0.323  0.1407  0.2083 -0.2542
21242W        W40776   5.624  17.350   1.109 -0.2576  0.1322  0.1151
21243W        W40777   7.497  10.609   3.281 -0.0090 -0.1359  0.1461
21244W        W40778  12.250   2.727  13.721 -0.1638  0.0071 -0.0798
21245W        W40779   3.975  18.615   1.924 -0.2763 -0.3042 -0.2200
21246W        W40780   1.341  18.068  12.500  0.1821 -0.2610  0.1617
21247W        W40781   1.969  19.317   5.000  0.1153 -0.0705  0.1552
21248W        W40782  18.484   5.184  11.524  0.0820 -0.1404  0.0748
21249W        W40783   3.284   7.569   0.213 -0.0929  0.0139 -0.2055
21250W        W40784  12.002   0.405  14.365  0.3631  0.1167  0.0154
21251W        W40785   4.514  12.611  12.168 -0.1572 -0.1090  0.1771
21252W        W40786   3.100   6.171   1.663 -0.4186 -0.1698 -0.0869
21253W        W40787   9.064   4.618  13.831  0.3452  0.1671 -0.3883
21254W        W40788  19.409  19.327   2.394  0.0053  0.1924  0.3626
21255W        W40789   0.722   9.369  13.470  0.1134  0.0995 -0.1607
21256W        W40790   8.106  18.671   2.135 -0.1416 -0.0296 -0.0510
21257W        W40791   7.253  14.054  10.554  0.0255 -0.2849  0.0897
21258W        W40792   3.780  13.633   4.507 -0.4489 -0.0748  0.0167
21259W        W40793  15.254  12.263   9.627  0.1444 -0.0203  0.2902
21260W        W40794  11.227   5.486  14.072  0.1365  0.0156  0.3802
21261W        W40795   4.872  11.788   0.045 -0.0864 -0.0739  0.3888
21262W        W40796   5.530  16.414   1.360  0.2798  0.2301 -0.2467
21263W        W40797  15.676   3.208   4.227 -0.0229  0.1918  0.0272
21264W        W40798  14.945   1.748  13.880  0.3689 -0.0055  0.0299
21265W        W40799   7.817   1.763  11.222  0.0051 -0.2495  0.1548
21266W        W40800   7.400  13.077  12.801 -0.3122  0.1148  0.1809
21267W        W40801  10.512  12.763  14.266  0.2412 -0.0382 -0.0203
21268W        W40802   2.965  12.046  14.127 -0.1415  0.2505  0.0633
21269W        W40803  15.265   4.905   1.206 -0.0817 -0.0800 -0.1642
21270W        W40804  14.610   2.573   0.056 -0.2947 -0.1891 -0.0354
21271W        W40805  13.853   1.823   0.900 -0.0325  0.0806 -0.2637
21272W        W40806  16.937   5.098  11.590 -0.0796 -0.1432  0.0760
21273W        W40807  16.930   4.960   2.590  0.0459 -0.1089 -0.0136
21274W        W40808  11.625   5.278  12.318  0.6469 -0.1334  0.0474
21275W        W40809  19.386  14.349   9.798  0.3596  0.1902  0.2086
21276W        W40810   3.603  17.257   4.040  0.4020 -0.1447  0.1788
21277W        W40811  14.255   6.572   3.845  0.2015 -0.1625 -0.1356
21278W        W40812  18.291   9.720   4.208  0.2788 -0.3029 -0.0044
21279W        W40813   4.455  12.049  13.126  0.2431 -0.0341 -0.0965
21280W        W40814   6.100  12.731   5.059 -0.0519  0.0566 -0.2935
21281W        W40815   9.084   3.846  13.302 -0.0951  0.0320 -0.0403
21282W        W40816   5.936  15.303   2.417  0.0373 -0.1269  0.1081
21283W        W40817  17.392  18.103  10.420 -0.1261  0.1150  0.1784
21284W        W40818  13.789  17.068   3.536 -0.0046 -0.1735  0.0966
21285W        W40819  13.486   6.451  10.147 -0.3416  0.1435  0.1057
21286W        W40820   2.819  11.155  10.977 -0.3567  0.1938  0.3747
21287W        W40821   6.514  15.418  11.943  0.2523 -0.1491  0.1403
21288W        W40822   1.778   1.483   1.426  0.1000 -0.2753  0.2559
21289W        W40823  11.233   9.054   4.193 -0.0105  0.0331 -0.5393
21290W        W40824  11.701   6.836   3.682 -0.0815  0.0132 -0.0379
21291W        W40825   7.696   6.840   0.221  0.2297 -0.0777 -0.0671
21292W        W40826  12.460   0.041   2.109  0.3204  0.3632  0.2331
21293W        W40827   4.582   8.575   0.179  0.1956  0.0952  0.1967
21294W        W40828   1.800   0.806  12.720 -0.1560  0.0980  0.1060
21295W        W40829  18.427  15.628   1.236  0.0645  0.0667  0.1641
21296W        W40830  13.924  18.165  12.068  0.2596  0.0078 -0.0910
21297W        W40831   1.834  10.606   1.364 -0.0162  0.0029  0.0722
21298W        W40832  17.689  18.498  10.099  0.1562  0.1991 -0.0880
21299W        W40833   7.840   7.903   1.669 -0.0910 -0.1015 -0.1111
21300W        W40834  18.074  19.055   9.958  0.2664 -0.1006 -0.1402
21301W        W40835   7.651  16.737  11.663  0.0654 -0.0617 -0.1375
21302W        W40836   4.247  10.049  11.999 -0.0856 -0.2372 -0.0352
21303W        W40837  11.919  10.424  11.657  0.0624 -0.2354 -0.2577
21304W        W40838   1.787   8.816  11.715 -0.3092 -0.3091 -0.1192
21305W        W40839   7.424  13.750   2.299  0.1110  0.4223 -0.2383
21306W        W40840  15.881   5.374   0.376 -0.0001 -0.0573  0.1657
21307W        W40841  15.161  17.761  10.366 -0.0170 -0.0792 -0.0886
21308W        W40842   0.892   7.426  10.731  0.0280 -0.1675  0.1094
21309W        W40843  13.666   8.519   4.030 -0.3045  0.0261  0.1325
21310W        W40844  11.655  15.181  10.167 -0.0250 -0.0350  0.2299
21311W        W40845   3.230  12.538  13.160 -0.1152 -0.1247 -0.0422
21312W        W40846   2.994   7.165   0.368 -0.2685 -0.0264 -0.1811
21313W        W40847   4.659   8.662   0.920 -0.2515  0.3096  0.0268
21314W        W40848   2.639   0.666  11.684 -0.2920  0.2564 -0.1661
21315W        W40849   4.951   1.076   1.232 -0.2222  0.0411 -0.0295
21316W        W40850   1.439  17.576  11.287  0.0672  0.1118  0.0846
21317W        W40851  15.047   4.593  11.892  0.1507  0.2491 -0.1143
21318W        W40852   1.530  17.115  12.994  0.1873 -0.0841 -0.2831
21319W        W40853  15.666   3.701   4.063  0.1231  0.3140  0.6005
21320W        W40854  18.970  17.203   2.553  0.0338 -0.0933  0.0972
21321W        W40855  19.030   7.547   4.106 -0.0200  0.0423 -0.1778
21322W        W40856  18.198  17.307  12.912 -0.3831  0.1155 -0.0989
21323W        W40857   0.685  13.042  12.895 -0.0784 -0.0026  0.0267
21324W        W40858  12.942  17.439  10.730 -0.0533 -0.0829 -0.3216
21325W        W40859   8.369   2.130   2.132  0.2582 -0.2732  0.2342
21326W        W40860  10.230   0.915   3.791 -0.0026  0.0234  0.0279
21327W        W40861  11.939   5.726  10.559  0.0373  0.0666 -0.1648
21328W        W40862   3.908   0.206  14.188  0.1458 -0.4965 -0.3170
21329W        W40863  16.266  17.248  13.970 -0.2297 -0.0368 -0.0363
21330W        W40864   5.637  14.757  13.552 -0.0166 -0.2795 -0.0488
21331W        W40865   6.488   2.091  12.156  0.1462 -0.3504 -0.0845
21332W        W40866   4.892  17.642   2.077  0.4043  0.0756 -0.1589
21333W        W40867  18.913  16.398   3.985 -0.0528 -0.0395  0.3495
21334W        W40868   7.476  13.146   1.617 -0.6651 -0.1247 -0.1262
21335W        W40869   4.739  19.013  12.133 -0.2113  0.5375  0.2499
21336W        W40870   7.424  18.972  12.143 -0.0091 -0.2763  0.0989
21337W        W40871   9.909   9.284   1.467 -0.0169 -0.1012 -0.1668
21338W        W40872  12.806  12.705  12.507 -0.3849  0.0213 -0.1686
21339W        W40873   7.823  13.139  13.765 -0.2128 -0.2506  0.0247
21340W        W40874   8.907  10.761   4.982 -0.3712 -0.0288  0.0930
21341W        W40875  11.908   3.945  13.874 -0.0427  0.0562  0.0033
21342W        W40876  16.444   0.508  10.457 -0.1756 -0.1400  0.2848
21343W        W40877   3.943  13.569  13.989  0.3379  0.2648  0.1767
21344W        W40878  10.889  15.104   1.037 -0.1813 -0.2653  0.0619
21345W        W40879  13.896   1.731   3.452  0.1560 -0.0645  0.1539
21346W        W40880  17.393   5.184   2.416  0.2113  0.0598 -0.0434
21347W        W40881  13.832   4.785  12.733 -0.2121 -0.0928  0.0668
21348W        W40882   8.636   4.224  11.069  0.1106  0.4803  0.2458
21349W        W40883  11.171  15.431  12.988  0.0657 -0.2673 -0.3179
21350W        W40884   4.795   7.653   9.784  0.3858  0.1574 -0.2353
21351W        W40885   9.250  14.180  10.125  0.1991  0.0910 -0.0332
21352W        W40886   9.490  19.395   0.790 -0.3099 -0.0529 -0.2972
21353W        W40887  11.631  10.082   0.682 -0.0892 -0.2468 -0.1460
21354W        W40888  13.231   3.743  14.253 -0.1414  0.1203  0.0131
21355W        W40889   0.365   0.129   2.670  0.1440 -0.1314 -0.1180
21356W        W40890  11.928  12.461  13.694 -0.1223  0.2172  0.1072
21357W        W40891   8.694  13.927   2.273 -0.1986 -0.1863 -0.0945
21358W        W40892  12.803  18.719   0.424  0.1117  0.0085 -0.0064
21359W        W40893   2.473  11.490   3.362 -0.0045  0.0149 -0.1528
21360W        W40894   9.106   5.522   0.328 -0.0033  0.1823  0.1361
21361W        W40895  17.476  12.900  10.075  0.1220 -0.0420 -0.2488
21362W        W40896   7.623   1.364  11.539 -0.0258 -0.0034  0.0990
21363W        W40897   8.599  10.707  12.840 -0.0703  0.1404 -0.1547
21364W        W40898  11.226  12.684   2.969  0.3117 -0.0504  0.0628
21365W        W40899  12.624  16.992   2.105  0.3587  0.3199 -0.1184
21366W        W40900   1.192   3.158  13.537  0.0297 -0.0596  0.0511
21367W        W40901   9.706  16.079   1.587 -0.2502 -0.0810  0.0435
21368W        W40902   6.296   3.754   0.776 -0.1064 -0.0322  0.1422
21369W        W40903   3.285  13.521  13.064 -0.1612 -0.1859  0.0391
21370W        W40904   4.322  10.196  14.180  0.1969  0.0400  0.0129
21371W        W40905  14.300  13.999   0.752 -0.0908  0.0118  0.4075
21372W        W40906   0.218   4.702  12.617  0.0056  0.1405 -0.0961
21373W        W40907   2.603  13.586   0.086 -0.2537 -0.1036 -0.2181
21374W        W40908   0.528   5.170  10.591 -0.0991 -0.2859 -0.2677
21375W        W40909  11.485   4.539  14.173 -0.2680 -0.1098  0.0171
21376W        W40910   5.994   7.924  11.886 -0.0356  0.2357 -0.0799
21377W        W40911   6.334  16.713   4.314  0.1545 -0.1039  0.1662
21378W        W40912  13.941   2.023  14.293  0.1263  0.2367 -0.3220
21379W        W40913   0.351  16.858   4.245 -0.1661 -0.1280 -0.0933
21380W        W40914   5.795  10.347  10.060  0.1166 -0.0347  0.1553
21381W        W40915   4.739  18.343  10.514  0.0227  0.0398  0.0140
21382W        W40916   2.357   6.261  14.208  0.1077 -0.0566  0.1136
21383W        W40917   5.457   9.720   1.110 -0.0942 -0.0189 -0.0245
21384W        W40918   2.235   8.800   2.789  0.0757 -0.1793  0.0667
21385W        W40919   5.282  10.455   1.632  0.1539 -0.2675 -0.0465
21386W        W40920  16.371  18.952  13.552 -0.1060 -0.1241  0.2029
21387W        W40921  12.124  10.644   3.482 -0.2126  0.1018  0.0965
21388W        W40922  13.181   7.687  14.013  0.0415 -0.0589 -0.0055
21389W        W40923   6.655   5.232  10.941 -0.0390 -0.2071  0.0182
21390W        W40924  11.552  16.994   2.819  0.0753  0.2881  0.2053
21391W        W40925   3.396   8.571   4.893  0.0440  0.2535 -0.2341
21392W        W40926   5.436   4.765   2.194  0.2400  0.0622  0.1265
21393W        W40927  14.747   6.236  14.331  0.0062 -0.1157  0.1332
21394W        W40928   3.844   0.724   0.396 -0.2411  0.0132  0.1125
21395W        W40929  17.041  18.682   3.004 -0.0881 -0.3734 -0.1767
21396W        W40930   6.132  10.886   9.632  0.1539  0.0887 -0.2356
21397W        W40931  18.956   6.066  11.768  0.0634  0.1834 -0.2653
21398W        W40932  15.889  17.279   9.900 -0.1439  0.3369  0.2356
21399W        W40933   4.692   4.776   1.673 -0.1450 -0.1998  0.1026
21400W        W40934   1.634   4.546  12.847  0.0672 -0.0983 -0.2728
21401W        W40935  16.714  15.440   2.773  0.0348  0.1265 -0.0962
21402W        W40936   3.393   6.075  14.328  0.1190 -0.1582  0.3053
21403W        W40937  10.125   0.101   3.291  0.3387 -0.3492  0.2333
21404W        W40938  15.699   6.264   0.178 -0.1112 -0.0147 -0.0927
21405W        W40939  14.875   8.885  13.100 -0.2332  0.1475 -0.0545
21406W        W40940   9.952  11.577  10.946 -0.0059  0.1516  0.1842
21407W        W40941  19.214   5.230   0.914 -0.2809 -0.0147 -0.0468
21408W        W40942  16.225   2.831   1.212  0.1147 -0.0994 -0.1841
21409W        W40943   5.877  13.922   1.268  0.0274  0.0281 -0.2170
21410W        W40944  14.523   5.662   9.488  0.1071  0.2417 -0.1029
21411W        W40945  10.126   1.248  10.319 -0.2658 -0.1102 -0.0481
21412W        W40946   8.707   0.984   2.569 -0.2086  0.1327  0.0418
21413W        W40947  15.976   1.110  14.217 -0.1450 -0.1480  0.1934
21414W        W40948   6.580   1.005   1.529  0.2373 -0.3441 -0.1767
21415W        W40949  19.072  12.896   1.688 -0.0591  0.0377 -0.3217
21416W        W40950  13.249  15.341   4.014  0.3591  0.1721  0.0491
21417W        W40951   6.139   7.451   0.704 -0.0666 -0.0317  0.2596
21418W        W40952  17.498   4.907   9.675 -0.0817 -0.0194  0.1481
21419W        W40953   7.426  17.944   2.877  0.0077  0.0072 -0.1907
21420W        W40954  12.946  13.746   3.992  0.3127 -0.2527  0.0273
21421W        W40955  14.783  18.288  11.749  0.2349  0.1220  0.0323
21422W        W40956   3.013  10.214  13.188  0.1388 -0.2180  0.2975
21423W        W40957   7.610   9.441   4.274  0.2494  0.1078  0.0875
21424W        W40958  12.312  18.063  13.793  0.0542 -0.0231  0.1498
21425W        W40959  15.861  10.893   0.201 -0.1330 -0.1939 -0.0279
21426W        W40960  10.913   3.392  10.430 -0.0286  0.0047 -0.0280
21427W        W40961  11.139   9.739  11.566  0.0567  0.0191 -0.3991
21428W        W40962  14.713   3.167   0.521  0.1115  0.0787 -0.2358
21429W        W40963   9.163   2.116   1.855  0.0724 -0.0245 -0.0524
21430W        W40964  12.415   4.641   0.507  0.0947 -0.3272 -0.0634
21431W        W40965  14.910   3.669   9.762 -0.1895 -0.0364  0.0834
21432W        W40966  15.893   0.494   1.726 -0.2320 -0.1481 -0.2511
21433W        W40967  18.534   7.935   3.644 -0.1475  0.0410  0.1472
21434W        W40968   4.379  18.610   9.565 -0.2597  0.1582 -0.1590
21435W        W40969   3.119  14.180  13.453 -0.0644  0.0295 -0.1441
21436W        W40970   7.048   7.730  10.881  0.1222 -0.1426 -0.2084
21437W        W40971  18.337   8.664  13.651  0.3451 -0.3170  0.3202
21438W        W40972  18.815  14.590   9.009 -0.0459 -0.2104  0.1268
21439W        W40973  15.818  13.597  13.534 -0.2967  0.1399  0.2002
21440W        W40974   0.637   2.496  12.057  0.1351  0.3716 -0.0174
21441W        W40975   4.266  16.208  10.760  0.3482  0.0623  0.1955
21442W        W40976  13.789   8.398   3.193 -0.1137  0.1752  0.0239
21443W        W40977  18.676   7.419   1.060  0.0048 -0.2293 -0.1762
21444W        W40978   1.712  14.001  14.365 -0.0651 -0.1718 -0.0555
21445W        W40979   8.407  11.266   0.603 -0.0814 -0.2751  0.0321
21446W        W40980  11.346  10.524   4.741  0.2674  0.1858 -0.1739
21447W        W40981  16.140   8.463  14.365  0.4600 -0.1357 -0.1829
21448W        W40982   5.116   0.336  12.077  0.0821 -0.0550 -0.0409
21449W        W40983  16.452   0.272  12.594  0.2277  0.2099  0.0827
21450W        W40984   2.445  16.777  11.442 -0.2044 -0.3792 -0.1656
21451W        W40985  17.755  14.661   0.633 -0.0719 -0.1122 -0.0432
21452W        W40986   0.442   6.640   4.733  0.0706 -0.0179  0.1377
21453W        W40987   1.752  15.358  12.694  0.0480 -0.1760 -0.0889
21454W        W40988   2.277   0.142  10.998 -0.2694 -0.3336  0.2073
21455W        W40989   2.453   6.081  11.604  0.1205  0.0333 -0.1659
21456W        W40990  16.685  14.387   9.351 -0.1256 -0.0101 -0.0291
21457W        W40991  18.171  12.584   2.727 -0.0508 -0.2350  0.4979
21458W        W40992  12.564   0.375   1.080 -0.3573  0.3649  0.0215
21459W        W40993  17.245  17.394  13.333 -0.1988 -0.1398 -0.3254
21460W        W40994   4.433   4.340   3.437  0.0870 -0.1308  0.1243
21461W        W40995  15.127  10.507   1.388 -0.0205 -0.4926 -0.2676
21462W        W40996   7.366   7.959   4.513  0.0706  0.1038  0.1921
21463W        W40997  16.856   2.179  12.856 -0.0133  0.0447  0.1187
21464W        W40998   1.209  17.728  10.857 -0.0060  0.2064 -0.1807
21465W        W40999  17.901   2.035  11.914 -0.1699 -0.0774  0.0788
21466W        W41000   8.534  10.704  13.434 -0.0105 -0.3338 -0.3205
21467W        W41001   1.079   2.322   3.125  0.2082  0.1962 -0.1687
21468W        W41002  15.567  13.084  13.793  0.2990 -0.1541  0.1257
21469W        W41003  13.973   2.902  13.704 -0.0814  0.0559 -0.0010
21470W        W41004  15.219   7.617   1.772 -0.1579  0.2803 -0.0205
21471W        W41005  18.641   3.215  12.534  0.3457  0.1495  0.0062
21472W        W41006  10.978   0.422  11.044 -0.0377 -0.0003  0.3542
21473W        W41007  19.032  11.065   3.392  0.1789  0.0659  0.2859
21474W        W41008   1.161   4.162   2.700 -0.0615 -0.2918 -0.1812
21475W        W41009  17.809   8.115   3.142  0.2130 -0.0749  0.5407
21476W        W41010  15.096  17.124   1.706  0.0258  0.0935  0.0841
21477W        W41011  12.966  10.178  11.632 -0.1309  0.0457  0.0897
21478W        W41012  10.014   4.692  14.234  0.2791 -0.0055 -0.0519
21479W        W41013   0.371  17.137   0.905  0.1141 -0.0032  0.0640
21480W        W41014  15.638   7.999   3.078 -0.1283  0.0221  0.0015
21481W        W41015   0.175   1.904   2.690  0.1476 -0.2106  0.1254
21482W        W41016  16.599  19.339  10.762  0.0551 -0.0557  0.0780
21483W        W41017   1.239   1.372  13.937  0.0605  0.0938 -0.4058
21484W        W41018   8.129  11.580  11.322  0.3132  0.0115  0.0150
21485W        W41019  13.478   4.141   0.091 -0.2157 -0.0071  0.2942
21486W        W41020   7.315  19.159   2.656  0.0288 -0.2703 -0.0109
21487W        W41021   9.995  15.574   3.442 -0.1530  0.5549 -0.3123
21488W        W41022  14.538   4.063   0.785  0.0654  0.3960 -0.1689
21489W        W41023  10.665  13.095  13.618  0.1210 -0.0011  0.0328
21490W        W41024   7.891  14.508  13.794  0.0178 -0.2020 -0.1005
21491W        W41025  13.973  11.162  11.128 -0.1243  0.3027  0.4098
21492W        W41026   9.079   8.758  11.440  0.1933  0.4621  0.0011
21493W        W41027  13.365  10.817   2.195  0.1059 -0.1106 -0.0199
21494W        W41028  16.879   8.583   4.144  0.2598 -0.0874 -0.0551
21495W        W41029  11.109   5.543   0.469  0.0414 -0.1771  0.3055
21496W        W41030   9.700   0.360   1.591  0.2043  0.0440 -0.1580
21497W        W41031   9.828   4.926   2.206  0.1670 -0.0240 -0.4240
21498W        W41032   7.746  15.119   1.074  0.2523  0.1151  0.2044
21499W        W41033   9.860   4.449  12.448  0.1990 -0.0766  0.0083
21500W        W41034  10.951   9.048   5.147 -0.2396 -0.0520 -0.2310
21501W        W41035  19.050   6.989  11.874  0.2149  0.2439 -0.2780
21502W        W41036  16.312  17.521   1.761 -0.3468  0.1407 -0.1137
21503W        W41037  10.521  11.726   2.462  0.2521  0.0646  0.1127
21504W        W41038  15.462   7.472  14.336  0.2583  0.0900 -0.3338
21505W        W41039  12.772   6.696   0.279 -0.0256 -0.0690  0.0452
21506W        W41040  10.975   8.794   3.418 -0.0858  0.1754  0.1676
21507W        W41041   5.470   7.641   0.086 -0.0747  0.1614  0.2490
21508W        W41042  17.994   7.771   1.609  0.1333 -0.2878  0.0446
21509W        W41043   8.868   3.369  12.180  0.0350  0.0468 -0.0639
21510W        W41044  14.398  18.374  13.801 -0.1527 -0.2434  0.0774
21511W        W41045   9.820  18.905  13.546 -0.0085  0.0868  0.4023
21512W        W41046   1.259  17.688   2.547  0.0646 -0.0888  0.1284
21513W        W41047  13.414   1.171  12.285  0.2658 -0.0547  0.0913
21514W        W41048   2.817   7.674   3.153 -0.1086 -0.2398 -0.0191
21515W        W41049   4.710   5.031  12.805 -0.0820  0.4040  0.2684
21516W        W41050  11.802  14.491  11.224 -0.3317  0.0883 -0.1036
21517W        W41051  17.896  16.419   3.320 -0.0503 -0.1866  0.0404
21518W        W41052   5.586   6.342  12.279 -0.0887 -0.2559 -0.0250
21519W        W41053   2.293  13.346  11.440 -0.0647  0.1862 -0.1913
21520W        W41054  13.673  12.072  12.900  0.0449 -0.1606  0.0811
21521W        W41055   4.617   3.141  10.857  0.0354  0.1404  0.2161
21522W        W41056   7.974   0.310   3.550 -0.3286 -0.3457  0.0173
21523W        W41057   1.989  16.367  13.639  0.3296 -0.1984 -0.2388
21524W        W41058   0.048   8.216   1.996  0.0132  0.0163 -0.0076
21525W        W41059   0.302  13.787  13.939  0.0539 -0.0918  0.2614
21526W        W41060   7.021   8.998  12.348 -0.0983  0.0031 -0.1481
21527W        W41061   1.145  13.440  10.221 -0.1999  0.0409 -0.2542
21528W        W41062  17.471   9.058   2.044 -0.0381  0.0493  0.0991
21529W        W41063  15.142  15.282   9.104  0.0925  0.1040  0.0779
21530W        W41064  16.674   9.446  11.443  0.0024  0.2848  0.1781
21531W        W41065   9.598  13.644  13.130  0.0122  0.0311  0.1527
21532W        W41066   0.281  15.575   1.175  0.2021 -0.1345 -0.0299
21533W        W41067  17.347  10.151  10.195  0.1710 -0.0059  0.3981
21534W        W41068   7.553  11.018  11.851 -0.0731 -0.0899 -0.1571
21535W        W41069   8.635   1.016   9.188  0.3113  0.0449  0.1811
21536W        W41070   5.399  19.013  10.526  0.0637  0.1132 -0.3422
21537W        W41071  14.865  16.386  11.236 -0.2945  0.2474 -0.0890
21538W        W41072  19.446   0.170  11.459  0.2476  0.1037 -0.4867
21539W        W41073   7.765   2.183   3.343 -0.0338 -0.1214  0.1199
21540W        W41074  12.302  14.659  14.350  0.1263 -0.0685 -0.1948
21541W        W41075  12.653   0.150  11.487 -0.2124 -0.0416 -0.2591
21542W        W41076  10.517   8.694  11.879  0.4354  0.1336 -0.0835
21543W        W41077   6.521   4.197  12.866  0.3289  0.0923 -0.1128
21544W        W41078   1.191   3.596  10.441  0.2566 -0.0205  0.0175
21545W        W41079  17.992  14.394   0.208  0.3746 -0.0268  0.4010
21546W        W41080   3.153   1.349   2.690 -0.0480  0.1663 -0.0005
21547W        W41081  13.980  19.363   2.303 -0.2039  0.2477 -0.4503
21548W        W41082  14.481  19.248  12.009 -0.2713  0.1004 -0.0887
21549W        W41083   3.751  13.324  10.516  0.2059  0.3320  0.0024
21550W        W41084  19.458  18.271   2.616 -0.0078 -0.2786 -0.0379
21551W        W41085  19.158   2.409   3.780 -0.0321  0.0471  0.2182
21552W        W41086  18.664   9.104  10.727  0.2758  0.3684 -0.0129
21553W        W41087  11.852  17.624   1.962  0.0583 -0.0673 -0.0530
21554W        W41088  19.436   1.273  10.393 -0.0232 -0.1456  0.1206
21555W        W41089   6.457   1.397  10.510 -0.0164 -0.0884  0.2190
21556W        W41090  18.783  18.391  13.899 -0.1595 -0.1835 -0.1319
21557W        W41091   3.504  12.190  13.972 -0.0266  0.1459  0.1490
21558W        W41092  18.482   7.765  10.551 -0.2977  0.2312 -0.0936
21559W        W41093  13.202  16.713  11.288 -0.0775 -0.2069  0.1603
21560W        W41094   5.293   5.316  10.465 -0.0371 -0.2824  0.0476
21561W        W41095  18.316  19.241  13.560 -0.0531 -0.2167 -0.0914
21562W        W41096   6.846   6.291   3.320 -0.0269  0.2906  0.0117
21563W        W41097  17.082  13.046  11.242  0.2235 -0.1462  0.1797
21564W        W41098  19.402  10.845   9.888 -0.1568  0.3350  0.1340
21565W        W41099   2.254  15.404   0.448  0.1396 -0.0904  0.0296
21566W        W41100   3.950  10.815   3.825  0.1350  0.0320 -0.2560
21567W        W41101  14.332   5.507   1.691  0.2232 -0.1141  0.0127
21568W        W41102  14.507   4.187  11.478 -0.1569  0.1980  0.2391
21569W        W41103  11.383   7.074  12.771  0.0117  0.0011  0.0858
21570W        W41104  12.010   9.335  12.432  0.2257 -0.0392 -0.2335
21571W        W41105  16.895  11.227   2.232 -0.2784 -0.2128  0.1973
21572W        W41106   6.785   5.071   0.987  0.0359  0.0901 -0.0070
21573W        W41107   3.141   4.049   3.941 -0.1079 -0.1229  0.0840
21574W        W41108   1.806   2.160   3.807  0.0601 -0.1005  0.0264
21575W        W41109   4.667   0.645  13.996  0.0884 -0.1029  0.0292
21576W        W41110   1.240  18.477  11.236  0.0519  0.2102 -0.0495
21577W        W41111   3.929  15.927  14.126  0.1405  0.1875  0.1479
21578W        W41112  18.094  12.209  11.530 -0.1390  0.1096 -0.0049
21579W        W41113  12.113  12.746   2.502 -0.0496  0.2740 -0.0741
21580W        W41114   4.192  16.134  12.505  0.0402 -0.0232 -0.3295
21581W        W41115   1.585  12.498   1.287  0.2402 -0.1896 -0.2456
21582W        W41116  10.704   9.500  11.524  0.1035  0.4824 -0.0499
21583W        W41117   4.244   4.469   4.405 -0.2746  0.2361  0.3228
21584W        W41118   9.962  17.336   3.301  0.0021  0.1740 -0.0002
21585W        W41119  13.956   0.826  11.392  0.5275  0.0541  0.1115
21586W        W41120  17.493  12.561   9.601  0.2861  0.1912 -0.0022
21587W        W41121  14.477  16.311   3.203 -0.1245  0.4795  0.0071
21588W        W41122   5.967  15.995   0.596 -0.0412  0.1966  0.0934
21589W        W41123  14.462  15.244  12.105  0.0002 -0.0131 -0.2436
21590W        W41124  14.458  11.415   2.740 -0.2193 -0.1291  0.0979
21591W        W41125  16.984  18.921   0.669 -0.0568 -0.2357  0.1240
21592W        W41126  15.297   7.493   3.710  0.4128  0.0918 -0.0988
21593W        W41127   6.909  12.845   3.442 -0.0224  0.1763 -0.1009
21594W        W41128   2.351   1.571  13.229 -0.1883  0.1022 -0.1764
21595W        W41129   1.993   8.437  10.861  0.0501 -0.1266 -0.2149
21596W        W41130   1.417   5.116   3.212  0.0225 -0.2976  0.1908
21597W        W41131   1.645   5.039   1.724  0.0499  0.0889  0.0971
21598W        W41132  14.062  15.087  12.327 -0.0088  0.1745 -0.2807
21599W        W41133   4.440  14.702  13.652 -0.0554 -0.1361  0.2359
21600W        W41134  17.824   9.518   1.053 -0.1809 -0.1584  0.5461
21601W        W41135   3.093  15.266  13.637  0.3008 -0.3215  0.0386
21602W        W41136   2.140   7.962   2.622  0.0013  0.1795 -0.1901
21603W        W41137   1.441   7.166   3.627  0.2555  0.3031 -0.0749
21604W        W41138  18.693   5.501   2.233 -0.4863  0.1733 -0.0698
21605W        W41139  11.837  13.458   3.483 -0.0285 -0.0949 -0.4248
21606W        W41140   5.427  17.660   3.458 -0.0848  0.2218 -0.1239
21607W        W41141   5.479  12.003   4.011 -0.1331 -0.1955 -0.3210
21608W        W41142   3.688   7.077   4.084 -0.1139  0.0586  0.0901
21609W        W41143  16.837   3.034  11.239  0.2424 -0.1671 -0.1494
21610W        W41144  18.750   0.954  11.137  0.0431 -0.2136  0.2793
21611W        W41145   0.503  15.856   0.812  0.2242  0.0463 -0.1895
21612W        W41146  13.617  12.465   9.762 -0.3611  0.1595  0.0542
21613W        W41147   1.683   2.158  11.664  0.1072  0.0103 -0.0200
21614W        W41148   0.531   2.935  10.539  0.3870  0.5179  0.1421
21615W        W41149   1.786   7.544   2.275  0.1000  0.1184 -0.3050
21616W        W41150   8.175  16.092   0.125 -0.2149  0.1466  0.0993
21617W        W41151   0.188   1.647  10.701  0.2298  0.2083 -0.1387
21618W        W41152   8.984   0.364  11.327 -0.0654 -0.1876  0.1691
21619W        W41153  11.311  11.912  10.962  0.1900 -0.1656 -0.0789
21620W        W41154   8.280  12.008  13.534  0.0753 -0.0098  0.0292
21621W        W41155   4.595  19.111  13.087 -0.2086  0.1259 -0.2405
21622W        W41156   2.364  13.132  10.830  0.0122  0.0183  0.1616
21623W        W41157   0.657  11.050  13.481  0.1194 -0.2607 -0.0058
21624W        W41158  14.942   0.866  12.582 -0.4046  0.0085 -0.2166
21625W        W41159   2.959  13.145   3.436  0.0548 -0.0685  0.3576
21626W        W41160   8.902  10.102   1.146  0.2553 -0.0818 -0.3270
21627W        W41161   5.628   2.493  11.041 -0.4133  0.0764 -0.1030
21628W        W41162  16.950  11.963   2.927 -0.1193 -0.1571  0.1385
21629W        W41163  15.108   6.170  12.365  0.2051  0.2824 -0.0173
21630W        W41164   5.060  12.294   3.934 -0.1128 -0.1823 -0.0589
21631W        W41165  14.386  15.994   9.953 -0.3856  0.0418 -0.2699
21632W        W41166  11.812   9.135  11.518 -0.0020 -0.0294 -0.2022
21633W        W41167  17.079  10.642  12.501 -0.0535  0.0454  0.2476
21634W        W41168  12.199   6.611   0.025  0.0575  0.0304 -0.1163
21635W        W41169   8.214  14.251  14.033 -0.0061 -0.2384 -0.1968
21636W        W41170   7.361  14.316  11.083  0.0594  0.3362  0.2808
21637W        W41171  17.955   1.623  13.244  0.0946  0.2824  0.0874
21638W        W41172   4.638   9.631   2.216  0.1418  0.2097 -0.3017
21639W        W41173   2.069  19.088   3.118  0.1293  0.0427  0.0749
21640W        W41174  18.133   2.495   1.861  0.1864  0.2525  0.0404
21641W        W41175  16.460   9.130  14.296 -0.1095  0.1054 -0.2876
21642W        W41176  11.063   4.421  10.314 -0.2429 -0.1557 -0.2623
21643W        W41177   2.851  15.006  13.212  0.0571 -0.2057 -0.0090
21644W        W41178  16.053  10.126   2.005  0.3694 -0.2594 -0.0547
21645W        W41179  18.425  13.665   2.050  0.0468 -0.1199  0.0003
21646W        W41180  13.979  15.622  13.691 -0.2536 -0.1505  0.0339
21647W        W41181  10.629   5.435   1.349  0.0356  0.2094 -0.0458
21648W        W41182   1.332   0.625   4.036  0.0244 -0.3447  0.3083
21649W        W41183  12.634   5.949  11.786 -0.0768  0.1871 -0.4381
21650W        W41184   3.720   9.853   0.244  0.2656 -0.0266  0.0650
21651W        W41185   8.564  13.998  13.664  0.2946 -0.3513  0.1230
21652W        W41186   9.489  17.783  12.139  0.1158  0.3453 -0.1755
21653W        W41187   0.118  11.559   1.445  0.1207 -0.0413 -0.0224
21654W        W41188   0.258  13.607   3.168  0.1212 -0.0627 -0.0690
21655W        W41189  12.473   2.534  10.164  0.2152  0.2114  0.3819
21656W        W41190  19.229  14.056  11.324  0.0104  0.0601 -0.1094
21657W        W41191   4.479  12.970  13.095  0.2528 -0.0620  0.5681
21658W        W41192   2.755  12.678   0.020 -0.0726  0.4986 -0.2772
21659W        W41193  10.940   1.076   1.173 -0.1114 -0.0420 -0.2679
21660W        W41194   5.190  16.234   1.768 -0.1955  0.1623 -0.1656
21661W        W41195  11.205   4.063   3.520 -0.0676 -0.1129 -0.0266
21662W        W41196   0.353   2.905   3.619 -0.0997  0.1837 -0.0420
21663W        W41197  16.341  13.062  11.285 -0.0373 -0.1863 -0.2025
21664W        W41198   2.157   2.038  11.556 -0.0449  0.0243  0.3226
21665W        W41199   6.018   4.119   1.282  0.1075 -0.0018  0.1045
21666W        W41200  17.887  11.494   1.983 -0.2501  0.0446  0.0267
21667W        W41201   7.724  16.285   2.002 -0.1979 -0.0543 -0.1092
21668W        W41202   6.845  10.043  13.239 -0.2635  0.1870 -0.0128
21669W        W41203   4.133   8.847   0.375  0.2511  0.0506 -0.0567
21670W        W41204  19.459   7.328  13.783  0.3141  0.3886  0.0646
21671W        W41205  19.147   1.251   3.338 -0.1523  0.1915  0.3262
21672W        W41206   2.323   0.563   3.211  0.0597  0.0464 -0.1114
21673W        W41207  14.342  13.703   0.068 -0.0297 -0.1533 -0.0001
21674W        W41208   3.283   6.121  12.375  0.0223 -0.0111 -0.3837
21675W        W41209  10.252  17.205  14.319  0.2251 -0.1054  0.4019
21676W        W41210   9.351  14.053   0.497 -0.1538 -0.0409 -0.3171
21677W        W41211  17.104  19.146   0.020  0.1021  0.0623 -0.0879
21678W        W41212   4.416  17.438   3.239  0.1116  0.0692 -0.1048
21679W        W41213  14.134  15.987   3.036  0.2586  0.0873 -0.2664
21680W        W41214  10.430   5.021   3.631 -0.1185 -0.1284 -0.0221
21681W        W41215  13.357  10.378   1.408  0.0008 -0.2460  0.1106
21682W        W41216   7.030   0.444   0.441  0.0569 -0.0607  0.1659
21683W        W41217   3.643   6.279   4.974 -0.1652  0.0368  0.0593
21684W        W41218  14.755  16.278  13.525 -0.1790 -0.1834 -0.0603
21685W        W41219   9.780  10.257  13.617  0.0335 -0.0404 -0.2247
21686W        W41220   0.875   8.049  12.235  0.3564  0.1658 -0.0871
21687W        W41221   3.500  18.990   9.563 -0.0670 -0.1256 -0.1798
21688W        W41222  11.146  18.806  11.319  0.0027  0.0930  0.0675
21689W        W41223  14.565  10.352  10.757  0.3605 -0.0954 -0.1527
21690W        W41224  19.433  14.397  12.487  0.1682  0.2057  0.0982
21691W        W41225   5.648   0.464   0.565  0.1041  0.1691 -0.0140
21692W        W41226  18.782   4.160   3.221  0.0813 -0.2623  0.0629
21693W        W41227  10.393   5.997   2.589 -0.0911 -0.0231 -0.0543
21694W        W41228   6.624   2.933  12.507  0.0197 -0.0992  0.1178
21695W        W41229  12.307  10.707   0.933 -0.2957  0.1895 -0.2799
21696W        W41230  15.043  18.625   3.365 -0.2179  0.0511  0.1154
21697W        W41231   7.744  15.670   2.922  0.0400 -0.1174 -0.2027
21698W        W41232  11.487  17.029  10.375 -0.4255  0.0380  0.2958
21699W        W41233  19.151   3.077   1.183 -0.3415 -0.1292  0.1529
21700W        W41234  16.409  10.875  10.641  0.2972 -0.0753 -0.2497
21701W        W41235  15.211   6.518   1.987 -0.0507 -0.1232  0.2820
21702W        W41236  17.004  12.219   1.929  0.1327  0.0360 -0.1415
21703W        W41237  13.472  13.752   0.186  0.1681 -0.0547  0.1899
21704W        W41238  10.369   6.449  10.340 -0.4925 -0.2743  0.1135
21705W        W41239  15.542  13.025  13.242 -0.0451  0.2145  0.2226
21706W        W41240  18.576   5.907  13.011  0.0251 -0.2336  0.1323
21707W        W41241  10.027   2.111   2.722  0.1256 -0.2549  0.0149
21708W        W41242   4.709   9.871  11.687  0.4092 -0.1801 -0.0785
21709W        W41243  12.342  13.654   0.498  0.0299 -0.2817  0.3073
21710W        W41244   9.995   6.205   2.919  0.1650 -0.3211  0.0597
21711W        W41245  10.760   1.218  10.013 -0.0447 -0.1164  0.0774
21712W        W41246   0.055   6.851  11.944  0.0392  0.1812  0.2003
21713W        W41247   0.413  11.256   4.414 -0.0073 -0.0649  0.0816
21714W        W41248  16.719  10.703   1.267 -0.0175 -0.1392  0.1416
21715W        W41249  11.693  15.803  10.695  0.0700 -0.2594  0.1988
21716W        W41250   3.743  19.053   2.033 -0.2744 -0.2548 -0.0824
21717W        W41251  12.134   0.721   2.497 -0.1456 -0.1468  0.2739
21718W        W41252  12.091  16.412   3.768  0.0496  0.1011 -0.1331
21719W        W41253  11.772   8.405  11.244 -0.1556 -0.1271 -0.0369
21720W        W41254  10.356   3.550  13.176  0.1921  0.1882 -0.4599
21721W        W41255  12.043   0.510  10.374 -0.3119  0.1558 -0.3328
21722W        W41256   0.194  12.015   3.781 -0.0385 -0.4110 -0.1950
21723W        W41257  15.063  17.687  12.365  0.0261  0.0185  0.0649
21724W        W41258   3.087   6.605  13.046  0.2588 -0.2831  0.2736
21725W        W41259   0.934   5.630   0.165 -0.3267 -0.2891 -0.2341
21726W        W41260  17.473  10.262  12.865 -0.1759 -0.0119 -0.3198
21727W        W41261   6.208   2.353  10.463 -0.0245 -0.1725  0.0713
21728W        W41262  17.433  14.829   4.305  0.1241  0.1692 -0.0796
21729W        W41263   9.777   5.903  13.145  0.2387 -0.0511  0.0444
21730W        W41264  14.170  16.656   2.324 -0.0551  0.0293 -0.3786
21731W        W41265   6.273   2.494  11.861  0.0293  0.1779  0.2654
21732W        W41266  10.520  16.966   1.065 -0.0298  0.5396  0.0665
21733W        W41267   1.757   2.520  14.353  0.2102 -0.2128 -0.0327
21734W        W41268   8.394   5.719   1.200  0.0388 -0.1836  0.0757
21735W        W41269   5.854  15.302   2.912  0.1854  0.2671  0.2784
21736W        W41270  12.840   8.377  13.113  0.4158 -0.3475 -0.2065
21737W        W41271   3.229   7.931  12.090 -0.1296  0.2396  0.0266
21738W        W41272  10.024   6.511  13.797 -0.0163 -0.1787 -0.1875
21739W        W41273  14.028  13.914  12.794 -0.1211  0.0741 -0.2055
21740W        W41274   4.905   6.182   4.117  0.0884 -0.3235  0.0723
21741W        W41275  10.137  14.142   3.805 -0.3002 -0.1691 -0.0291
21742W        W41276  17.058   6.586   0.524 -0.3110  0.2562 -0.4004
21743W        W41277  18.243  11.671  13.835 -0.2170 -0.2269  0.2153
21744W        W41278   8.540   7.607  10.604 -0.4948  0.0691 -0.2957
21745W        W41279   4.895   9.784   0.930 -0.1522 -0.1556  0.2307
21746W        W41280  18.194   6.193  14.062 -0.2275  0.4972 -0.0852
21747W        W41281  10.388   7.062   1.570  0.1002 -0.0160 -0.2478
21748W        W41282   3.915   5.071   1.851 -0.0306  0.0213 -0.2600
21749W        W41283  15.547  12.247  12.373  0.3444  0.3022  0.1831
21750W        W41284  19.503   0.606  11.774  0.0206  0.1071  0.3180
21751W        W41285  13.540  14.566  12.734  0.1360 -0.1298 -0.1484
21752W        W41286  16.677   5.912  13.237 -0.1509 -0.1679 -0.1601
21753W        W41287  17.354   9.819   1.668  0.1653  0.0245 -0.3134
21754W        W41288   3.265   1.329   0.333  0.1327  0.1421 -0.2299
21755W        W41289   9.497   2.342   0.408  0.2387  0.3132 -0.2078
21756W        W41290   9.399  13.189  14.087 -0.2420  0.0091 -0.1215
21757W        W41291  11.532  15.125   1.823 -0.1767 -0.3355  0.2814
21758W        W41292  14.641   6.336  12.348  0.1230 -0.2674  0.2603
21759W        W41293   1.569   3.885  10.136 -0.0442 -0.0378  0.0222
21760W        W41294  19.189  10.555  13.647  0.3160  0.1506 -0.0707
21761W        W41295   8.613  13.032   0.219 -0.0896 -0.1000 -0.1795
21762W        W41296  12.856   2.384  11.222 -0.1386 -0.0378  0.0529
21763W        W41297  17.989  11.651   0.950  0.0551 -0.1955 -0.2406
21764W        W41298  18.091   2.168   1.496  0.1726 -0.0844 -0.6146
21765W        W41299   7.811   7.204  13.184 -0.0959  0.2162 -0.2061
21766W        W41300   3.643   3.341   1.945 -0.0314  0.2428 -0.0809
21767W        W41301   4.651  10.533  12.622 -0.2147 -0.0167 -0.1692
21768W        W41302   2.723   5.064  13.588 -0.1490 -0.0550 -0.2540
21769W        W41303   6.711   4.830  12.295  0.1157 -0.2076  0.1776
21770W        W41304   9.409   4.390  12.131 -0.1703  0.1226 -0.0090
21771W        W41305  17.832  18.797   3.582  0.1350  0.0657  0.1215
21772W        W41306  12.773  14.054  13.639  0.0570 -0.0271 -0.1343
21773W        W41307  16.866  18.716  12.261  0.2324 -0.1871  0.0406
21774W        W41308  16.962   6.244   2.615  0.1521 -0.2178 -0.2303
21775W        W41309  18.420   4.417   9.624 -0.0821 -0.1387 -0.0566
21776W        W41310   5.652   1.558  12.539 -0.0657  0.0521 -0.2076
21777W        W41311   8.212  12.390   3.104  0.0451 -0.0236  0.3664
21778W        W41312   6.326   8.215  13.479 -0.3638 -0.2421  0.0217
21779W        W41313   7.886   6.202   3.101  0.2094  0.2470  0.0667
21780W        W41314  10.866   4.211  10.753 -0.0536 -0.0954 -0.1346
21781W        W41315  11.199   6.378  14.290  0.0366 -0.0593  0.0727
21782W        W41316  14.855  10.657  13.091 -0.1954 -0.0712 -0.2753
21783W        W41317  12.413   5.388   2.262 -0.1775  0.0484  0.0496
21784W        W41318   1.954  16.661  14.368  0.2673 -0.0372 -0.2722
21785W        W41319   9.597   8.997  11.182 -0.1999  0.0383 -0.2168
21786W        W41320  12.608  18.200  13.287  0.2763  0.3035  0.1112
21787W        W41321   0.429  15.566  12.887  0.1421  0.0311 -0.1018
21788W        W41322   5.963   0.071  11.746 -0.4047 -0.5915  0.3662
21789W        W41323   9.190  11.433  10.568 -0.0366 -0.0760 -0.0239
21790W        W41324   6.463   8.229  12.941 -0.3519  0.2699  0.5544
21791W        W41325   5.593  18.825   0.638  0.1629 -0.0362 -0.0597
21792W        W41326  18.312  18.506  13.523  0.2099  0.1866 -0.2662
21793W        W41327   2.708   0.849   3.098 -0.2623 -0.1583  0.0543
21794W        W41328  15.440   2.564  11.813 -0.2947  0.1528  0.1319
21795W        W41329   8.455  16.149  12.196  0.0879  0.0079  0.0781
21796W        W41330   4.842  17.673   3.029 -0.4810  0.0730 -0.2816
21797W        W41331  15.962   3.271  11.363  0.1401 -0.2502 -0.0266
21798W        W41332  11.828  19.083  12.055 -0.1133 -0.1733  0.1738
21799W        W41333  13.438  18.706  14.133  0.0578 -0.1875  0.1065
21800W        W41334   9.156  14.821   2.052 -0.1332 -0.0151  0.1326
21801W        W41335  12.090  15.356   0.415  0.1012  0.1731  0.2191
21802W        W41336  15.064   8.102   0.626 -0.0298  0.0507 -0.1097
21803W        W41337   1.060   0.121  13.369 -0.0374  0.2589 -0.1613
21804W        W41338   0.995  19.239   2.297 -0.1866  0.2796  0.1587
21805W        W41339  14.586   5.427   3.126 -0.2280  0.0910  0.0138
21806W        W41340  13.398   7.541  11.842 -0.1374 -0.1273 -0.1251
21807W        W41341   7.837  14.405   2.386 -0.0586  0.1386  0.2595
21808W        W41342  17.263   4.965   3.837  0.1555 -0.1100 -0.0183
21809W        W41343  10.767  13.146  11.317  0.3569  0.0168  0.0348
21810W        W41344   0.686  13.945   0.886  0.2564 -0.0487 -0.3325
21811W        W41345  14.908  17.129  12.259 -0.2894 -0.1160  0.4387
21812W        W41346   7.468  11.962   1.576  0.3568 -0.0989 -0.4202
21813W        W41347   2.319  17.628   1.005 -0.1514 -0.0586  0.0914
21814W        W41348  16.314   0.302  11.407  0.0118  0.0806 -0.2506
21815W        W41349  12.679   4.276   2.404 -0.1157  0.1490  0.0146
21816W        W41350  17.310   1.905  10.640 -0.0809  0.3769 -0.2560
21817W        W41351  10.377  13.204  14.134 -0.2775 -0.0586  0.1330
21818W        W41352   7.737  18.906   2.583  0.2426 -0.1502 -0.0937
21819W        W41353   5.804  12.763  11.373  0.3001 -0.1778  0.2904
21820W        W41354  11.302   9.752   0.872 -0.0580  0.3015  0.3703
21821W        W41355   3.110  10.450   3.632  0.0820  0.2433  0.1576
21822W        W41356  19.015  14.117   2.624  0.0746 -0.1007 -0.2868
21823W        W41357   0.509  17.907  13.225  0.0973  0.0555  0.0913
21824W        W41358   4.748   2.592   0.661  0.0139  0.2565  0.0088
21825W        W41359   4.305   4.955   5.447 -0.1625 -0.2120  0.1777
21826W        W41360   5.517  11.876  12.126 -0.0072 -0.2132  0.0039
21827W        W41361   2.669   9.066  11.441 -0.3893 -0.0750 -0.0102
21828W        W41362   0.195  18.194   0.403 -0.0520 -0.0214 -0.1486
21829W        W41363  13.645   0.296  12.586 -0.3064  0.0896 -0.0293
21830W        W41364  13.260   5.200  13.176  0.1275  0.0109  0.0476
21831W        W41365  13.891  10.489  12.964 -0.0582  0.3302  0.1887
21832W        W41366   5.773  15.500   3.527  0.1414 -0.0105 -0.1817
21833W        W41367  10.272   4.073  11.972 -0.2986  0.1881  0.1096
21834W        W41368  16.628  14.146  14.376  0.2437 -0.3437  0.1215
21835W        W41369  16.154  16.092  12.854 -0.0365  0.1271 -0.1927
21836W        W41370   5.427  15.900   0.426 -0.3852 -0.0782  0.0661
21837W        W41371  18.325   5.692   0.926  0.0784  0.0094  0.1535
21838W        W41372  12.546   6.994   3.652 -0.2780  0.0558 -0.0348
21839W        W41373   8.253   5.263  14.030 -0.0748 -0.0129  0.0960
21840W        W41374  11.739  19.520  14.287 -0.0842  0.0988 -0.3103
21841W        W41375   7.480   1.280   1.217 -0.1840 -0.0138  0.0065
21842W        W41376  14.793   5.470  10.886  0.1621  0.1788  0.2496
21843W        W41377  16.700   0.259  13.893  0.1693 -0.1649  0.1771
21844W        W41378   0.394  15.231  13.353 -0.0397 -0.1354 -0.1141
21845W        W41379  10.056  13.896   1.651 -0.0154 -0.0669 -0.1170
21846W        W41380  16.245   7.176   9.734  0.2306 -0.1505 -0.3745
21847W        W41381  14.416  10.097   0.894 -0.2254 -0.3738  0.0428
21848W        W41382  17.089   9.096   0.638 -0.1260  0.1032  0.0155
21849W        W41383  19.434  12.209  14.043 -0.0406 -0.0700 -0.3147
21850W        W41384   5.625   2.131  13.523  0.0288 -0.2537 -0.0697
21851W        W41385  14.512   4.057   2.787  0.1566  0.1159 -0.0461
21852W        W41386  10.900  14.524  13.629  0.1964  0.0174  0.0220
21853W        W41387   4.185   0.354   1.489 -0.1352  0.1915 -0.0987
21854W        W41388   1.099   1.164  13.453  0.0958  0.1689 -0.3919
21855W        W41389  13.423   9.657   3.082 -0.1767  0.0449 -0.0358
21856W        W41390   0.737  17.085   1.277 -0.4367  0.2236  0.0291
21857W        W41391  17.003   3.061   3.519 -0.1663 -0.0293 -0.0533
21858W        W41392  17.752  14.152  12.587 -0.1034  0.1691  0.2994
21859W        W41393  14.295  15.004  10.198  0.0655 -0.2035  0.1366
21860W        W41394  19.049  18.168  11.681 -0.2529 -0.0955 -0.0204
21861W        W41395   5.534  18.659  14.140 -0.1372 -0.1383 -0.0936
21862W        W41396   6.865  16.497   3.672  0.2885  0.4131  0.1485
21863W        W41397   5.488  15.991  12.680 -0.0121  0.1329 -0.0254
21864W        W41398  15.868  12.171  13.440  0.1427  0.0161  0.1312
21865W        W41399  16.525   5.133   9.586  0.1546 -0.2786 -0.0449
21866W        W41400  16.636  15.430   1.474 -0.1058 -0.0400 -0.0452
21867W        W41401   6.825  14.106  10.792  0.0032 -0.2987 -0.3822
21868W        W41402   9.738  14.077  13.470  0.1567 -0.1191 -0.1178
21869W        W41403   1.835   3.012   0.297 -0.1738 -0.0164 -0.0653
21870W        W41404  10.339  13.442   3.124  0.0700 -0.2642  0.2217
21871W        W41405   6.991  12.792  12.786  0.0733  0.2035 -0.3051
21872W        W41406   2.180  17.815  10.781 -0.0516  0.2164 -0.0842
21873W        W41407  11.046   3.937  10.349 -0.0597  0.2377 -0.0957
21874W        W41408  13.583  11.306  12.050  0.1406  0.3720  0.0513
21875W        W41409   3.647  12.097  11.084 -0.0702  0.3888  0.0007
21876W        W41410   6.393   9.852  13.373 -0.1381 -0.1173 -0.2232
21877W        W41411   0.679   3.244   1.729  0.0412 -0.0253 -0.1303
21878W        W41412  14.908  15.326  13.906  0.1197  0.2544 -0.1662
21879W        W41413   6.951  10.573  13.208  0.3881 -0.3732 -0.1300
21880W        W41414   5.458  13.566   2.479 -0.1001  0.2626  0.0825
21881W        W41415   5.114  11.870  11.345  0.1512  0.0996  0.0956
21882W        W41416  11.557  13.458  10.138  0.1257 -0.0520  0.2065
21883W        W41417  15.253   0.086   3.071  0.3412 -0.1012  0.0622
21884W        W41418  14.523  12.131  13.221  0.1370  0.0218 -0.1354
21885W        W41419  10.130   7.546  11.208  0.0461  0.2564 -0.0274
21886W        W41420   6.387   3.899  13.460  0.0458 -0.6483  0.2326
21887W        W41421   5.395   0.811  13.789 -0.1121  0.4291  0.1483
21888W        W41422  19.442   5.708  13.339  0.1639  0.3006  0.2412
21889W        W41423  18.898  17.651  14.215 -0.1502  0.2099  0.1656
21890W        W41424   6.082  13.287  13.823 -0.3553  0.0432  0.0956
21891W        W41425  19.374  11.742  10.383  0.1117 -0.1969 -0.0869
21892W        W41426   3.600   3.244  11.042  0.0077  0.1093  0.3148
21893W        W41427  18.825  11.864   3.096  0.3629 -0.2823 -0.1022
21894W        W41428  10.682  19.217   3.936 -0.0999 -0.1257 -0.0289
21895W        W41429   7.262   2.281   3.665  0.1423 -0.1183 -0.0239
21896W        W41430   6.261  13.299  13.228  0.0891 -0.2959  0.1197
21897W        W41431   0.643  10.866   1.903  0.0740 -0.0498 -0.0931
21898W        W41432  18.336   1.626  13.663 -0.3321  0.0170 -0.0460
21899W        W41433   3.687   8.071  10.834  0.1857  0.4479 -0.3181
21900W        W41434   2.744  17.577   1.886 -0.2475  0.2519  0.3813
21901W        W41435   2.086   5.689   3.756 -0.1068 -0.0274 -0.0390
21902W        W41436  10.887  18.158  13.769 -0.1702  0.1865  0.1625
21903W        W41437  13.691   5.158  13.940  0.0709 -0.3931 -0.0730
21904W        W41438   5.487   8.615  11.238  0.0043  0.1503  0.1865
21905W        W41439  15.097  16.244   0.351  0.0894  0.0592  0.1570
21906W        W41440   2.587   7.944   0.856 -0.1627 -0.0821  0.0902
21907W        W41441   3.567   1.241   1.197 -0.1422 -0.0931 -0.0954
21908W        W41442  14.843  18.319  12.270 -0.1944  0.1965 -0.0531
21909W        W41443   3.657   7.691  11.209  0.1442 -0.1643  0.2517
21910W        W41444  14.904  16.242  12.450 -0.0720 -0.1732 -0.0878
21911W        W41445   9.132  13.989  11.039  0.0458 -0.2795  0.0834
21912W        W41446   3.525  18.522   2.155 -0.1058  0.1278 -0.2824
21913W        W41447  18.916   8.119  13.616  0.0631 -0.0803 -0.2156
21914W        W41448   6.490  10.058   0.211 -0.0213 -0.1200  0.0374
21915W        W41449   5.620   4.103   2.579 -0.0345 -0.5458 -0.1405
21916W        W41450  18.211   8.583   0.954 -0.0671 -0.2029  0.0480
21917W        W41451   8.464   1.761   2.943  0.2201  0.2107 -0.0344
21918W        W41452   2.226  12.478   0.664  0.1019  0.2759 -0.1834
21919W        W41453   5.018  15.773  11.851  0.2155 -0.0766  0.1279
21920W        W41454   9.770  12.395  12.460  0.0300  0.1977  0.0785
21921W        W41455   5.641  15.010   3.351 -0.0986 -0.1521  0.0241
21922W        W41456   7.336   7.720   2.321 -0.0504  0.0804  0.2567
21923W        W41457  14.698  16.562   0.241 -0.1235  0.0479 -0.0762
21924W        W41458  14.501   5.147   9.505  0.2035 -0.0487  0.1509
21925W        W41459   5.921   8.358  12.900 -0.2747 -0.1435 -0.1008
21926W        W41460  15.464  12.354   0.212  0.1904  0.1316  0.3169
21927W        W41461   6.641   7.699   0.752  0.0523 -0.2312 -0.0871
21928W        W41462   4.489  17.318   1.595 -0.0080  0.0513  0.0559
21929W        W41463  13.578   8.397   1.034  0.1975  0.0021 -0.1693
21930W        W41464   2.411   5.721  12.465 -0.0313 -0.0810  0.1632
21931W        W41465   1.444   3.383  10.875 -0.0966  0.1284 -0.0044
21932W        W41466  13.290   9.218   3.323  0.5433  0.1595 -0.3842
21933W        W41467   2.640  12.507   4.259 -0.1594 -0.1909 -0.0385
21934W        W41468   9.657   7.837   1.093  0.1592 -0.0713  0.2797
21935W        W41469  15.784  13.564  10.582  0.0894  0.0468 -0.2020
21936W        W41470   5.718  16.264  10.249 -0.0942  0.0978  0.0011
21937W        W41471   8.520  11.511   3.323  0.1490 -0.0246  0.0037
21938W        W41472   9.519  12.107  12.911  0.0733  0.0107 -0.0525
21939W        W41473   8.473   3.975   0.532 -0.1535  0.2062 -0.1095
21940W        W41474   2.725   2.161   9.097 -0.0652 -0.2739  0.0058
21941W        W41475  10.024  14.367   5.117  0.1702  0.1223  0.3833
21942W        W41476  18.048  18.095  12.082  0.0500 -0.1299  0.4063
21943W        W41477   0.662  11.014   0.167  0.0446 -0.1326  0.3794
21944W        W41478   3.607  12.905  11.875 -0.1826  0.1485 -0.2069
21945W        W41479   4.348  11.473   1.692 -0.2318 -0.1570 -0.1055
21946W        W41480  16.937  10.432  13.590 -0.1251 -0.0750  0.1554
21947W        W41481   1.708  12.882   1.624 -0.1322  0.0145  0.0066
21948W        W41482  17.444  17.707   2.843  0.0097 -0.0938  0.1144
21949W        W41483  14.321   9.213   1.039 -0.0288  0.0201 -0.3126
21950W        W41484  14.511  18.218  13.233 -0.1446 -0.0818 -0.0003
21951W        W41485   2.436  17.190   0.529  0.0470 -0.0399 -0.2940
21952W        W41486  13.211   8.392   0.736  0.1268  0.1418 -0.1491
21953W        W41487  14.583  17.868   1.637 -0.1990 -0.2212 -0.1529
21954W        W41488  11.738   7.642   2.433  0.2074  0.0847  0.2222
21955W        W41489  19.220  18.716  11.985  0.1348 -0.0539  0.0446
21956W        W41490   6.903   6.907   0.340  0.1436  0.3461 -0.2679
21957W        W41491   5.401   6.103   3.957 -0.1610 -0.1481  0.0194
21958W        W41492  15.010  11.775   0.710 -0.1351 -0.0285  0.2152
21959W        W41493   5.319  16.486   0.902  0.0535  0.1280  0.1312
21960W        W41494   2.389   3.178   1.552 -0.0231 -0.3826  0.0099
21961W        W41495   1.766  13.563   2.109 -0.1793  0.0131 -0.0587
21962W        W41496   0.022  18.363  11.186 -0.1469  0.0799  0.0418
21963W        W41497   6.966   4.539   1.770 -0.2542  0.0189 -0.2476
21964W        W41498   9.041   3.002   4.003 -0.0501  0.1701  0.1223
21965W        W41499  15.365  10.322   1.799 -0.2516 -0.1445  0.1224
21966W        W41500   3.905  15.664   1.750  0.2214 -0.0868 -0.1299
21967W        W41501  14.469   8.883   1.452 -0.1150  0.1006 -0.0059
21968W        W41502  13.399  19.388   1.988  0.2109 -0.2634 -0.1115
21969W        W41503  15.957   9.121  11.812 -0.0280 -0.0412  0.0111
21970W        W41504  18.677   8.247   3.142 -0.2090 -0.1550  0.1477
21971W        W41505  11.404  16.324  10.810 -0.1661 -0.0628  0.3308
21972W        W41506   1.861   5.390  12.194  0.2540 -0.0259 -0.0194
21973W        W41507  15.257  13.773  10.101  0.1148  0.1289 -0.0649
21974W        W41508  18.803  17.921  13.162 -0.1977  0.4074 -0.0464
21975W        W41509   2.768  17.557  13.003  0.2350  0.5120  0.1330
21976W        W41510  12.309  12.516  10.658 -0.1275 -0.1591 -0.3649
21977W        W41511  18.938   7.847   0.058  0.1355  0.2157  0.1822
21978W        W41512  11.837  10.548   2.130 -0.0085 -0.1054  0.2517
21979W        W41513   0.815  18.598  10.793 -0.3494  0.2207 -0.1854
21980W        W41514  17.150  15.353   1.581 -0.2979 -0.0515  0.1259
21981W        W41515  11.596   3.749   3.653  0.2367  0.0130 -0.0658
21982W        W41516  16.755  17.614   0.343 -0.1373 -0.0084  0.0413
21983W        W41517   7.819   6.118  11.881 -0.1115 -0.0392 -0.1304
21984W        W41518  11.118   6.203  12.724 -0.0949 -0.4099 -0.0243
21985W        W41519  15.378  12.935   1.222  0.0998  0.0118  0.1754
21986W        W41520  11.736   6.204   2.494  0.2908  0.1574  0.1626
21987W        W41521   1.773   1.228   2.563 -0.1001  0.0079 -0.2789
21988W        W41522  17.043   2.066  10.233 -0.2074 -0.2664 -0.2631
21989W        W41523   1.898   8.505   0.207 -0.3642  0.3022  0.0883
21990W        W41524   2.841  15.043   1.820 -0.3057 -0.0485 -0.2858
21991W        W41525   2.205   7.682   0.478 -0.0244 -0.0041 -0.1505
21992W        W41526   5.089   6.458   0.416 -0.1917 -0.0768  0.2849
21993W        W41527  17.645   6.648  12.229  0.2589 -0.0699  0.1317
21994W        W41528   4.706   7.703  13.256 -0.0790  0.0501 -0.1425
21995W        W41529  11.027  15.965  13.954 -0.1868  0.1547 -0.2321
21996W        W41530   5.733  13.415  12.996  0.0403 -0.0220 -0.2971
21997W        W41531   1.897   3.378  13.823  0.1534  0.2634 -0.0871
21998W        W41532   7.437  10.361   2.118 -0.0903  0.2215  0.2857
21999W        W41533   1.276   8.311  12.365 -0.0627  0.1610 -0.3475
22000W        W41534  17.810   3.465   1.524 -0.1432 -0.0720 -0.2642
22001W        W41535  12.296  18.602   1.042  0.1032  0.0590 -0.0873
22002W        W41536  16.544  14.248   4.254 -0.1605 -0.1518  0.0768
22003W        W41537  10.048   6.465  13.258 -0.1910 -0.0071 -0.0591
22004W        W41538  10.349  18.088  11.306  0.1322  0.2304  0.1704
22005W        W41539   5.893  16.056  14.252  0.2501  0.2589 -0.3146
22006W        W41540   4.595   5.032   2.487 -0.0124 -0.1214 -0.0082
22007W        W41541   8.159  16.051   1.183 -0.0715  0.2132  0.3169
22008W        W41542   3.188   3.218  10.724 -0.0380  0.0647 -0.1763
22009W        W41543   0.280   1.723   1.643 -0.4564 -0.1598  0.2521
22010W        W41544   4.429   2.838  12.136  0.1077 -0.1310 -0.1654
22011W        W41545  14.272  14.058   1.944 -0.2055  0.5342  0.4015
22012W        W41546   4.498   0.731   3.361  0.2756 -0.0338 -0.1604
22013W        W41547  11.327  16.749   0.360  0.0294  0.3474  0.1521
22014W        W41548  10.154  11.884   0.923  0.3578 -0.4847 -0.0716
22015W        W41549  13.895   4.637  13.366  0.0437 -0.0871 -0.0793
22016W        W41550  10.513  19.480   2.963  0.2901 -0.4026 -0.2313
22017W        W41551  14.028  13.014   1.492 -0.2307 -0.3325  0.4285
22018W        W41552   6.506  12.959  13.986 -0.0261 -0.3587 -0.1577
22019W        W41553   1.478   6.895   0.408 -0.0024 -0.2368 -0.1618
22020W        W41554  19.489  13.096  13.912  0.0960 -0.0196  0.0736
22021W        W41555  13.918  16.360  11.701  0.2678  0.1847  0.4285
22022W        W41556  17.161  14.862  13.614  0.2884 -0.0367 -0.0577
22023W        W41557  11.489  15.435  10.971  0.1638 -0.1447 -0.1959
22024W        W41558   7.656  15.547   0.084  0.2422 -0.0856  0.0377
22025W        W41559  18.847   1.156  11.644 -0.0522  0.1033 -0.2228
22026W        W41560  13.266   8.673  13.813 -0.2137 -0.1158 -0.1289
22027W        W41561  13.921   2.947  14.188  0.1644  0.1075  0.0574
22028W        W41562   2.752  10.772   0.351 -0.2419  0.1308 -0.3364
22029W        W41563  11.493   2.541   1.790  0.1236 -0.4311 -0.0218
22030W        W41564  15.330  11.824   1.110  0.0480 -0.0337  0.3691
22031W        W41565   7.625   9.709   1.018  0.0359  0.3956  0.0701
22032W        W41566   8.340   4.808   3.398  0.1586  0.0131  0.1244
22033W        W41567  19.466   9.504   4.805 -0.1290  0.0172  0.0508
22034W        W41568   3.418  10.750  11.111  0.4218  0.0020  0.2549
22035W        W41569   3.663  10.785   4.722  0.0183  0.1753 -0.0725
22036W        W41570  10.918  15.475  14.152 -0.0090 -0.2891  0.3303
22037W        W41571  17.211  11.490  13.650 -0.1436  0.0892  0.1473
22038W        W41572  13.616  11.661   0.424  0.2581 -0.3738 -0.0191
22039W        W41573   2.813  18.062  11.998  0.3087 -0.2373 -0.1730
22040W        W41574  10.562  15.170   2.338  0.0145 -0.0043  0.0662
22041W        W41575   9.217  18.350  11.139 -0.2154 -0.1154  0.0232
22042W        W41576   8.377   8.341   1.260  0.0794 -0.0680 -0.1680
22043W        W41577   7.118  12.368   0.356  0.1663  0.3718 -0.0942
22044W        W41578  10.351  12.724  11.438  0.1991 -0.0513 -0.2028
22045W        W41579  19.330   5.457  13.801 -0.2375  0.1740 -0.0216
22046W        W41580   3.640   1.496  12.580 -0.0104 -0.1477  0.1905
22047W        W41581  11.437  13.441   3.128 -0.0176  0.1113 -0.0385
22048W        W41582   4.909  10.150   1.961  0.1605  0.1077 -0.3109
22049W        W41583   2.045  17.280   0.833 -0.0600 -0.0279 -0.2446
22050W        W41584  10.586   3.146   4.188 -0.1001  0.1110  0.1497
22051W        W41585  11.834  18.764   0.696  0.0133  0.2054  0.1179
22052W        W41586  17.791   1.798  10.714  0.0850 -0.0393  0.1613
22053W        W41587   0.287   2.503  10.685 -0.0833 -0.0813  0.3542
22054W        W41588  10.571  10.894  10.921 -0.1089  0.1366  0.1968
22055W        W41589   4.590  13.916   2.844  0.3633  0.3251 -0.1544
22056W        W41590   5.030  14.214  11.650  0.0130 -0.3141 -0.0406
22057W        W41591   9.619   0.487  13.907 -0.3106 -0.0637 -0.0407
22058W        W41592   7.253  18.246   0.573  0.2349 -0.0868  0.0950
22059W        W41593  12.264   0.061   3.437  0.1190 -0.2362  0.1410
22060W        W41594   3.115   9.985  13.615 -0.5368 -0.0739  0.0258
22061W        W41595   3.905   6.850  11.382 -0.2297 -0.4430  0.0492
22062W        W41596   5.998  15.135   0.505 -0.3752  0.1181  0.1253
22063W        W41597   9.120  15.072   0.575  0.3011  0.1040  0.2247
22064W        W41598   2.244  19.069  13.118  0.1797  0.2142 -0.3013
22065W        W41599   9.451  10.438  11.643  0.1991 -0.1080 -0.0336
22066W        W41600  19.219  11.158   9.446  0.2039 -0.3981  0.0692
22067W        W41601  14.109  14.341   1.065 -0.4374  0.0608 -0.0020
22068W        W41602  10.059  15.058   4.073  0.0754  0.1728  0.0333
22069W        W41603  15.905  14.448   3.315 -0.0761  0.0812  0.0258
22070W        W41604   4.593  15.729   1.089  0.0256  0.0634 -0.1544
22071W        W41605   7.695  10.126   3.526 -0.0112 -0.2882 -0.0371
22072W        W41606   8.636   2.249   2.961 -0.0080 -0.0478 -0.1048
22073W        W41607   7.627   6.173  13.250  0.1412 -0.0353 -0.0323
22074W        W41608   1.714  15.546   1.821  0.1396  0.1200 -0.1096
22075W        W41609   1.630   4.528  10.895 -0.0274 -0.2324  0.2524
22076W        W41610   6.318   6.035   0.953 -0.0044  0.2616  0.3363
22077W        W41611   5.034   8.980  11.921  0.0543  0.1924 -0.1088
22078W        W41612   5.086   4.332   2.589  0.3105  0.0219  0.1845
22079W        W41613  17.334  15.456   2.451  0.1010  0.0668  0.0487
22080W        W41614   9.462   9.472  11.881  0.0039  0.1693 -0.0915
22081W        W41615   1.180   8.991   1.867  0.0435 -0.0448 -0.0160
22082W        W41616  16.180   2.239  12.284 -0.1949  0.1267  0.2342
22083W        W41617   7.430  16.090   2.922 -0.0311 -0.0089 -0.1419
22084W        W41618  15.506   6.492   4.081 -0.0856 -0.3108  0.0097
22085W        W41619  15.045  13.396   3.021 -0.0021 -0.3746  0.0997
22086W        W41620   5.837   6.478   0.596  0.3533  0.0232  0.0520
22087W        W41621   7.630  17.976   5.268 -0.2322  0.0472 -0.1701
22088W        W41622   8.040   7.064   3.206  0.2259  0.0237  0.2394
22089W        W41623  13.260  12.215   2.360  0.0084 -0.2649  0.0275
22090W        W41624  16.606   3.555   1.067 -0.1519 -0.1956  0.3196
22091W        W41625   6.548   2.957  12.034 -0.2140 -0.1682 -0.0141
22092W        W41626   7.947   9.152   1.836 -0.0004 -0.0964  0.0803
22093W        W41627  10.913   2.281   2.360  0.0308  0.0707 -0.0330
22094W        W41628   9.903   8.174  12.749 -0.0367 -0.1572 -0.2778
22095W        W41629   1.111  11.018   3.806 -0.2229  0.2440 -0.1851
22096W        W41630   9.423   2.211   2.324  0.0088 -0.0425  0.0764
22097W        W41631  13.140   8.960   3.740  0.2838 -0.0482 -0.0055
22098W        W41632  14.312  12.898   4.961 -0.0056  0.0743  0.5733
22099W        W41633   3.395  13.483  10.858 -0.4164 -0.1444 -0.0899
22100W        W41634  16.708  13.096  12.613 -0.0862 -0.2589 -0.1055
22101W        W41635  18.789   7.589   1.862 -0.0112 -0.3212  0.2558
22102W        W41636   1.740  14.763  10.371  0.2467  0.1826  0.0840
22103W        W41637  13.561  18.947  10.891  0.2235  0.2885 -0.0881
22104W        W41638   0.196   1.009  10.070  0.0142 -0.1799  0.1399
22105W        W41639  10.718   4.246   0.019 -0.2074  0.0228  0.0592
22106W        W41640   4.977   5.671  13.082 -0.3681  0.1076 -0.0185
22107W        W41641  17.725  16.501   2.477  0.2704 -0.0473 -0.5458
22108W        W41642   5.356   6.017   2.859 -0.0064 -0.0284  0.0332
22109W        W41643  16.655   4.346  10.937  0.0794 -0.2392  0.2793
22110W        W41644   3.295   7.586  10.866 -0.2194  0.0939  0.4966
22111W        W41645  13.521   1.049  12.846  0.3707 -0.0600 -0.1827
22112W        W41646   3.645  12.488   3.744  0.2354 -0.0674 -0.2213
22113W        W41647   1.276  16.704  12.292 -0.3176  0.2598 -0.0082
22114W        W41648  15.560  18.776  11.613 -0.1440 -0.1245  0.0933
22115W        W41649   4.956   2.644   4.046  0.0917 -0.1724 -0.4337
22116W        W41650  18.652   7.170  13.682  0.0690 -0.1528 -0.0579
22117W        W41651   4.245  10.181   4.935 -0.0715  0.2086  0.0353
22118W        W41652   6.482  19.462   2.941  0.3177 -0.3088  0.1141
22119W        W41653   2.584  16.935  13.111  0.1550 -0.1163 -0.2090
22120W        W41654   1.861   3.648  10.830 -0.0780  0.2031  0.1068
22121W        W41655  19.409   4.879  11.270  0.1679  0.1518 -0.1464
22122W        W41656  17.894   1.275  13.764  0.2168  0.1423 -0.1243
22123W        W41657  13.395  15.690  13.601  0.3160  0.1975  0.0532
22124W        W41658  16.038  15.699   3.371 -0.2090 -0.2601  0.0104
22125W        W41659   2.682   1.616   2.627 -0.2278 -0.2470 -0.3825
22126W        W41660  16.765  12.496  11.794 -0.0463 -0.0339 -0.2459
22127W        W41661   1.613  11.585   1.306 -0.0281  0.0941 -0.0130
22128W        W41662   3.655  18.281   0.750  0.0931  0.2826 -0.0300
22129W        W41663   4.373   0.119   4.239  0.1671 -0.1173 -0.0253
22130W        W41664  13.406  16.516  10.898 -0.0055  0.1098  0.1609
22131W        W41665  12.765  18.582  12.989  0.0123  0.1638  0.0241
22132W        W41666   7.881   3.392  11.961  0.0922  0.1855  0.1793
22133W        W41667   4.791  13.390  13.719  0.5123  0.0132 -0.2561
22134W        W41668  12.475   3.943  12.874 -0.0624  0.0307 -0.4625
22135W        W41669  15.229   2.085  10.684  0.1512  0.1470  0.1108
22136W        W41670   5.304   1.445   1.410  0.0819  0.0896  0.0310
22137W        W41671   1.449  10.343   0.001 -0.3479 -0.1066 -0.1627
22138W        W41672  14.277  19.438  13.792  0.1912 -0.0873  0.0383
22139W        W41673   6.279   8.410   3.812  0.3125 -0.1038  0.1332
22140W        W41674   8.787   1.379   0.989 -0.1683  0.2238  0.1192
22141W        W41675   9.104   9.000   2.204  0.2638 -0.1080  0.0188
22142W        W41676   8.092  15.905  13.612  0.0690  0.2385  0.2085
22143W        W41677  13.703  13.574  10.874 -0.2792  0.0054  0.3269
22144W        W41678  19.450  17.873  11.906 -0.0158 -0.3045 -0.1105
22145W        W41679   4.246  11.550  12.663  0.0151 -0.0241 -0.0802
22146W        W41680   5.370   4.293  11.301  0.0390 -0.1018  0.1327
22147W        W41681   6.555  17.833   0.510  0.0900  0.2112 -0.3720
22148W        W41682  10.023   5.301   9.650  0.2686  0.1387  0.0253
22149W        W41683   9.915  18.990   3.616 -0.0844  0.0652  0.0637
22150W        W41684  17.911  13.726   9.942  0.0459 -0.2311 -0.2990
22151W        W41685  16.050   1.504  13.766  0.2097 -0.1126 -0.2735
22152W        W41686  14.937   5.793  11.293 -0.1081  0.1923  0.0204
22153W        W41687   4.020   5.924   1.043 -0.0672 -0.1457  0.2239
22154W        W41688   6.348   7.105  11.289 -0.3621 -0.2851 -0.0322
22155W        W41689  17.690   7.693   3.437 -0.0394 -0.0672 -0.0864
22156W        W41690  14.186  18.623   1.217  0.0657 -0.0601  0.0128
22157W        W41691  15.717  11.151   3.324  0.0772  0.1060 -0.0610
22158W        W41692  19.287   8.154   1.401 -0.1399  0.0634  0.1105
22159W        W41693  14.042   3.263  10.651  0.0719 -0.0281 -0.1642
22160W        W41694   9.386   8.901  13.665 -0.0951 -0.1957 -0.1699
22161W        W41695   9.388  11.100  11.024 -0.0215  0.0235 -0.0381
22162W        W41696   4.303  16.094   1.772 -0.3294 -0.2076 -0.1787
22163W        W41697  10.083  12.372   0.726 -0.0091  0.3363 -0.0470
22164W        W41698   5.844   7.658   1.964  0.1327 -0.2906  0.2312
22165W        W41699  17.564  12.588   1.413 -0.1114 -0.3754  0.1771
22166W        W41700   0.952  10.782  12.067  0.0719  0.0540  0.1333
22167W        W41701  16.388   0.771   1.021 -0.1557 -0.2300 -0.0513
22168W        W41702  15.298  15.095  11.290  0.1853  0.1281 -0.0187
22169W        W41703  19.337  13.489   0.935  0.2371 -0.0764  0.0463
22170W        W41704  19.298  12.076   0.325  0.1297 -0.2810  0.2290
22171W        W41705  17.548   3.094   0.118 -0.1944  0.3587  0.1328
22172W        W41706  12.941   3.061  13.807  0.2767 -0.1475  0.1521
22173W        W41707   2.425   2.903   2.926 -0.0017 -0.0136  0.1644
22174W        W41708  18.375   1.127  13.868 -0.1721 -0.1143  0.0570
22175W        W41709   4.738  13.198   3.671  0.0888  0.3068 -0.3667
22176W        W41710   1.908  12.014   0.586 -0.3601 -0.0290  0.1778
22177W        W41711  14.278  16.532   0.518 -0.0777  0.2644 -0.0407
22178W        W41712   1.472  18.377  13.367 -0.0941  0.1960 -0.1112
22179W        W41713  17.708  15.181  10.995  0.3017 -0.3149 -0.1272
22180W        W41714  18.951   3.806  10.355 -0.1595 -0.0719 -0.2262
22181W        W41715  16.968   9.471   9.403 -0.0610 -0.0135  0.0412
22182W        W41716  12.830  17.087  11.313  0.0902  0.0590  0.0942
22183W        W41717  18.822  11.538  10.225  0.0693 -0.1996  0.0444
22184W        W41718  15.245   5.715  10.722 -0.1140  0.0845  0.0652
22185W        W41719   3.357  15.058  13.226 -0.0890  0.1505  0.1415
22186W        W41720  18.352  12.711  14.336  0.3391 -0.3895 -0.1368
22187W        W41721  15.100  17.538  11.856 -0.3160  0.3105 -0.2424
22188W        W41722  18.998  13.837   1.724  0.0700  0.0565  0.2480
22189W        W41723  10.026   1.011  11.838  0.0107 -0.1569 -0.2062
22190W        W41724  19.207   8.119   2.380  0.0521 -0.1604 -0.1612
22191W        W41725  18.533   5.933  13.783  0.1401  0.0453  0.0132
22192W        W41726   9.650  14.128  10.926  0.3107 -0.1273  0.0384
22193W        W41727   2.794   8.761  13.900 -0.2356 -0.1950  0.1340
22194W        W41728  18.725   6.752  13.340  0.0027 -0.2339  0.1781
22195W        W41729   9.744  14.719  11.608 -0.4841 -0.2462 -0.0715
22196W        W41730  17.060  12.688  10.872  0.0172 -0.0680 -0.0124
22197W        W41731  12.813  17.965  14.064 -0.1578  0.2469 -0.1140
22198W        W41732  12.681   9.908  10.563  0.2001  0.0597 -0.1278
22199W        W41733   3.476   2.375  11.923  0.4186  0.1620  0.0063
22200W        W41734  13.416  19.381  12.869  0.0503  0.1319 -0.1462
22201W        W41735  17.280  14.129  11.202 -0.0930  0.5123  0.3295
22202W        W41736   5.701   4.605   2.654  0.2894  0.1461 -0.2512
22203W        W41737   4.378  18.732  10.718  0.3128 -0.1142 -0.3289
22204W        W41738  12.711  12.751  14.317  0.0414 -0.3206 -0.3555
22205W        W41739   2.656  14.952  13.689 -0.1538  0.0882 -0.1692
22206W        W41740  16.990   2.235  10.900 -0.0748  0.2797  0.1733
22207W        W41741   9.995   0.540   3.060 -0.0336  0.0109 -0.1203
22208W        W41742   4.094  11.580  14.277  0.2877 -0.3505  0.2842
22209W        W41743   5.288   5.802  11.136 -0.0634  0.0236  0.0836
22210W        W41744  15.026   9.137  14.026  0.3395 -0.1256 -0.0723
22211W        W41745  12.926   5.229   1.505 -0.1196 -0.1219 -0.0407
22212W        W41746  11.301   8.245   2.335  0.0066  0.2683 -0.1554
22213W        W41747  19.293  10.682   3.109  0.1470 -0.0986  0.1720
22214W        W41748   7.748   9.290   3.564 -0.2684 -0.1793  0.0656
22215W        W41749   6.280   6.322  13.167  0.0910 -0.0879 -0.0782
22216W        W41750   8.291  15.879  10.106 -0.0527 -0.0290 -0.1083
22217W        W41751   0.706   0.015  14.236  0.2191 -0.3021  0.1192
22218W        W41752   7.569  13.623   2.838 -0.4400  0.0452  0.0128
22219W        W41753  14.625  11.295  12.318  0.1108 -0.0447 -0.1064
22220W        W41754   0.204  10.489  12.296 -0.0206  0.1297  0.1134
22221W        W41755   4.214   5.272  11.227 -0.0284  0.3699 -0.0532
22222W        W41756   5.383   1.111  12.316 -0.4254 -0.0994 -0.0219
22223W        W41757   5.320  16.291  13.091 -0.0153  0.0172  0.2911
22224W        W41758  17.862  11.448  10.437  0.0150 -0.2221  0.0960
22225W        W41759  15.735  16.320  11.424 -0.1096 -0.0138 -0.2100
22226W        W41760   5.668  13.918   0.797 -0.2059  0.0833 -0.1232
22227W        W41761  14.684   4.186   2.351 -0.2025 -0.2810  0.0542
22228W        W41762  12.155  12.106   1.744  0.1713  0.0751  0.2148
22229W        W41763  15.152   5.860   2.610 -0.2115 -0.1201 -0.2683
22230W        W41764  14.638  11.468  13.621 -0.0376  0.2051 -0.0318
22231W        W41765   5.365   2.341   3.482  0.1627  0.0872 -0.2113
22232W        W41766  11.088  11.398   2.180 -0.1776  0.2038 -0.1217
22233W        W41767  12.830  15.167   5.275 -0.0243  0.4645  0.3343
22234W        W41768  18.399  15.452  12.768  0.4745  0.1576  0.0089
22235W        W41769   9.664   4.051   9.845  0.0312 -0.4809 -0.0807
22236W        W41770  13.827   1.999   3.027  0.1010  0.2218  0.0744
22237W        W41771  10.018   9.731  13.774 -0.1925  0.0055  0.3227
22238W        W41772   3.155  14.902   3.812  0.0426 -0.0648  0.1061
22239W        W41773  19.054  14.503  10.254 -0.1445  0.1411  0.0204
22240W        W41774   6.151   1.230  13.881  0.0455 -0.4129  0.0194
22241W        W41775  17.962   8.056   3.628  0.0091 -0.2071  0.2166
22242W        W41776   2.572  11.070  13.577 -0.1116  0.0848  0.2405
22243W        W41777  16.265   4.491   3.284  0.1220  0.1511 -0.3216
22244W        W41778  17.158  13.359  12.735 -0.0710 -0.0173 -0.1436
22245W        W41779   6.459  11.197  10.712  0.2812 -0.1160  0.0723
22246W        W41780   8.180   3.344  13.490  0.2657 -0.4287  0.0306
22247W        W41781   1.307   6.417   0.712  0.0141 -0.2224  0.4025
22248W        W41782   4.977  11.281  14.291  0.1069 -0.0670 -0.0778
22249W        W41783  12.163  17.258  12.274  0.1786 -0.0373  0.0051
22250W        W41784  14.070  16.708   3.585 -0.0641 -0.0302  0.2025
22251W        W41785   3.273   9.554   3.952  0.2781  0.0442 -0.1669
22252W        W41786  13.911   5.896   4.292  0.1299  0.3659 -0.1745
22253W        W41787  14.310   0.475  11.536  0.1695 -0.0748 -0.0563
22254W        W41788   5.839  17.830   1.995  0.3163  0.1821  0.2814
22255W        W41789  18.971   6.948   0.031  0.3062 -0.0954  0.1616
22256W        W41790   2.705  11.372   1.320  0.1856 -0.1416 -0.0270
22257W        W41791   6.936  13.954  12.338 -0.4196  0.3529 -0.2772
22258W        W41792  10.475   6.855  12.979 -0.3696 -0.0701  0.0772
22259W        W41793  11.047   9.197   3.712  0.0370  0.1542 -0.3521
22260W        W41794  13.424  11.740   4.819  0.1219  0.0579 -0.2925
22261W        W41795   7.088   1.948   2.236  0.3245 -0.1396 -0.0860
22262W        W41796   9.091   6.097  10.772 -0.1592  0.1014  0.1399
22263W        W41797   3.634   7.957   0.015  0.0271  0.1731 -0.0311
22264W        W41798  19.026  18.303  10.933  0.0378 -0.0666 -0.3784
22265W        W41799  10.993   1.437  13.730  0.1416  0.0316 -0.0428
22266W        W41800  19.429  14.242   0.508 -0.1598  0.2437  0.0088
22267W        W41801   9.843  14.319   3.456 -0.0740  0.2913 -0.0101
22268W        W41802   6.915  13.204  14.164  0.0954  0.1464  0.1644
22269W        W41803   5.637   8.782  13.567 -0.0605  0.1410  0.1869
22270W        W41804  16.241   1.339  12.031 -0.0894 -0.2821  0.1001
22271W        W41805   8.971   2.082  10.284  0.0482 -0.0277 -0.0908
22272W        W41806  14.095  17.032   0.747 -0.2185 -0.0425 -0.2455
22273W        W41807   9.970   2.641   2.643 -0.1427  0.0532 -0.3367
22274W        W41808  16.844  17.476  13.678 -0.0587 -0.0776  0.0436
22275W        W41809   2.380  16.725   9.516  0.0798 -0.0611 -0.0676
22276W        W41810   0.786  13.149  10.298 -0.1340 -0.1775 -0.2362
22277W        W41811   6.765  17.559   2.087 -0.1574  0.0698 -0.2030
22278W        W41812  19.068   8.636   1.319  0.0779 -0.3216 -0.0326
22279W        W41813  17.496   2.353   0.614 -0.1941 -0.3226  0.1024
22280W        W41814  19.016  11.064  11.022  0.3641  0.0606  0.1431
22281W        W41815   9.862   6.806  10.461 -0.3505 -0.1359  0.0634
22282W        W41816   7.727  17.498   3.069  0.2320 -0.2302  0.1608
22283W        W41817  10.520  14.631  10.965 -0.1157 -0.1497  0.3149
22284W        W41818   1.073   6.069  12.136 -0.4272  0.0979 -0.0649
22285W        W41819   4.310  15.489  14.227 -0.2296 -0.2454  0.0675
22286W        W41820  13.552   0.747   1.084  0.2050 -0.3156  0.0491
22287W        W41821  11.110   5.680   1.581  0.3513 -0.1288  0.2655
22288W        W41822   1.974   8.770  12.326 -0.2350 -0.0233 -0.1678
22289W        W41823  15.191  17.042  11.386  0.0912 -0.1090 -0.0312
22290W        W41824   9.323  15.315   2.996  0.0530  0.0068  0.0879
22291W        W41825   9.073  15.183  13.269 -0.0952  0.1515  0.4420
22292W        W41826   3.334   0.309  13.299 -0.1286  0.0163 -0.0606
22293W        W41827   8.604   5.594   9.557  0.0304  0.0567  0.0449
22294W        W41828   5.695  16.437   0.570  0.1493  0.0312  0.0580
22295W        W41829   5.938   3.249   0.090 -0.1814 -0.1438 -0.0348
22296W        W41830   6.141   1.181   3.400  0.1202 -0.1432 -0.1059
22297W        W41831   0.344   3.925   3.471 -0.0968 -0.0491  0.1247
22298W        W41832   3.606  15.377   3.093  0.0505 -0.0378 -0.0381
22299W        W41833   8.171  13.223  13.388 -0.1575 -0.0877 -0.2840
22300W        W41834  17.566  16.251   2.977 -0.0148 -0.0358  0.3927
22301W        W41835   9.168  12.407  13.972  0.0856  0.0276  0.2338
22302W        W41836  17.968  15.833  12.602 -0.1688  0.0153  0.3718
22303W        W41837   1.816  17.161  11.133 -0.1198  0.0302  0.2291
22304W        W41838   5.477   0.367   1.450 -0.1651 -0.0109  0.2263
22305W        W41839  12.152  18.447  14.110 -0.0789 -0.0681  0.3121
22306W        W41840  12.305   8.687  14.187  0.2160  0.0545 -0.0266
22307W        W41841   8.914   0.243   3.851  0.1138  0.1400  0.1449
22308W        W41842   2.964  15.701   3.676  0.0275 -0.2474 -0.1242
22309W        W41843   6.623  17.816  11.945  0.2123  0.2782  0.0924
22310W        W41844   0.440   4.100   0.706  0.0866 -0.1661  0.0855
22311W        W41845  10.573   1.316   0.218 -0.1546  0.2154 -0.0825
22312W        W41846   5.962   4.171  13.317 -0.0654 -0.0829  0.2157
22313W        W41847   9.919   5.784  10.687 -0.0794  0.1218 -0.0274
22314W        W41848   5.332   3.881   2.253  0.0197  0.1633  0.0507
22315W        W41849  18.536   0.553  11.098 -0.0805 -0.2016  0.0142
22316W        W41850  16.023   7.956  10.325 -0.0400  0.2413 -0.0274
22317W        W41851   6.515   3.063   3.772  0.1771 -0.1208  0.1664
22318W        W41852  10.982  12.200  13.986  0.0733 -0.0005  0.1315
22319W        W41853   0.854  10.482   3.847  0.4328  0.1580 -0.0620
22320W        W41854   7.143   4.623  11.893 -0.0364  0.0199 -0.2094
22321W        W41855  10.074   4.113   2.224 -0.2334 -0.0179  0.1264
22322W        W41856  13.818  12.565   3.971  0.1503  0.3148  0.2987
22323W        W41857  10.998  11.230  12.755  0.1196  0.0731 -0.2071
22324W        W41858  12.499  11.119  14.016 -0.2563  0.2526  0.0456
22325W        W41859   8.924  11.486   0.058  0.2593 -0.3596  0.1321
22326W        W41860  17.480   9.984   3.785  0.1586  0.0980 -0.1935
22327W        W41861   4.426  16.166  12.051 -0.1011  0.4523  0.1151
22328W        W41862   4.954  15.768   3.082 -0.0261 -0.1338 -0.0736
22329W        W41863  13.229   0.096  10.165  0.1532  0.0344 -0.0635
22330W        W41864  18.962   2.340  11.084 -0.2064 -0.3868  0.0273
22331W        W41865   7.538  15.044   3.859 -0.2596  0.2177  0.1788
22332W        W41866   7.640  10.348  11.295  0.0424 -0.2093 -0.0445
22333W        W41867   4.714   2.630  12.458 -0.1727 -0.0308  0.3349
22334W        W41868   0.452   8.082   0.660 -0.0642  0.2320  0.1614
22335W        W41869  10.945   2.219   2.847 -0.0281 -0.1047 -0.1188
22336W        W41870   2.039   3.966   2.860 -0.0252  0.2494 -0.0753
22337W        W41871  11.720  10.539  13.489  0.1514 -0.0231  0.1156
22338W        W41872  14.188   5.763   2.164  0.1953 -0.0859  0.0542
22339W        W41873  19.310  10.983  13.418 -0.0196 -0.0019  0.2092
22340W        W41874   2.670   6.317  13.763  0.0784  0.3686 -0.0296
22341W        W41875  11.098  17.233   2.554 -0.3680 -0.1847  0.3009
22342W        W41876  19.389   0.252   1.686 -0.0556  0.0753 -0.3520
22343W        W41877   8.078  17.621  11.516 -0.1388 -0.0040 -0.1490
22344W        W41878   5.956  14.681   9.497 -0.2387  0.0533  0.1271
22345W        W41879   9.844   7.805   0.015  0.0513 -0.2667 -0.2635
22346W        W41880  10.185  14.903  13.342 -0.2189 -0.0453  0.1598
22347W        W41881   5.057  11.194   1.485 -0.0342 -0.3554 -0.1389
22348W        W41882  14.810   2.338   5.436  0.1190  0.2255  0.1402
22349W        W41883   9.847  11.184   2.872 -0.1460 -0.2254 -0.1769
22350W        W41884   5.732  18.336  13.372 -0.2177  0.1317 -0.2473
22351W        W41885   5.796  17.940   1.074 -0.3187 -0.1939 -0.1336
22352W        W41886   2.649   0.583  13.095 -0.0528 -0.0798  0.1661
22353W        W41887   1.124  15.875  12.716 -0.2139  0.0839  0.1401
22354W        W41888  11.380  15.455   1.018  0.0036 -0.0236 -0.0236
22355W        W41889  11.853   3.045  13.572  0.1241 -0.2196 -0.2081
22356W        W41890  13.636   9.859   2.183  0.0116 -0.1886 -0.1597
22357W        W41891  10.822   5.201   2.661 -0.2073  0.0217 -0.1376
22358W        W41892   3.099  11.130   0.735 -0.0664 -0.1494 -0.0350
22359W        W41893   3.259  13.037   1.446  0.0427 -0.2528  0.1435
22360W        W41894  17.417   1.571  11.064  0.0174 -0.2283  0.3582
22361W        W41895  15.226  10.389  11.239  0.0693 -0.0774 -0.2949
22362W        W41896  18.922   4.621   3.264 -0.1067  0.1986  0.2443
22363W        W41897   9.046   9.569  12.710  0.0064  0.1376 -0.0483
22364W        W41898   1.789  17.722   1.692  0.1606  0.2069  0.1068
22365W        W41899   7.605  19.293  12.489 -0.0247  0.1268  0.0925
22366W        W41900   6.282   4.890  13.143 -0.1951 -0.2319 -0.0584
22367W        W41901   9.445   7.803   2.655 -0.2295 -0.0234  0.2523
22368W        W41902  17.070  16.033  12.992  0.1522  0.1444  0.1890
22369W        W41903  17.459   5.742  12.055 -0.0982 -0.1637  0.2824
22370W        W41904   8.778   2.271   3.467  0.0418  0.0638 -0.2440
22371W        W41905   4.670  11.904   4.024  0.0939 -0.0780  0.0084
22372W        W41906   6.068   5.162  13.637  0.2537  0.2534 -0.2275
22373W        W41907  18.834  15.009  14.088  0.1435  0.1288 -0.0627
22374W        W41908   5.532   7.763  12.030  0.0666  0.2796  0.2581
22375W        W41909  13.471  11.049   3.076  0.0627  0.0275  0.0426
22376W        W41910   9.533   2.175  11.743  0.0008 -0.0160 -0.3040
22377W        W41911   6.278  18.887  13.763  0.1782  0.1598 -0.0286
22378W        W41912  16.047  17.252   3.065 -0.1169  0.0656  0.2847
22379W        W41913  14.787  12.638  12.102  0.2482 -0.3244  0.0562
22380W        W41914   2.731  15.371  11.258  0.0339  0.2594  0.0743
22381W        W41915  10.659  11.726   4.272  0.0341  0.3366 -0.1542
22382W        W41916   4.875  18.051   2.680  0.1338 -0.3083  0.3691
22383W        W41917  13.967   3.319   3.259  0.2806 -0.2288  0.0321
22384W        W41918   3.694   2.691   1.000  0.1250 -0.2542  0.2323
22385W        W41919  11.326   0.154  11.429 -0.0939  0.1577 -0.0895
22386W        W41920   6.186   5.599  13.792  0.0268  0.2483 -0.2111
22387W        W41921   4.077   1.238   2.116  0.2667 -0.1308 -0.3538
22388W        W41922  12.074  15.976   3.436  0.1225  0.0111  0.1831
22389W        W41923   2.027  11.089   4.237 -0.0860  0.1748 -0.1751
22390W        W41924   4.466  15.967  12.941 -0.1088 -0.1255 -0.0787
22391W        W41925  11.221   9.670   3.962 -0.0739 -0.0817  0.1000
22392W        W41926   6.868   4.292  11.613 -0.0578  0.0752 -0.2602
22393W        W41927  17.365   7.770  13.050 -0.0395  0.1095  0.0950
22394W        W41928   1.216  11.990   2.003  0.0669 -0.0387 -0.1194
22395W        W41929  11.607  15.616  13.187  0.2590 -0.3584 -0.3005
22396W        W41930   8.516   1.118   2.962  0.0435  0.1326  0.1211
22397W        W41931   9.145  16.927  10.022 -0.1719 -0.2178  0.2185
22398W        W41932   0.515  10.221  13.353  0.0469  0.0422  0.4053
22399W        W41933   2.044   7.911  10.403 -0.0956 -0.0164  0.1746
22400W        W41934   5.547   7.160  14.279 -0.0820 -0.0212  0.1160
22401W        W41935   7.846  15.280  12.308 -0.2077 -0.1007 -0.1678
22402W        W41936   4.461   2.553  14.033  0.1062 -0.2613  0.0389
22403W        W41937  18.658   4.405   2.357  0.0084 -0.0253  0.0574
22404W        W41938   6.964  18.666   2.549  0.0391 -0.3440 -0.3968
22405W        W41939   7.711   9.890   2.809 -0.1925  0.0869  0.1665
22406W        W41940   0.660   3.782   1.918 -0.1819  0.0814 -0.2096
22407W        W41941  15.692  14.171  10.793  0.2999 -0.1039 -0.0967
22408W        W41942  11.425  11.352   2.507  0.0506 -0.1309 -0.2224
22409W        W41943  18.175   6.276   2.228  0.2354 -0.0748 -0.1937
22410W        W41944  12.326   8.986  11.719 -0.1940 -0.0094 -0.2037
22411W        W41945   5.921   8.197   1.573  0.3236 -0.1686 -0.2117
22412W        W41946   9.978  11.493   0.201 -0.2111 -0.1552 -0.1336
22413W        W41947   8.338  14.773   2.508 -0.0640  0.0714  0.0945
22414W        W41948  11.728  16.333  13.500  0.0308 -0.1866 -0.0248
22415W        W41949  12.188  19.499  11.312 -0.0753 -0.0297  0.1616
22416W        W41950  15.501  18.660  13.893 -0.1137  0.0711  0.0176
22417W        W41951   3.425   5.628  14.080  0.1903 -0.0698  0.1764
22418W        W41952  18.176  15.054  10.342 -0.1152  0.4705 -0.1005
22419W        W41953  18.436  10.569   4.042  0.1395  0.1099  0.1198
22420W        W41954  16.446  12.921   2.313 -0.2636  0.2091  0.2763
22421W        W41955   0.231  18.323  13.292  0.2340  0.2240  0.1433
22422W        W41956  13.573   1.549  11.975 -0.0689  0.0303  0.0622
22423W        W41957  19.369   7.786  11.883  0.1661  0.0151  0.3810
22424W        W41958   1.878   5.018  12.969 -0.2986  0.3463 -0.0723
22425W        W41959  13.049  14.678  11.224 -0.0993  0.2576 -0.0462
22426W        W41960  12.012  16.980   3.339  0.1360  0.4136  0.1810
22427W        W41961  11.402   5.847   2.562 -0.2442  0.0191 -0.0672
22428W        W41962  16.202   1.205  10.379 -0.2920 -0.0768  0.1795
22429W        W41963   2.049   3.126   3.595 -0.0536 -0.1301  0.2347
22430W        W41964  11.256   4.813   9.956  0.1166  0.0184  0.0233
22431W        W41965  11.050   0.654  13.746 -0.1734  0.1801 -0.1145
22432W        W41966  10.019  11.094  13.027 -0.1809  0.0472 -0.3481
22433W        W41967   3.231   8.573  13.973 -0.0914  0.0449 -0.1457
22434W        W41968  14.139  17.814   3.117  0.2053 -0.0741  0.2186
22435W        W41969  18.719  17.762   1.029  0.1244  0.1153  0.0222
22436W        W41970  10.929  13.562   3.225 -0.2815  0.2967  0.0768
22437W        W41971   1.085  12.732  12.490 -0.2172  0.0240  0.2558
22438W        W41972   6.066  16.577  11.503  0.0938  0.0271  0.1162
22439W        W41973   7.475   9.970   0.502 -0.0381  0.0676  0.2464
22440W        W41974  11.982  17.165  10.026 -0.2330 -0.0893 -0.2012
22441W        W41975  14.596   3.533   2.934  0.0170  0.1814 -0.0592
22442W        W41976  14.499  10.915  11.967  0.0205 -0.1076 -0.2565
22443W        W41977   1.587   1.070  13.828 -0.2977 -0.2245  0.2194
22444W        W41978   4.978  10.976  11.595  0.0751 -0.0199 -0.0491
22445W        W41979   4.809  14.881   0.894 -0.2380 -0.0488 -0.1601
22446W        W41980   6.535   5.271   3.900  0.1094 -0.3347 -0.0016
22447W        W41981  18.156  13.877   1.042 -0.1649 -0.0059 -0.1634
22448W        W41982   4.037  14.708   3.631  0.0164 -0.1242 -0.2843
22449W        W41983   0.862   5.632   9.529  0.1462 -0.1021  0.0971
22450W        W41984   1.872   7.880   4.121  0.0732  0.1514  0.1181
22451W        W41985  14.306  18.505  11.862  0.0260 -0.1649 -0.1307
22452W        W41986  17.590  18.134  13.189  0.0514  0.0159 -0.3616
22453W        W41987   3.124   8.816   9.854 -0.1458  0.0033 -0.0861
22454W        W41988   3.861  10.198   3.586  0.0710  0.1103 -0.0555
22455W        W41989   7.292   8.193   3.978  0.0803 -0.0102 -0.2563
22456W        W41990   8.927   1.525   2.747 -0.3104  0.5600 -0.2316
22457W        W41991  14.165  15.650  10.995 -0.1244 -0.0596 -0.1102
22458W        W41992   2.515   9.184   2.635 -0.3674  0.1981 -0.2341
22459W        W41993  11.353  12.739   3.751  0.5061  0.2583 -0.1511
22460W        W41994  16.816  18.840   1.152  0.0160  0.1314 -0.0896
22461W        W41995  15.705  18.063  12.627 -0.2651 -0.1059  0.0081
22462W        W41996   3.196   0.261  11.830 -0.0001  0.1450 -0.0688
22463W        W41997   1.663   8.492  12.647 -0.0333 -0.3792  0.1473
22464W        W41998  16.333   2.948  11.427  0.2774  0.0083  0.3274
22465W        W41999  19.313  13.299   1.388 -0.1870 -0.2001 -0.1137
22466W        W42000   3.798  16.568   0.832  0.0751  0.3463 -0.0466
22467W        W42001  15.162   7.888   3.443 -0.1643 -0.4833  0.0052
22468W        W42002   6.712   3.707   1.610 -0.1564 -0.0564 -0.0605
22469W        W42003   9.928  11.370  12.580  0.0398  0.2372  0.4716
22470W        W42004  19.323   1.816  12.494 -0.0641  0.0063  0.4398
22471W        W42005  11.955   1.591  13.808  0.2021  0.1921 -0.0634
22472W        W42006  13.186  15.715  11.243  0.0245 -0.0667 -0.0896
22473W        W42007  10.418   9.162  12.570  0.0831 -0.3144 -0.0856
22474W        W42008   3.007  14.935   3.261  0.0269  0.1309 -0.1753
22475W        W42009  11.783  13.693   0.842  0.1256  0.3038  0.1372
22476W        W42010   0.231   2.314  12.457  0.0827  0.0441 -0.2747
22477W        W42011  18.371   4.857  10.551 -0.1312 -0.2135  0.1461
22478W        W42012   8.743  14.857   2.833 -0.2214  0.0807  0.0620
22479W        W42013  16.137   0.573   3.869  0.1428  0.0359 -0.2304
22480W        W42014   7.097   4.417   0.355  0.1089  0.1213 -0.3287
22481W        W42015  16.659   1.977   1.205 -0.1166  0.0476  0.1411
22482W        W42016  14.807  13.231   2.566  0.1110  0.0649 -0.2902
22483W        W42017  13.444   7.334   1.887 -0.1444  0.0040  0.0100
22484W        W42018   0.247  16.120  12.245  0.2191  0.1890 -0.1095
22485W        W42019   0.603  16.258   2.100  0.1254  0.0329 -0.1684
22486W        W42020  14.814   2.138  11.024 -0.0030  0.3897  0.1711
22487W        W42021   3.157  12.411   3.987 -0.0573 -0.3173 -0.1443
22488W        W42022  12.867  16.941   3.894 -0.1478  0.1107 -0.0407
22489W        W42023   8.308  18.585  14.179 -0.0127  0.5381  0.1157
22490W        W42024  18.671  11.960   3.770 -0.1128  0.4017 -0.0989
22491W        W42025   9.078  18.661   2.254  0.1508 -0.1399 -0.0897
22492W        W42026   8.507   7.067   1.208 -0.1217  0.0182 -0.1792
22493W        W42027  11.788   2.158   9.567 -0.2159 -0.3103 -0.0528
22494W        W42028  15.943   2.176   9.435  0.0476 -0.0670  0.0542
22495W        W42029  12.412   8.441   3.785 -0.1633 -0.1282  0.1447
22496W        W42030  10.235   6.427   3.363 -0.1983 -0.1130 -0.3703
22497W        W42031   3.643   1.989  13.372  0.3457 -0.1123  0.0866
22498W        W42032  16.575  12.327  10.406  0.2232  0.0838 -0.0926
22499W        W42033   5.848  11.084   3.727  0.0324 -0.1117  0.0502
22500W        W42034   9.699   9.136  12.259 -0.0472 -0.4025 -0.0665
22501W        W42035  16.048  10.985  10.334  0.5394 -0.2472 -0.2683
22502W        W42036  13.641  10.682   1.148  0.0134  0.2574 -0.0609
22503W        W42037  17.249  13.739  13.268  0.0296 -0.3077 -0.0623
22504W        W42038   9.222   5.006   0.309  0.0579  0.1578  0.1140
22505W        W42039   3.743   8.659  13.768 -0.0336  0.0562  0.1058
22506W        W42040  18.480  19.477  11.087 -0.1113  0.1854  0.2713
22507W        W42041   7.485  18.298  12.761 -0.0349  0.1068 -0.2067
22508W        W42042  15.072   0.190  11.012  0.2811 -0.0244  0.0338
22509W        W42043   0.078  17.078  13.436 -0.1274 -0.0686  0.1283
22510W        W42044  12.429  16.249   1.050 -0.3595  0.1433  0.1338
22511W        W42045   0.811   7.817   2.888  0.2320 -0.1288 -0.0328
22512W        W42046   4.769  10.141  11.310  0.0285 -0.1445 -0.0370
22513W        W42047  18.832  13.298  13.205  0.2238  0.1315 -0.0337
22514W        W42048   3.944   4.898   1.309  0.0117 -0.2419  0.0527
22515W        W42049  16.825   8.595  13.495 -0.1342  0.2268 -0.0477
22516W        W42050   4.110   4.873   2.740 -0.1844  0.3402  0.2700
22517W        W42051  11.700   2.868   2.687  0.2281  0.1588  0.1152
22518W        W42052  14.067  12.928  11.394  0.0018  0.1608  0.1604
22519W        W42053  11.730   9.797  12.222  0.1526  0.0559 -0.4460
22520W        W42054  10.891  10.067   2.566  0.3793 -0.3504 -0.2893
22521W        W42055  14.353  19.147   2.623  0.0498 -0.2291  0.0019
22522W        W42056   3.247  13.683   0.918 -0.4386  0.0273  0.1428
22523W        W42057  19.347  11.406   1.995  0.1767 -0.0259 -0.0305
22524W        W42058  11.117   9.196   2.430  0.1200 -0.1240  0.4392
22525W        W42059   9.239  18.315  10.266 -0.0199  0.0207 -0.2939
22526W        W42060   4.213   6.039  13.048 -0.1570  0.2596 -0.1427
22527W        W42061  11.164  16.531   3.121 -0.0931 -0.0917  0.2196
22528W        W42062   9.068   5.657  13.811  0.2144 -0.1819 -0.3149
22529W        W42063   3.191  10.766  11.842 -0.0057  0.0327 -0.0621
22530W        W42064  10.263   4.069  11.327  0.1079  0.0504  0.2685
22531W        W42065   9.438   6.587  14.007  0.2550  0.0361  0.0885
22532W        W42066  12.696   4.363   1.508  0.1554  0.0567 -0.0510
22533W        W42067   3.961   6.382  13.560 -0.0724  0.1836 -0.2129
22534W        W42068   5.258   3.258  12.352  0.2548 -0.0509 -0.0006
22535W        W42069  18.753  18.850  12.194  0.1891 -0.0923  0.1461
22536W        W42070  13.491   0.219   1.112  0.1885 -0.2189  0.1208
22537W        W42071  14.753   3.135  11.937  0.0184 -0.1225 -0.3139
22538W        W42072  17.220   8.224   0.349  0.2434 -0.1226 -0.0301
22539W        W42073   4.989   1.238  11.768 -0.0837  0.2327 -0.0796
22540W        W42074   3.516   8.075  13.903  0.0635 -0.1576 -0.2215
22541W        W42075  16.786  10.885  13.349  0.1596 -0.3335 -0.0480
22542W        W42076  14.364   5.563  10.497  0.1094  0.2830  0.2622
22543W        W42077  13.092   2.330   1.069 -0.0499 -0.0596 -0.0982
22544W        W42078   4.510  11.443   4.267 -0.0950  0.2039  0.1372
22545W        W42079  16.751   3.100   2.064  0.1677 -0.0466  0.2179
22546W        W42080   5.276  15.458   0.995  0.3506 -0.4507 -0.1576
22547W        W42081   1.836  13.105  10.759  0.1162 -0.1478 -0.1395
22548W        W42082   0.410   5.453   3.576 -0.0094 -0.0503  0.2208
22549W        W42083   1.170  11.674   0.163 -0.2037 -0.2860 -0.2730
22550W        W42084  18.513  17.965  13.572  0.1963  0.1551 -0.0648
22551W        W42085  17.880  12.403  11.024  0.0396 -0.1066  0.2774
22552W        W42086  16.646   6.997   3.054  0.2825  0.0023  0.2171
22553W        W42087  14.310   0.070   3.399  0.2386  0.0457  0.2625
22554W        W42088   6.886   5.619   1.885 -0.2096 -0.3329 -0.1521
22555W        W42089  15.061   1.383   3.360 -0.0248 -0.0279  0.0082
22556W        W42090   2.751   7.403  13.351 -0.0899  0.0757 -0.3768
22557W        W42091   2.077  18.730   2.691  0.0150  0.2381 -0.0163
22558W        W42092   5.086   4.843   0.417  0.2776  0.0570 -0.3463
22559W        W42093   5.783   4.493  11.996 -0.1651  0.0403 -0.1427
22560W        W42094  12.232  15.676   9.126 -0.2241  0.1677  0.2606
22561W        W42095   1.493   3.647  13.628  0.2881 -0.0345 -0.0101
22562W        W42096   8.807  10.204   3.272 -0.3598 -0.0519 -0.1958
22563W        W42097   5.673   0.945  11.360 -0.0513  0.0522  0.0733
22564W        W42098   4.679   0.344  11.756 -0.1392 -0.0818  0.1082
22565W        W42099   0.739   6.433  14.351 -0.1590  0.1386 -0.2064
22566W        W42100  17.706   8.707   1.679  0.0618  0.3141 -0.0450
22567W        W42101  19.497  18.798   0.387  0.0814 -0.0344  0.1983
22568W        W42102  17.167   2.311  12.017  0.0201  0.3599  0.4566
22569W        W42103   3.543  19.454   3.662  0.2075  0.2284 -0.1588
22570W        W42104  15.511  17.399  12.129 -0.1355 -0.1623  0.0624
22571W        W42105   5.714  18.559  10.600  0.1761  0.1378  0.1103
22572W        W42106   3.522   4.178   0.488 -0.0117 -0.1650 -0.1130
22573W        W42107  12.897   8.629  12.592 -0.2227  0.0871  0.0924
22574W        W42108  17.670  19.043  12.590 -0.1580  0.0626 -0.2119
22575W        W42109  13.531  13.500   1.131 -0.1197 -0.0291 -0.0751
22576W        W42110  16.107  19.467  10.657 -0.1054  0.0805 -0.2469
22577W        W42111  18.846  17.726  11.556  0.0997  0.5512 -0.2896
22578W        W42112   1.917  16.391  12.621  0.2337 -0.0701 -0.3360
22579W        W42113   8.014  17.878  12.610 -0.0999 -0.5028 -0.1327
22580W        W42114   5.144   0.304   2.397 -0.1882 -0.0168 -0.1753
22581W        W42115   5.558  17.710   4.253 -0.3634  0.2005  0.1893
22582W        W42116  13.136   9.665  11.608  0.0540 -0.1060 -0.0554
22583W        W42117  13.443  16.901  12.706 -0.1007 -0.0602  0.1031
22584W        W42118   9.010  13.136   1.695  0.2849 -0.2963 -0.1828
22585W        W42119   5.252  13.178   3.826 -0.3707  0.0359  0.1057
22586W        W42120   9.635   1.182   2.913 -0.0470 -0.0364 -0.1371
22587W        W42121   7.744  12.275  11.951 -0.2141  0.0112  0.0028
22588W        W42122  14.692  14.567  12.333 -0.2005  0.2169 -0.0125
22589W        W42123   9.486   4.121   2.506  0.0233 -0.3272 -0.3166
22590W        W42124   9.225   8.743  10.965 -0.1536  0.0953 -0.1428
22591W        W42125  12.018   0.178   0.942 -0.0983 -0.1706 -0.0796
22592W        W42126   1.998   6.948  14.267  0.1610  0.1309  0.1690
22593W        W42127   3.994  18.005   2.755  0.0927  0.0654  0.2531
22594W        W42128  11.031   5.255  13.174  0.1618  0.0188 -0.0865
22595W        W42129   5.971  10.645   4.761  0.1797  0.1803 -0.1140
22596W        W42130   0.726  15.620  13.515  0.0230 -0.2089  0.0034
22597W        W42131  15.616  11.747   0.136 -0.0253 -0.2300  0.0950
22598W        W42132   1.052   1.275   2.157  0.2611  0.0547  0.0596
22599W        W42133   5.343   9.862   2.318 -0.0445 -0.1552 -0.0275
22600W        W42134   5.453  10.947  13.080  0.1799  0.2881 -0.2035
22601W        W42135  11.204   5.477  12.029 -0.2525 -0.1689 -0.2490
22602W        W42136   2.050   4.023  12.014 -0.3237  0.0867  0.3879
22603W        W42137   4.938  12.022   1.075 -0.0030  0.2083 -0.0908
22604W        W42138   1.769  14.938  11.112 -0.3343  0.2704 -0.1264
22605W        W42139   7.607   7.217  12.740 -0.1621  0.2806 -0.1155
22606W        W42140  13.847   9.016   0.463  0.2467 -0.1610 -0.0745
22607W        W42141  17.433  10.213   1.248  0.2574 -0.0996 -0.0922
22608W        W42142  15.650   3.775  12.890 -0.1410  0.2816  0.1083
22609W        W42143   0.862  12.549   0.408  0.0349  0.0826  0.1647
22610W        W42144   6.051  16.894   3.169 -0.0196 -0.1131  0.2010
22611W        W42145  18.073   9.502   3.480  0.2030 -0.1091 -0.0465
22612W        W42146   7.153   5.872  13.049  0.1601  0.0580  0.1732
22613W        W42147  12.991   1.853   2.981  0.3135 -0.0721  0.2933
22614W        W42148   6.879  12.199  12.003  0.1137 -0.1943  0.1713
22615W        W42149  10.291   7.971  10.853  0.1410 -0.1288  0.0556
22616W        W42150  11.611  18.386   3.686 -0.2310  0.1605 -0.1455
22617W        W42151   6.807  10.610   4.785 -0.2712 -0.2438 -0.2004
22618W        W42152  14.334   1.013   3.424 -0.0018 -0.2247 -0.0230
22619W        W42153  15.511   8.698   0.742  0.0349 -0.0608 -0.0005
22620W        W42154  14.869   1.801   2.125 -0.0445  0.0972 -0.2302
22621W        W42155   9.990   3.081   1.306  0.2027 -0.2598 -0.2807
22622W        W42156   5.134  17.515  12.290 -0.0816 -0.2010 -0.1694
22623W        W42157  19.516   2.791  11.555 -0.1118  0.1055 -0.1351
22624W        W42158   9.852  10.823   0.413 -0.0873 -0.1909 -0.0831
22625W        W42159   2.972   0.113  10.238 -0.1911 -0.2920 -0.2124
22626W        W42160   3.850   1.783  10.927 -0.0160 -0.0891 -0.0634
22627W        W42161  13.203   0.968  14.273  0.1153 -0.1228  0.5225
22628W        W42162   6.511   7.775  13.202  0.1943 -0.1186 -0.2960
22629W        W42163  10.848  12.517  11.485  0.1034 -0.0801  0.1667
22630W        W42164  16.223  10.277  12.806  0.1941 -0.1421  0.0158
22631W        W42165   8.900   1.635  11.435  0.1153 -0.1890  0.2615
22632W        W42166   1.209  16.357  13.124 -0.1353  0.0908 -0.0173
22633W        W42167   0.077  15.197  10.827 -0.0492 -0.3304 -0.0781
22634W        W42168   5.085  17.550  13.487 -0.1278  0.2673 -0.1175
22635W        W42169  12.528   3.408   3.697 -0.1542 -0.0623 -0.2118
22636W        W42170   2.682  15.251   2.250  0.3033 -0.0731  0.0858
22637W        W42171   1.102  11.376   1.297 -0.0977  0.0771  0.1299
22638W        W42172   6.407   5.623   2.079 -0.3220  0.2849 -0.0307
22639W        W42173  15.190  17.996  10.991  0.1945 -0.3302 -0.2117
22640W        W42174  13.459   1.516  13.625 -0.1140  0.1519  0.0952
22641W        W42175  18.031   3.620   0.781  0.1660 -0.0418 -0.1809
22642W        W42176   0.248  16.258  11.332  0.0188  0.2514  0.1166
22643W        W42177  12.918  13.217  14.275 -0.1930  0.0640 -0.4383
22644W        W42178  16.553  17.735   1.204 -0.0697 -0.0613  0.4457
22645W        W42179   1.899  10.417   2.980 -0.1599  0.2105  0.0616
22646W        W42180   2.237   6.871   4.266 -0.0194  0.0139  0.0222
22647W        W42181   5.084   0.373  13.960 -0.2854  0.0901 -0.2029
22648W        W42182  14.211   1.036  12.375  0.4004 -0.0981 -0.4438
22649W        W42183  16.020   5.612   4.218 -0.1949 -0.1846  0.0350
22650W        W42184   2.912   3.159   3.642  0.0000 -0.0790  0.0443
22651W        W42185   4.844   5.836  14.080 -0.1209 -0.1856 -0.4491
22652W        W42186  17.789   3.064  11.337 -0.1407  0.3308  0.1050
22653W        W42187   8.100   3.560   0.574  0.3898  0.0188 -0.0094
22654W        W42188  15.287   1.818  13.463 -0.2811  0.2178 -0.1026
22655W        W42189   8.593  12.264  13.892 -0.0701 -0.1957 -0.1357
22656W        W42190   9.344   7.692  13.286  0.1127  0.3306  0.1731
22657W        W42191   5.330  13.142   1.561 -0.0019 -0.0547 -0.0384
22658W        W42192  16.474   8.160   1.635 -0.0020 -0.1714  0.2301
22659W        W42193  12.984  17.567   3.213  0.0247  0.0624 -0.2703
22660W        W42194   5.968  14.702   0.121 -0.3955 -0.0492  0.2198
22661W        W42195  19.299   0.218  13.944 -0.1825 -0.1365  0.0755
22662W        W42196   3.936  18.976   2.498  0.3415 -0.1240  0.0787
22663W        W42197   4.865   6.759  13.621 -0.0526 -0.1746  0.0775
22664W        W42198  17.348   7.611  11.381 -0.0185 -0.0047  0.1403
22665W        W42199   1.433  17.937  13.187  0.0233 -0.1181  0.0843
22666W        W42200   9.117  19.380   2.405 -0.1172 -0.1156 -0.1273
22667W        W42201  14.463   1.530   0.246 -0.0988 -0.2495  0.0013
22668W        W42202   8.382  15.692   3.812  0.0682  0.2345  0.1091
22669W        W42203   7.682  19.346   1.280 -0.1470  0.1598  0.3704
22670W        W42204  13.117  14.762   1.698 -0.1657 -0.2767  0.1812
22671W        W42205   8.002  18.681  10.306 -0.0884  0.3182 -0.1711
22672W        W42206   5.616  12.328  12.351 -0.1243  0.3446  0.0424
22673W        W42207   6.739  11.703  11.687  0.1206  0.0097  0.1740
22674W        W42208  13.168  16.384   2.396  0.3088  0.1792  0.1069
22675W        W42209   5.802  17.540  10.700 -0.0916  0.0724  0.1193
22676W        W42210  18.315  18.960   0.911  0.4626  0.2933  0.0518
22677W        W42211  13.178  16.995  14.091  0.2327  0.0553  0.3274
22678W        W42212  11.984  13.391   0.124 -0.1708 -0.0011 -0.1015
22679W        W42213   3.695  17.716   3.775  0.0164 -0.0001  0.2176
22680W        W42214   7.234   1.404  13.962  0.0061  0.0476 -0.3715
22681W        W42215   1.237   7.385   0.976  0.3046  0.0942 -0.0519
22682W        W42216   6.795   8.198  13.350 -0.0810  0.1643  0.0791
22683W        W42217  18.500  10.346  11.689 -0.1599  0.2452 -0.1747
22684W        W42218   7.593  16.599  13.602 -0.2287  0.0666  0.0198
22685W        W42219   5.873   4.764   0.126  0.1127 -0.1958  0.3373
22686W        W42220  16.895  10.971   4.829  0.1586  0.1090 -0.1512
22687W        W42221  11.587  18.582  11.546  0.0254 -0.0699  0.1189
22688W        W42222   0.329   7.200   0.193  0.3256 -0.1893  0.0377
22689W        W42223   0.950   0.176   1.971 -0.2898  0.2355 -0.0465
22690W        W42224   1.047   8.423   2.082 -0.0119 -0.0957  0.0865
22691W        W42225   4.105   7.796   3.348  0.1651  0.0350  0.0776
22692W        W42226  14.486   2.455  10.681 -0.2245 -0.3591  0.2090
22693W        W42227  16.058   2.337   3.301  0.3057  0.1718 -0.1739
22694W        W42228   6.837  10.188   1.329 -0.0082  0.1083  0.0152
22695W        W42229  12.745   5.151   1.001  0.1393 -0.1049 -0.1100
22696W        W42230  17.568  13.919   2.014  0.1128  0.1093 -0.0249
22697W        W42231  15.553  16.084   3.161  0.0167  0.1928  0.2830
22698W        W42232   9.059   3.977   1.619  0.0756  0.1480  0.1219
22699W        W42233  13.938   2.986   3.677 -0.3659  0.0082 -0.1460
22700W        W42234   4.759  14.934  10.908  0.1153  0.1461  0.1472
22701W        W42235   5.287  17.880   0.976 -0.3302  0.1864  0.0617
22702W        W42236   8.071  15.479  11.382 -0.0805  0.2151  0.3435
22703W        W42237  18.343  15.882  10.030 -0.1066 -0.1485  0.0416
22704W        W42238  15.371  11.904   3.848  0.1873 -0.3070 -0.1636
22705W        W42239  16.685  10.453  13.982 -0.2424  0.2241  0.2997
22706W        W42240  19.227  12.310  11.959  0.1582  0.0145  0.0884
22707W        W42241  13.027  17.454  11.999  0.1833  0.2392 -0.0970
22708W        W42242   2.631  13.376  11.900 -0.0084 -0.2137  0.0708
22709W        W42243   3.960  19.078   0.490  0.2215  0.4512  0.1043
22710W        W42244  18.006  13.117   0.088 -0.0661  0.1617 -0.0566
22711W        W42245  12.304  16.839  12.484 -0.3757 -0.2213 -0.4726
22712W        W42246   7.039  18.604   0.969  0.1981  0.0678  0.1938
22713W        W42247   1.887  14.673   1.908  0.0234  0.0948 -0.0276
22714W        W42248   0.385   2.498   2.083  0.0116  0.2368 -0.2400
22715W        W42249   0.838  10.825   2.384  0.0086  0.2697  0.0758
22716W        W42250   4.989  13.785   2.269 -0.0853 -0.2454 -0.2322
22717W        W42251   1.423   0.737   3.450 -0.0335 -0.2293  0.2905
22718W        W42252  11.858   3.525   0.729  0.0194  0.0248  0.1393
22719W        W42253  18.386   6.414   2.695  0.0995  0.0987  0.0349
22720W        W42254  11.980   7.154  11.923 -0.1031  0.0059 -0.0413
22721W        W42255  15.982  19.386   0.014  0.3637  0.2268 -0.1691
22722W        W42256   1.203  17.485   3.565 -0.0391 -0.1570 -0.5661
22723W        W42257   8.154  14.977  13.095  0.1898 -0.0517 -0.1471
22724W        W42258  13.365   5.576   3.560 -0.3522 -0.1193 -0.0534
22725W        W42259   5.139   1.475   3.486  0.2330 -0.1128 -0.4641
22726W        W42260   9.718   4.451   0.370 -0.1442  0.2225  0.2701
22727W        W42261   8.407   2.422   1.051  0.0179  0.0098 -0.2759
22728W        W42262   1.003   8.565  14.324  0.0108 -0.0813 -0.1417
22729W        W42263   2.733   3.206  10.406 -0.0080 -0.2092  0.0167
22730W        W42264   4.003  16.847  13.259  0.1870  0.0079  0.1024
22731W        W42265   7.612   2.746   4.400 -0.3492 -0.4203  0.3244
22732W        W42266   1.439  16.356   1.132 -0.0067  0.0381  0.1232
22733W        W42267   9.702  14.766   0.538 -0.1685  0.0753  0.2272
22734W        W42268   7.552   5.011  12.715  0.0044  0.2716  0.1027
22735W        W42269   5.680  15.100  13.156  0.1080  0.2353 -0.1202
22736W        W42270  10.393   2.378   2.475  0.1088 -0.1520  0.2864
22737W        W42271  17.320  14.696   3.816  0.2273 -0.0405  0.2324
22738W        W42272  14.865  13.639  13.532 -0.2460 -0.2169  0.0313
22739W        W42273  12.651   4.600   2.936  0.1447  0.1472  0.1007
22740W        W42274   7.164   8.155  11.233 -0.3261  0.0378 -0.0647
22741W        W42275   1.967  11.516   3.679  0.2232  0.1708  0.2248
22742W        W42276   1.407  15.176  10.527  0.2952  0.1418 -0.0015
22743W        W42277  15.093  16.854   3.394  0.1140  0.1301 -0.3552
22744W        W42278  17.661   0.590  10.848  0.2381  0.1616 -0.5583
22745W        W42279   8.679  17.308   0.001 -0.0341  0.1082  0.1466
22746W        W42280  15.261   0.355  11.868  0.1523  0.0291  0.2700
22747W        W42281  11.055   3.885  14.187  0.0219 -0.0117 -0.1220
22748W        W42282  17.062  10.300   0.026 -0.1692 -0.1922  0.1056
22749W        W42283  14.240   7.617  13.684 -0.2608 -0.0148  0.3502
22750W        W42284  16.516  14.695  13.247 -0.2221 -0.3759 -0.1152
22751W        W42285  11.571   6.175   3.190  0.0565  0.1475  0.0691
22752W        W42286   8.345   8.083  11.869 -0.1989 -0.0039  0.0992
22753W        W42287  10.252  12.237  13.716 -0.0834  0.0853  0.0067
22754W        W42288   7.338   5.819   2.572  0.1984 -0.0452 -0.1615
22755W        W42289   3.497  13.968  13.193 -0.0391 -0.0265 -0.0990
22756W        W42290  12.958   0.324  13.631  0.0719 -0.0467 -0.0037
22757W        W42291   6.319  15.410  10.925 -0.1969  0.0346  0.0595
22758W        W42292  16.057   7.109   2.516 -0.1009  0.1661  0.3532
22759W        W42293   0.746   1.677  11.800  0.2069  0.2599  0.2363
22760W        W42294   7.349   9.131   4.021  0.0205 -0.1462 -0.0889
22761W        W42295  13.436  17.320  13.801  0.3541  0.1794  0.1944
22762W        W42296   0.906   9.452  11.829  0.2127  0.3997 -0.5459
22763W        W42297   1.362  13.876  13.367  0.1343 -0.1239 -0.0664
22764W        W42298  19.218  16.181   3.576  0.0068 -0.0738 -0.0473
22765W        W42299   6.984   4.693  11.346  0.1045 -0.0036 -0.1667
22766W        W42300  16.059  14.556  13.182 -0.0697 -0.2298  0.0164
22767W        W42301  12.236  10.279  13.562  0.0810  0.1873 -0.1757
22768W        W42302  11.173   0.703  13.084 -0.0075  0.0703  0.0304
22769W        W42303  14.001  19.092   0.933  0.0835 -0.1980 -0.0908
22770W        W42304   3.125  11.202   1.591  0.2958 -0.1087  0.0428
22771W        W42305   2.973  14.339  10.843  0.1554 -0.1590 -0.0805
22772W        W42306  11.066  16.540   9.459 -0.3735 -0.2571  0.1730
22773W        W42307   3.436  16.455  10.900  0.4472 -0.0248 -0.1764
22774W        W42308  18.597  10.014   0.287 -0.2632 -0.1798 -0.2324
22775W        W42309  16.690  18.212  13.624 -0.0967 -0.2453  0.0997
22776W        W42310   8.252   0.605   0.240  0.0405  0.2962  0.3029
22777W        W42311  13.023   1.659   0.793  0.0738  0.0300  0.2719
22778W        W42312  15.419  18.534  10.927 -0.1380 -0.0061  0.2805
22779W        W42313  15.960   5.256   2.088 -0.2374  0.3046 -0.0475
22780W        W42314  18.708  11.467   3.892 -0.0020  0.0142 -0.0165
22781W        W42315  10.057   7.643   3.290  0.4489 -0.1437 -0.0550
22782W        W42316  11.260  19.260  11.049 -0.0088  0.0808 -0.0095
22783W        W42317   4.751  17.468  10.868  0.1213  0.2164 -0.2650
22784W        W42318  16.004   1.040  11.668  0.1805  0.0474 -0.3747
22785W        W42319  13.897  15.720   5.133 -0.0121  0.0365  0.0285
22786W        W42320   1.493  16.206  10.865 -0.2788  0.0412  0.1662
22787W        W42321  16.936  13.963  11.965  0.0586 -0.0156  0.2455
22788W        W42322   9.699   2.436  11.287  0.0585 -0.2362 -0.0330
22789W        W42323  19.180  16.248   1.028 -0.1828 -0.1223  0.2658
22790W        W42324  11.496   5.253  10.721 -0.0611 -0.3619 -0.1036
22791W        W42325  15.245   2.374  13.881 -0.0436 -0.2145 -0.2933
22792W        W42326  19.259  18.256  14.103  0.1707 -0.0145 -0.2350
22793W        W42327  11.386   3.491   3.205  0.1359 -0.0125  0.0685
22794W        W42328  17.220   2.733  11.469 -0.5243 -0.0537  0.4781
22795W        W42329   8.656   8.383  13.976 -0.1494 -0.2222  0.0715
22796W        W42330   5.221  10.747  11.981 -0.0585 -0.0307  0.0744
22797W        W42331   9.922  17.894  13.473  0.0362 -0.0867 -0.2647
22798W        W42332  16.726  13.926  11.144 -0.0695 -0.1118  0.0946
22799W        W42333  14.507  18.519  11.431  0.1425 -0.0578  0.2625
22800W        W42334   7.103  13.345  13.682  0.1510  0.2311 -0.1044
22801W        W42335  15.421   6.310   1.421 -0.4742  0.0498 -0.1091
22802W        W42336   6.798   7.565  12.378 -0.1930 -0.0061  0.2331
22803W        W42337  11.586  18.056   1.867 -0.2437 -0.1754  0.0987
22804W        W42338   4.025   3.433   3.742 -0.1515 -0.0863  0.2295
22805W        W42339  18.169   8.961   3.192  0.4248 -0.0912 -0.0557
22806W        W42340  10.471  10.114  13.942 -0.2670  0.1639  0.5758
22807W        W42341  14.261  11.833  13.558 -0.1044 -0.0464  0.0414
22808W        W42342   9.155  16.681  10.529 -0.0730  0.0304  0.1401
22809W        W42343  13.127   2.226   0.167  0.1208  0.2210  0.0359
22810W        W42344   7.298   7.270   4.000 -0.2404 -0.0475 -0.0021
22811W        W42345  11.451  12.808   1.783  0.0048  0.0748 -0.1492
22812W        W42346   1.232   9.603  13.276  0.4017 -0.0809  0.0197
22813W        W42347  18.233  11.791   3.281  0.5042  0.1902  0.3267
22814W        W42348   0.821  10.231   0.926  0.2556  0.3064  0.0245
22815W        W42349  17.729  17.374   3.710  0.1544  0.0320  0.2532
22816W        W42350   3.691   8.802  11.872  0.1030 -0.2204 -0.2257
22817W        W42351   5.926   1.243   0.099  0.2973 -0.0420  0.3151
22818W        W42352   1.213   4.249   1.039  0.0557  0.1634  0.3288
22819W        W42353  16.020   6.941  13.922 -0.1315  0.0568  0.0615
22820W        W42354   6.661   5.688  10.725 -0.2713 -0.1467 -0.2606
22821W        W42355   1.743  15.247   3.483 -0.1330 -0.0192 -0.2567
22822W        W42356  14.727  14.197  13.327 -0.0104  0.0258  0.0491
22823W        W42357  10.942  10.982  13.258 -0.0235 -0.0127 -0.2844
22824W        W42358   2.921  13.534  13.915 -0.0337  0.0911 -0.2733
22825W        W42359  19.334  14.675   2.687 -0.2668 -0.2064 -0.0707
22826W        W42360   5.110  14.175  13.204 -0.2944 -0.2597 -0.0917
22827W        W42361   3.048   0.708   2.752 -0.0537 -0.2314  0.0630
22828W        W42362  12.716  15.235   1.738 -0.2047 -0.0742  0.1750
22829W        W42363   6.683  18.561  13.688 -0.1789  0.1588 -0.0035
22830W        W42364   3.333   0.258  10.657  0.1575  0.3339 -0.0701
22831W        W42365   8.777  13.308   9.911  0.3230  0.1960  0.0195
22832W        W42366  17.806  19.152   2.451 -0.0679 -0.1476 -0.1463
22833W        W42367   1.746  15.267  13.208  0.0248  0.0197  0.1677
22834W        W42368   0.024   8.204  13.133  0.1588  0.0263 -0.0783
22835W        W42369  16.225  11.705   4.223  0.3564 -0.0544 -0.0030
22836W        W42370  10.932   3.344  12.069  0.1310 -0.3443 -0.0104
22837W        W42371  16.297  11.811  11.675 -0.2331 -0.1873  0.4192
22838W        W42372   9.741   1.111  14.089  0.0502  0.2472 -0.1175
22839W        W42373   1.546   5.962  12.910  0.0216 -0.0136  0.2613
22840W        W42374  17.006   8.249  13.162 -0.1986 -0.1075  0.0413
22841W        W42375  11.444   8.812   0.657  0.0009 -0.2944  0.0557
22842W        W42376   9.741   6.407   1.444  0.0250  0.3123  0.4221
22843W        W42377   9.479  18.822   1.711  0.1586  0.0048  0.1046
22844W        W42378  14.398  17.857  13.510  0.0526  0.3213  0.0120
22845W        W42379  17.774  10.313   0.434  0.1947 -0.2240  0.0160
22846W        W42380   1.551   7.693   1.629  0.2648  0.2359  0.2769
22847W        W42381   3.875  16.804   3.248 -0.0248  0.0917  0.2156
22848W        W42382   3.392  11.946   1.845  0.0869 -0.0531 -0.0462
22849W        W42383  16.989  10.200  10.953  0.0543  0.1630  0.1673
22850W        W42384   2.301  17.589   3.370  0.1033  0.0913  0.4686
22851W        W42385  17.416  16.518   0.296  0.0562  0.0135 -0.0713
22852W        W42386  17.556  12.784  11.099  0.0074  0.0533  0.3671
22853W        W42387   2.786  11.323  13.248 -0.0123 -0.0184  0.0035
22854W        W42388  18.833   4.223  13.995  0.2233 -0.2429 -0.0623
22855W        W42389   5.124  13.214   0.993 -0.0136  0.3694  0.0555
22856W        W42390  11.779   2.110  14.087  0.2812  0.0781  0.0918
22857W        W42391  15.919  11.420   0.367  0.0556  0.0771  0.0829
22858W        W42392  12.729   5.043   1.963 -0.1150  0.0488 -0.3547
22859W        W42393  14.771   5.211   0.340  0.0569 -0.0789  0.0064
22860W        W42394   6.157   2.928  11.631 -0.2364  0.1128  0.1141
22861W        W42395   5.205   2.403  13.449  0.3721 -0.3273 -0.3579
22862W        W42396  18.775  10.118   2.537 -0.2104 -0.3298 -0.1734
22863W        W42397  15.976  10.068  10.392  0.2106  0.2898 -0.2406
22864W        W42398  13.863  13.338   2.693 -0.1171 -0.2001 -0.0856
22865W        W42399  12.197  14.136   3.767  0.0765  0.2066  0.3644
22866W        W42400  12.419  11.749  12.845  0.0110 -0.0446  0.1515
22867W        W42401   2.751   7.892  12.327  0.0572  0.0762  0.0826
22868W        W42402  12.645  15.175  13.624  0.3608  0.0051 -0.0840
22869W        W42403  12.352   6.709   3.130 -0.5528  0.1105  0.2292
22870W        W42404  16.431   4.889   1.920 -0.0396 -0.2757  0.0975
22871W        W42405   1.461   5.172  10.201 -0.3914 -0.1195  0.1741
22872W        W42406   7.808  10.945   3.634  0.3554  0.1235  0.0818
22873W        W42407   9.880   8.151   3.460  0.0171  0.0093  0.0610
22874W        W42408  14.864   8.640   3.183 -0.4373 -0.1130  0.1483
22875W        W42409   0.711  11.929   3.882 -0.0300 -0.0506  0.2757
22876W        W42410   3.008   5.011   2.520 -0.1594  0.1639 -0.2749
22877W        W42411  12.751  13.661  13.949  0.3610 -0.2279 -0.0424
22878W        W42412  16.846   7.501   4.478 -0.0173  0.1068  0.1109
22879W        W42413  10.929  12.583  10.541  0.0012 -0.1228  0.2048
22880W        W42414   3.900   9.603   2.903 -0.3821 -0.1529  0.0690
22881W        W42415  17.433  16.093   9.786 -0.0192  0.0367  0.3229
22882W        W42416   2.507   4.289  10.668 -0.0175  0.1947 -0.2426
22883W        W42417   1.910  18.477   1.716 -0.2687  0.3992  0.1728
22884W        W42418   1.556  19.212   0.967 -0.0683 -0.0936  0.2385
22885W        W42419   6.563  13.519  12.298 -0.2131 -0.3531  0.3133
22886W        W42420  19.448  12.480   3.694  0.1304 -0.0552  0.0628
22887W        W42421   9.409   5.010  12.931 -0.2626 -0.2891 -0.1368
22888W        W42422   6.822  10.921  12.871 -0.2617  0.4238 -0.3466
22889W        W42423   9.055   7.965  13.007  0.1149  0.4388  0.0143
22890W        W42424  15.744  16.961  13.065  0.1999 -0.0578  0.1081
22891W        W42425   9.659  11.291  10.681  0.1976  0.1826  0.2653
22892W        W42426   4.459  10.088   2.357  0.0700 -0.0029 -0.5023
22893W        W42427  18.521   1.812   0.039 -0.0532  0.1879 -0.0787
22894W        W42428  11.930   6.635   2.190  0.2256 -0.0948  0.1433
22895W        W42429  19.285  13.546  14.037  0.0517 -0.1478 -0.0781
22896W        W42430  13.884   3.392  13.906 -0.0111 -0.3470 -0.1951
22897W        W42431  16.497   9.106   4.167  0.0427 -0.1825  0.0522
22898W        W42432   6.308   2.903   2.732  0.1341 -0.1085  0.2917
22899W        W42433  14.975   8.299   3.766 -0.3098  0.0229 -0.2162
22900W        W42434  17.259  13.912   2.861 -0.0444 -0.0640  0.2137
22901W        W42435  13.596  10.093   3.538 -0.1851 -0.2216  0.3377
22902W        W42436  16.829   6.332   0.903  0.3727 -0.0296  0.0922
22903W        W42437   3.475   7.894  13.092  0.0728  0.0603 -0.0186
22904W        W42438  13.083  18.068   3.360 -0.0964  0.0356 -0.0211
22905W        W42439   3.782  19.284   0.027  0.1621  0.0774 -0.1602
22906W        W42440  14.581   3.750  11.238 -0.1090 -0.0353 -0.1664
22907W        W42441  14.483  17.924   9.755  0.2953  0.0488 -0.1594
22908W        W42442   8.172  11.869   3.431 -0.0916  0.4034 -0.2634
22909W        W42443   0.328   5.443   4.180  0.0630  0.2755  0.0969
22910W        W42444  14.337  10.050   3.558  0.1910  0.3054 -0.0481
22911W        W42445   8.482  11.454  11.686  0.1921  0.0892  0.1048
22912W        W42446  11.848   8.116   2.414 -0.0001 -0.0501 -0.4211
22913W        W42447   9.957  19.405  11.815  0.0386  0.1891  0.1317
22914W        W42448  12.287   8.377  12.477  0.0902 -0.0532  0.1477
22915W        W42449   8.344   6.066  13.565 -0.0437  0.1216  0.2756
22916W        W42450   7.953   5.362  10.737 -0.2229  0.0627  0.3662
22917W        W42451   1.862   4.355  12.348 -0.0073 -0.2220 -0.1095
22918W        W42452   5.489  12.254   3.556  0.3655  0.3004  0.1751
22919W        W42453   5.102  16.193   3.963 -0.0470 -0.1445 -0.0647
22920W        W42454   6.711   2.857   3.128 -0.2000 -0.0108  0.0733
22921W        W42455   5.540   8.840   0.559  0.0617 -0.1192 -0.0472
22922W        W42456   3.733   1.207  12.951  0.1543 -0.1675  0.0397
22923W        W42457   3.315  11.343  12.959  0.0877  0.1653  0.1391
22924W        W42458  10.629   6.023  12.645 -0.0004  0.2341 -0.0377
22925W        W42459   9.719   2.647   2.217  0.1023  0.0149  0.1913
22926W        W42460  16.423   7.516   4.241 -0.0892  0.2462  0.2911
22927W        W42461  18.595   0.748  10.635  0.2738  0.0725  0.2646
22928W        W42462  18.882   9.811  14.275  0.2124 -0.1169  0.0382
22929W        W42463  14.334  15.575   2.750 -0.0571  0.1019 -0.1345
22930W        W42464   6.794  12.209  11.478 -0.0400 -0.1962  0.1633
22931W        W42465   0.987   6.910  10.502 -0.0180 -0.4411 -0.3650
22932W        W42466  15.098  15.358  11.653  0.1288 -0.1932 -0.1035
22933W        W42467  15.974  11.797  14.185  0.1311 -0.1118 -0.1061
22934W        W42468   3.447   1.302  12.063 -0.2612  0.0000  0.0871
22935W        W42469   6.021   2.231  12.401 -0.0651  0.2213 -0.0053
22936W        W42470  13.761   0.187  13.054 -0.1595 -0.0519  0.0017
22937W        W42471   5.908  17.803   0.585 -0.1203  0.1552 -0.0961
22938W        W42472   8.806   1.401   3.861 -0.0078 -0.0621 -0.2306
22939W        W42473  12.372  12.105   2.363 -0.0254 -0.0020  0.1930
22940W        W42474  13.136  15.052   3.151  0.2913 -0.2412  0.0767
22941W        W42475   2.925  17.994  12.851 -0.0432 -0.2797  0.1816
22942W        W42476  14.922   4.790  10.696  0.2303  0.0839  0.1332
22943W        W42477  18.174  18.583  12.035 -0.4451  0.1382 -0.0114
22944W        W42478  17.055   4.615  11.313  0.0605  0.1435 -0.0656
22945W        W42479  11.397  17.699   0.571  0.2538 -0.0999  0.0937
22946W        W42480   8.445   5.500  10.974  0.2544  0.2464 -0.0452
22947W        W42481  11.509  19.465   2.993  0.0240  0.2691  0.0540
22948W        W42482   6.611   9.101   1.780  0.0182  0.0177  0.0771
22949W        W42483   8.658   0.624   9.916  0.4285 -0.2055 -0.2418
22950W        W42484  12.398   7.974   3.179 -0.1200 -0.0327 -0.3925
22951W        W42485   8.022   5.545   3.792  0.1961 -0.1416  0.2678
22952W        W42486   0.157   7.635   0.008  0.1960 -0.1989 -0.0175
22953W        W42487   4.128  17.227   1.080 -0.0398  0.4328 -0.0812
22954W        W42488   3.230   4.470   1.783  0.3200 -0.2309 -0.1084
22955W        W42489  11.762   6.047  11.377 -0.0672 -0.3864  0.1040
22956W        W42490  12.239  17.591  11.850 -0.1149  0.2004 -0.0850
22957W        W42491   1.537   9.833   0.216  0.3658  0.0352  0.1274
22958W        W42492   1.280  11.237  11.478 -0.1397 -0.0875  0.0374
22959W        W42493   9.682   0.861   1.615  0.1817  0.2522  0.1881
22960W        W42494   6.400   5.574   1.601  0.0410  0.1041 -0.0057
22961W        W42495  12.295   2.180  12.378  0.2738  0.0858 -0.1110
22962W        W42496   5.576   1.559   4.418 -0.1810 -0.2214  0.2385
22963W        W42497   4.702   4.513  10.550  0.0305  0.0833  0.1165
22964W        W42498  16.339  15.218  13.123 -0.1047  0.0514 -0.2212
22965W        W42499   2.287  15.046  13.984  0.3655 -0.2031 -0.3989
22966W        W42500  19.033  10.558   3.532  0.3115  0.0427 -0.0907
22967W        W42501   2.449   2.516  13.525 -0.0789 -0.1358  0.3142
22968W        W42502  14.753   4.108  10.971  0.1803 -0.2171 -0.0529
22969W        W42503   6.318   4.594  10.333  0.1258  0.0567  0.0484
22970W        W42504  17.560   5.119   0.875  0.0445 -0.1586 -0.2097
22971W        W42505  18.019  19.413   2.828 -0.0062  0.2011  0.2796
22972W        W42506  14.917   9.872   9.653  0.2268  0.0045 -0.0059
22973W        W42507   6.516  12.582  10.568 -0.1522 -0.3523 -0.1664
22974W        W42508  19.284  14.131  14.050 -0.0409 -0.0070 -0.2972
22975W        W42509   9.634  10.584  11.085 -0.0245  0.2205 -0.1072
22976W        W42510  15.750   4.206   1.930 -0.0167  0.1467  0.0654
22977W        W42511   6.218  17.424   0.553  0.2736 -0.2061 -0.1868
22978W        W42512  15.212  18.476   1.892 -0.0259  0.1878  0.1229
22979W        W42513   1.023  14.182  13.024 -0.1313 -0.4737 -0.0533
22980W        W42514   3.178  19.457   2.320  0.0860  0.0825 -0.0726
22981W        W42515  17.315  10.402   3.943 -0.2062  0.2479 -0.0172
22982W        W42516  11.315   1.043  13.581 -0.2137 -0.0501  0.2011
22983W        W42517  10.226   8.879   9.402  0.0286  0.0746  0.1981
22984W        W42518   7.921  16.598   2.359 -0.2978  0.1180 -0.2341
22985W        W42519  14.305   0.535   3.094 -0.0726  0.0673  0.1502
22986W        W42520  17.278  11.116  13.206 -0.1204 -0.0679  0.1487
22987W        W42521   8.688  12.046   9.937  0.1475 -0.1209  0.1272
22988W        W42522  16.679   8.621  10.825  0.0550  0.0045  0.0412
22989W        W42523   6.947  14.205   4.406  0.1255 -0.0351  0.2224
22990W        W42524  13.325   7.050  11.836 -0.3002  0.1514 -0.1208
22991W        W42525   2.198  16.137   9.137 -0.4855  0.1301  0.1795
22992W        W42526  15.059   8.970   1.689 -0.1502 -0.2530  0.1054
22993W        W42527   2.082   6.121   4.071  0.1126 -0.4445 -0.0451
22994W        W42528   8.458  17.817  11.817 -0.1198 -0.0401  0.2399
22995W        W42529  11.831  14.979   2.581 -0.0531 -0.0272  0.1315
22996W        W42530  17.314  10.011  12.470 -0.0997 -0.0125 -0.2802
22997W        W42531   6.160  19.261   0.301  0.1235 -0.2116 -0.0214
22998W        W42532  13.946  18.479   0.781  0.1064 -0.1256 -0.0426
22999W        W42533   8.945  15.289   1.804 -0.0209  0.1889  0.4309
23000W        W42534  13.202  11.546  11.283  0.2579  0.1521  0.2294
23001W        W42535   9.404   5.661  10.707 -0.1287 -0.1424 -0.1704
23002W        W42536  18.638   0.848   1.036 -0.2998  0.0798 -0.0146
23003W        W42537   1.680   4.096  10.602  0.0061  0.1517 -0.2248
23004W        W42538  17.451   0.383   0.095 -0.0847 -0.3869 -0.1805
23005W        W42539  14.762  19.154   3.595 -0.1712 -0.3005 -0.0576
23006W        W42540   0.535   3.769  12.378  0.4132 -0.2185  0.0685
23007W        W42541  13.882  16.292   1.091 -0.1866 -0.0700 -0.1122
23008W        W42542  13.458   0.612   2.096  0.1536  0.3465  0.1789
23009W        W42543   6.062   6.248  12.409  0.3530 -0.2239  0.0201
23010W        W42544   3.352  14.899   1.866  0.2549  0.1679  0.0851
23011W        W42545   6.913   9.456   0.687  0.0505  0.1356 -0.2089
23012W        W42546  15.754  11.741  12.956  0.1429 -0.3154  0.0947
23013W        W42547   7.872   5.343   0.835 -0.0720 -0.4386 -0.0231
23014W        W42548  11.246   2.186  10.395  0.0872 -0.1936  0.0194
23015W        W42549   8.803  13.640  10.831 -0.2467  0.0452 -0.3157
23016W        W42550   3.648  17.207   2.839  0.4890 -0.3495  0.1773
23017W        W42551   6.517  10.968  12.406  0.2322  0.1098 -0.1495
23018W        W42552   7.880   4.915   3.191  0.3078  0.0100 -0.0858
23019W        W42553   7.868  10.702  12.892  0.1254 -0.0996 -0.1650
23020W        W42554   8.385   8.189   3.944  0.0126  0.1263 -0.4050
23021W        W42555  13.297  12.185  11.983  0.0758 -0.0646 -0.2521
23022W        W42556  16.287   1.679   2.506 -0.3100 -0.1427  0.0599
23023W        W42557   9.792  12.970   2.195  0.0269  0.1872  0.1883
23024W        W42558  11.484   5.051   1.813 -0.0234 -0.2491 -0.0451
23025W        W42559   9.143  17.258   3.437  0.4366  0.0167 -0.3002
23026W        W42560   8.068   6.664  11.327 -0.2021  0.1144 -0.0518
23027W        W42561  18.258  17.652  12.372  0.1882 -0.4464  0.0736
23028W        W42562   2.264   8.216   0.011 -0.2096  0.0293 -0.1990
23029W        W42563  16.262  12.543   0.426 -0.2079 -0.2026 -0.0611
23030W        W42564  16.636  16.221  12.750  0.0319 -0.0140 -0.0089
23031W        W42565  17.858  16.369  12.429  0.1574 -0.1689 -0.1830
23032W        W42566  16.683   5.585   9.937  0.1396  0.0488  0.0604
23033W        W42567   1.075  10.221   0.349  0.1891 -0.0028 -0.0687
23034W        W42568   1.361  11.520   1.777 -0.0768  0.3655 -0.1606
23035W        W42569   8.949   6.158   2.261  0.0673 -0.0636 -0.3967
23036W        W42570   0.406  11.352   3.358 -0.0974  0.0693  0.0513
23037W        W42571   3.632   3.063  10.500 -0.1005  0.2104  0.1063
23038W        W42572   4.705   9.343   0.191 -0.0441 -0.2849  0.1645
23039W        W42573  13.513  14.717  12.202 -0.0389  0.0132  0.0360
23040W        W42574   1.954  15.559   0.869  0.0886  0.1345 -0.2621
23041W        W42575   0.258   8.204   1.269  0.0782 -0.1135  0.3799
23042W        W42576  17.249  11.004   0.440  0.0438  0.0855  0.1980
23043W        W42577   7.486   3.128  12.183 -0.2087 -0.0554 -0.0352
23044W        W42578  14.984  12.243   3.792  0.2131  0.1060  0.1310
23045W        W42579  12.623  14.429   1.797  0.4397 -0.1463 -0.0979
23046W        W42580   9.143   1.046   2.823 -0.0499 -0.0253 -0.2024
23047W        W42581   4.016  13.052  12.073  0.0304  0.1039  0.0783
23048W        W42582  10.627  18.473  12.767  0.0854 -0.1745 -0.2084
23049W        W42583   3.129   3.577   1.983 -0.1213  0.2384  0.2038
23050W        W42584  12.464   1.836  12.825 -0.0603 -0.1350 -0.2255
23051W        W42585   5.774  16.374  11.863  0.0085  0.1640  0.1271
23052W        W42586   5.307   2.730  10.506 -0.0293  0.2227  0.0873
23053W        W42587   7.338   5.813  12.050 -0.2321 -0.0785 -0.0686
23054W        W42588   5.515  13.542   1.137  0.3321 -0.0538  0.0059
23055W        W42589  13.844   2.371   2.537 -0.2166 -0.3773 -0.1384
23056W        W42590  14.800  10.251  13.969 -0.1617  0.1066 -0.2436
23057W        W42591   1.995   1.236   1.852 -0.0610  0.1141 -0.1425
23058W        W42592   2.595  15.648  12.887 -0.1533 -0.2352  0.4203
23059W        W42593   9.040   3.472  12.658 -0.0953 -0.0957  0.2257
23060W        W42594  12.055  13.618  11.770 -0.3568  0.0794 -0.0542
23061W        W42595   3.082  12.346   0.946 -0.0667  0.3117 -0.1247
23062W        W42596   8.185   8.286  13.069 -0.0200 -0.0955  0.0942
23063W        W42597  12.001  13.843   0.002  0.0911  0.1130  0.0797
23064W        W42598   5.499  15.421   0.543  0.2016 -0.1429  0.0338
23065W        W42599   2.549   7.861  13.521 -0.0136  0.3495 -0.1885
23066W        W42600  16.991   2.276   3.048 -0.2349 -0.2044 -0.0712
23067W        W42601   1.464  12.572  12.219  0.1189 -0.1639  0.2894
23068W        W42602  19.404   8.826  11.900 -0.2992  0.1304  0.2490
23069W        W42603   0.063   4.443   0.888 -0.0659 -0.1078  0.2389
23070W        W42604   9.566   3.644  11.877  0.1768 -0.4549  0.3604
23071W        W42605   8.371  17.068  11.210 -0.0423 -0.1367  0.1317
23072W        W42606  17.482   5.715   0.002  0.1067  0.2432 -0.0434
23073W        W42607   7.898   4.511   0.124 -0.2449  0.3478  0.1571
23074W        W42608  15.707  14.528   2.319  0.2444 -0.0330  0.0013
23075W        W42609   2.097  17.424   2.029  0.3787 -0.2637 -0.3118
23076W        W42610  18.688   8.309  10.675 -0.2948 -0.0104 -0.0926
23077W        W42611  11.793   5.874   2.837  0.1916 -0.0129 -0.1074
23078W        W42612  11.310   8.993  13.368 -0.1306  0.3156 -0.0646
23079W        W42613  17.828  17.148  10.728  0.0817 -0.3007 -0.0901
23080W        W42614  19.095  17.065   1.486  0.1096 -0.2206  0.0529
23081W        W42615  16.885  16.920   3.491 -0.2409  0.0207 -0.0540
23082W        W42616   0.070   4.339   2.065 -0.1537 -0.0952  0.3140
23083W        W42617  12.563   6.606  13.466  0.0952  0.3581  0.2044
23084W        W42618   4.084   5.172   2.314  0.1036  0.1298 -0.0819
23085W        W42619   0.339   7.690   1.055  0.1254  0.1542 -0.0461
23086W        W42620  10.177   9.446  10.446  0.2132 -0.1597 -0.2678
23087W        W42621   4.700   3.239   2.393  0.3836  0.0510  0.1615
23088W        W42622  14.459   2.612   8.994 -0.1409 -0.2165  0.1788
23089W        W42623   5.346  18.330  10.382  0.1485 -0.1788 -0.1276
23090W        W42624   1.902  11.894   2.661 -0.3222  0.0162 -0.0546
23091W        W42625  16.816   0.798   2.673  0.1125  0.0243 -0.0621
23092W        W42626   8.216   8.671   0.476 -0.2724  0.0665 -0.1021
23093W        W42627   4.605   6.234   1.738  0.0335 -0.0346 -0.3896
23094W        W42628   1.611   2.886  11.118 -0.1629  0.0742  0.1611
23095W        W42629  18.877  12.228  14.160 -0.3755 -0.0739 -0.3536
23096W        W42630  12.915   1.922  12.650  0.1875 -0.0936 -0.1973
23097W        W42631   2.291  14.025   2.551  0.2373 -0.1906  0.0041
23098W        W42632   4.919   6.666   3.068  0.0386  0.0099  0.1601
23099W        W42633   9.172   3.336  13.388 -0.1636 -0.0942 -0.0241
23100W        W42634  14.146  14.545  13.324  0.2264 -0.0762 -0.0835
23101W        W42635   9.468   1.348  12.026 -0.0495 -0.1057 -0.2041
23102W        W42636  15.651  19.095  11.260 -0.0294 -0.2177  0.0166
23103W        W42637  12.690   1.437  13.450 -0.2242 -0.0586 -0.0455
23104W        W42638   8.465   4.222  12.285 -0.1924 -0.0049 -0.2586
23105W        W42639   1.109   5.469   2.283 -0.1955  0.1029 -0.2352
23106W        W42640  12.026  18.534  11.770 -0.0413 -0.0695  0.1978
23107W        W42641  14.182  17.271   0.324  0.1937 -0.0149 -0.0641
23108W        W42642  10.675  19.108  13.972 -0.0283  0.1037 -0.1679
23109W        W42643  12.590  10.104  13.265  0.0207 -0.0129 -0.3093
23110W        W42644   0.840  13.792   2.276 -0.0047 -0.1568  0.1506
23111W        W42645   1.401   9.158  13.608  0.0571  0.0736  0.4311
23112W        W42646   7.285  13.067   3.069  0.1300 -0.3506  0.1155
23113W        W42647  11.245  17.908  12.239  0.2969 -0.1840  0.0291
23114W        W42648   5.577   3.229   1.057 -0.1172  0.0828 -0.3004
23115W        W42649   9.353  18.537  12.881 -0.1803 -0.2838  0.1664
23116W        W42650   2.473  17.780  13.369  0.1335  0.1592  0.0562
23117W        W42651   3.772   8.963   0.723  0.2853  0.0613 -0.2144
23118W        W42652   8.335   4.266  13.715 -0.0629  0.0700  0.1895
23119W        W42653   7.481  16.799   2.200 -0.0410 -0.0744  0.2641
23120W        W42654  17.279  10.658  10.037  0.0166  0.0566  0.0548
23121W        W42655   2.723   9.725   2.096  0.0898 -0.1325  0.1885
23122W        W42656  10.495   1.419   2.227 -0.0406 -0.3338 -0.2705
23123W        W42657   9.066  14.244   0.041 -0.0084  0.1051 -0.4523
23124W        W42658   6.439   5.669   3.654 -0.2910  0.3436 -0.0608
23125W        W42659  10.818   7.695   2.901  0.0106 -0.2347 -0.1193
23126W        W42660   5.102  16.249   0.425 -0.1449  0.2148  0.1455
23127W        W42661  14.380  11.060   0.632 -0.0698 -0.0646  0.2522
23128W        W42662   3.699   8.788   2.644 -0.0539  0.0590  0.2911
23129W        W42663   9.847  13.865   2.387 -0.1844 -0.0285 -0.1137
23130W        W42664   5.345  12.898  11.113 -0.0791  0.0446  0.1260
23131W        W42665  17.893   5.462  10.917 -0.0880 -0.0641 -0.1093
23132W        W42666   9.183  15.120   3.454  0.2006 -0.1014  0.2279
23133W        W42667  12.720  10.977   2.727 -0.1926  0.0991  0.0033
23134W        W42668   7.432   0.274   1.295 -0.1211  0.1846 -0.0832
23135W        W42669  15.057   7.412   0.996  0.1159  0.0295 -0.4341
23136W        W42670  19.044   8.575  12.257 -0.0815 -0.0328 -0.0853
23137W        W42671  10.950   0.995  12.390 -0.0576 -0.2660 -0.2026
23138W        W42672  19.012   1.378   0.541  0.1361  0.1519  0.0442
23139W        W42673   0.177  15.564  10.470  0.1473 -0.1279  0.0956
23140W        W42674   6.678   7.158   1.682 -0.0911 -0.1867 -0.0339
23141W        W42675  17.639   9.442   3.649 -0.3560  0.0920 -0.0689
23142W        W42676   9.307   4.884  11.803  0.0270 -0.3112  0.1460
23143W        W42677   4.570   1.302   9.885 -0.1296 -0.1441 -0.1590
23144W        W42678   2.379  12.668  10.488 -0.2233  0.3440  0.1267
23145W        W42679   9.807  14.954  10.611  0.0385 -0.0435 -0.0801
23146W        W42680  16.201  14.631  11.071  0.2978  0.0117  0.4493
23147W        W42681   8.504  12.324  12.752  0.0290 -0.4921 -0.0187
23148W        W42682   9.309   8.451   1.474 -0.1053 -0.0248 -0.0059
23149W        W42683   0.992  16.905  11.234  0.1337  0.0184 -0.4615
23150W        W42684   7.331  15.990  11.312  0.0669 -0.0493 -0.1820
23151W        W42685   1.116   0.840  13.941  0.1656  0.1143  0.2539
23152W        W42686  18.170   0.824   1.150  0.0027 -0.0761 -0.0536
23153W        W42687   3.407  17.351  12.397 -0.1964 -0.1106 -0.1093
23154W        W42688   3.443   0.427   2.269 -0.0447  0.0234 -0.1183
23155W        W42689  12.328  15.043   2.681  0.0980  0.2814  0.6712
23156W        W42690  13.950   7.812   2.440 -0.1663 -0.1744 -0.0410
23157W        W42691   3.877   8.374  12.242 -0.1312 -0.0878 -0.3074
23158W        W42692  18.830   7.068  11.078 -0.0702  0.1937  0.3795
23159W        W42693  15.418  11.797  11.958 -0.2569 -0.2446  0.0526
23160W        W42694   3.020   4.267  13.527 -0.2589  0.0099 -0.1804
23161W        W42695   2.566  16.382  14.370 -0.3506  0.3042  0.1043
23162W        W42696  17.319  10.525   0.396 -0.1097 -0.0054  0.0440
23163W        W42697   7.155   0.675   3.462 -0.0241 -0.2631 -0.0906
23164W        W42698   5.349   9.245  13.421  0.0119 -0.1539 -0.2110
23165W        W42699   1.169   4.354   0.336 -0.1501  0.1174 -0.0755
23166W        W42700   3.416   8.761   1.154  0.0527 -0.1139 -0.0713
23167W        W42701  13.392  11.077   0.200 -0.2169 -0.1225 -0.0087
23168W        W42702  10.411   6.057   0.193  0.1851 -0.2807  0.1897
23169W        W42703  12.950  10.495  12.067 -0.0554 -0.0759 -0.2086
23170W        W42704   4.074   4.109  12.478 -0.1160  0.0426  0.2401
23171W        W42705  16.295   9.709   2.446  0.0684 -0.4479  0.2152
23172W        W42706  12.654   1.012  11.121  0.4058 -0.0670 -0.0319
23173W        W42707   1.136   7.059   4.546 -0.1023  0.3957  0.1166
23174W        W42708  13.795  15.650   2.648 -0.0557  0.2358 -0.3631
23175W        W42709   1.712  10.213  10.875 -0.0334 -0.0423 -0.1200
23176W        W42710  18.120   4.944   3.480  0.3618  0.0773 -0.0839
23177W        W42711  19.332  15.541   2.782 -0.2057  0.2576  0.2224
23178W        W42712   2.638   6.780  11.432 -0.1614 -0.1531  0.4171
23179W        W42713   7.824   8.317   1.369 -0.1157  0.2473 -0.0498
23180W        W42714  19.019  13.582  11.466 -0.0132 -0.0041 -0.1184
23181W        W42715   0.817   7.962  10.755 -0.0450  0.1843  0.1842
23182W        W42716   2.562  12.108   2.176  0.1438 -0.0716  0.2404
23183W        W42717  14.739   8.540  11.345 -0.1612 -0.1862  0.1142
23184W        W42718   5.576   2.110  12.742 -0.0685 -0.0584  0.1130
23185W        W42719   4.638  18.752   4.035 -0.1713 -0.2303  0.2471
23186W        W42720   6.366  11.259  13.219  0.0309  0.1767 -0.1397
23187W        W42721  10.832  14.348   2.488  0.0416  0.1336  0.0963
23188W        W42722   4.320  10.580   5.195  0.1895 -0.1621  0.2060
23189W        W42723   6.616  17.096  13.703 -0.4459 -0.0392 -0.1962
23190W        W42724   0.454  13.525  10.440 -0.1043 -0.2863  0.2267
23191W        W42725  10.326   7.675  13.328  0.1775 -0.1365 -0.1128
23192W        W42726   5.882  19.050  10.851  0.1555  0.1372 -0.0847
23193W        W42727  16.577   6.089   1.461  0.4607  0.1745 -0.2431
23194W        W42728  16.408  18.470  12.805  0.1624  0.1530 -0.0309
23195W        W42729   8.191  14.156  13.074 -0.0335 -0.0148  0.2011
23196W        W42730   8.318   7.517   0.010 -0.0112  0.1222 -0.2897
23197W        W42731  11.685  11.010   1.976 -0.0008 -0.1021  0.5169
23198W        W42732  18.370  12.954   1.660  0.0732  0.1644 -0.1534
23199W        W42733  15.490   7.479   1.357  0.0596  0.2574 -0.0329
23200W        W42734   8.994   5.580  13.292 -0.0861  0.0116  0.0874
23201W        W42735  10.031   4.437  11.686  0.0508 -0.1146 -0.5707
23202W        W42736   7.084   0.082   3.632 -0.1378 -0.2856 -0.1153
23203W        W42737   4.845   6.886  13.116 -0.1668  0.1033 -0.2408
23204W        W42738   6.438  17.200  11.139 -0.2515  0.1367 -0.2487
23205W        W42739   1.334   6.461   3.170  0.1077  0.1870 -0.0987
23206W        W42740   0.658  10.958   4.101  0.0412  0.0681 -0.0816
23207W        W42741  18.779   3.336  11.282 -0.3220 -0.2182 -0.4108
23208W        W42742   5.498   1.247  11.772  0.0696  0.1975  0.2178
23209W        W42743   2.043  15.119  12.295  0.0969  0.0900 -0.3276
23210W        W42744  14.301   2.977   0.225 -0.0648 -0.1148  0.2916
23211W        W42745   8.573  15.232   4.022 -0.2826  0.0407  0.0175
23212W        W42746   0.957   3.383   1.345  0.2196 -0.0236 -0.0367
23213W        W42747   7.986  13.152   0.991  0.0018 -0.0058  0.0142
23214W        W42748   1.456   1.180   1.198 -0.1071  0.0251 -0.0568
23215W        W42749   3.546   1.716   0.563  0.0837  0.1773 -0.2559
23216W        W42750  19.248  11.219   3.807  0.3488  0.3799 -0.3508
23217W        W42751   5.423  12.979  13.163  0.2523 -0.0468  0.0672
23218W        W42752   0.072  16.771  13.897 -0.0381  0.1204  0.1530
23219W        W42753  19.165   9.711  12.016 -0.2612 -0.2551 -0.2059
23220W        W42754   0.321   8.475   0.026 -0.1939  0.2513  0.2896
23221W        W42755   2.862   6.266  14.286 -0.2850 -0.2122 -0.2019
23222W        W42756   9.596   9.730  13.494 -0.2605  0.2289 -0.0660
23223W        W42757   3.406  16.787   1.069  0.0782 -0.5725 -0.2577
23224W        W42758  16.805  11.056   4.380  0.0245 -0.1593 -0.2613
23225W        W42759   5.706   0.205   3.595 -0.0466 -0.1185 -0.0348
23226W        W42760  12.546  13.875  10.885  0.0223  0.2253 -0.2290
23227W        W42761   8.249  10.665   1.822  0.3518 -0.1836  0.0586
23228W        W42762   3.509  15.109   9.434 -0.0589  0.3932 -0.0136
23229W        W42763  17.595  13.866  10.313  0.1882 -0.1905  0.2755
23230W        W42764   9.908   5.077   3.428 -0.2107 -0.1827 -0.0064
23231W        W42765   3.627   3.016  13.264 -0.1407  0.2106  0.3664
23232W        W42766   2.829  16.974   4.303  0.1430 -0.1585 -0.1818
23233W        W42767   9.462  17.084  11.390 -0.2488 -0.2656  0.0801
23234W        W42768   2.455  13.762   3.923 -0.0397  0.3660  0.1045
23235W        W42769   5.357   5.242  13.889  0.0263 -0.0951 -0.1041
23236W        W42770   3.632   8.282   2.322  0.1806  0.0671 -0.1865
23237W        W42771   4.818  19.137   3.659  0.0421 -0.1949  0.3199
23238W        W42772  11.391   2.343   2.402  0.0875 -0.1170 -0.1481
23239W        W42773  16.172   0.305   1.314 -0.2565  0.2436 -0.0772
23240W        W42774  18.530  12.203   3.388 -0.2140  0.0925  0.0469
23241W        W42775   9.751  11.908  12.292  0.2182  0.0149  0.2240
23242W        W42776   1.571  11.652  10.533  0.4139 -0.1905 -0.1940
23243W        W42777  12.803  12.267   2.140  0.0494  0.0954 -0.1097
23244W        W42778  13.017  16.229  11.120 -0.0154 -0.0226  0.1935
23245W        W42779   0.495  18.571  11.181  0.0606  0.0325  0.1619
23246W        W42780  11.936  16.815  11.421  0.0065 -0.1001  0.2651
23247W        W42781  17.240  10.825  11.295 -0.0530  0.0680 -0.1394
23248W        W42782  13.451  12.202  12.470  0.2961 -0.0994 -0.1919
23249W        W42783   0.391  10.151   3.575  0.0849 -0.0929 -0.2536
23250W        W42784  17.208  17.665  10.594 -0.0841 -0.1829  0.1130
23251W        W42785   6.421  16.622  11.942  0.1470  0.0000  0.0284
23252W        W42786   5.233   5.283   3.829  0.2850  0.0346 -0.1212
23253W        W42787   1.739  19.462   3.669  0.0784  0.1429  0.0006
23254W        W42788  13.717   5.371   5.223  0.2233  0.1392 -0.1281
23255W        W42789   5.866  14.329  10.811 -0.1474 -0.1142  0.0965
23256W        W42790   8.949  14.847   0.060  0.1222  0.2315 -0.1888
23257W        W42791  19.435  12.273  11.175 -0.1499  0.2553 -0.2574
23258W        W42792  12.134   4.841   9.688 -0.0395  0.1313  0.0111
23259W        W42793  15.833  15.403   9.116  0.2414 -0.1203  0.1633
23260W        W42794   8.408   8.085   9.859 -0.1336 -0.0149 -0.0083
23261W        W42795  14.873   9.587  14.100  0.1797  0.0041 -0.2364
23262W        W42796   0.890  19.462  11.159 -0.0911 -0.2407 -0.0858
23263W        W42797   0.443  12.373  10.035  0.0119  0.0856 -0.2602
23264W        W42798   9.115   7.432   0.474 -0.0533 -0.2859 -0.0906
23265W        W42799  12.711  13.335  10.488 -0.0189 -0.1086 -0.0431
23266W        W42800   9.756  13.372   2.563 -0.0695  0.0845  0.4809
23267W        W42801  12.485  18.820   8.955  0.1430 -0.0126 -0.0858
23268W        W42802  13.174   1.879  10.289  0.0253  0.1481  0.0903
23269W        W42803   9.895  13.319  14.112 -0.1104 -0.2953  0.1065
23270W        W42804  13.124   3.240   0.049 -0.0693  0.3860  0.0942
23271W        W42805  13.236  18.866   0.150  0.0048  0.2051 -0.3076
23272W        W42806   6.451  18.458   2.422 -0.1635 -0.1345 -0.1146
23273W        W42807  17.373   8.490  13.413 -0.1546  0.2172  0.3409
23274W        W42808  17.743   9.021   1.265 -0.1836 -0.4964 -0.1369
23275W        W42809  13.775  10.379  13.885  0.1732 -0.0939 -0.0615
23276W        W42810  16.152  10.695   2.101  0.1035 -0.2369 -0.0642
23277W        W42811   2.746   2.802   1.674 -0.0126 -0.1949 -0.0300
23278W        W42812  13.196   7.390  12.251 -0.2233 -0.2080  0.0517
23279W        W42813  12.897   2.843   4.453  0.0415 -0.0279  0.1335
23280W        W42814  13.627   6.664   0.835  0.5491  0.0049  0.1671
23281W        W42815   2.071   9.612   1.088  0.1195  0.0530 -0.0227
23282W        W42816   2.249  15.831   1.149  0.1060 -0.2397 -0.4522
23283W        W42817  17.465  16.098  12.681 -0.1125 -0.1313  0.5554
23284W        W42818   9.354  19.346   0.322 -0.2312 -0.0603  0.0849
23285W        W42819   4.412  19.485  12.098  0.1453 -0.0069 -0.2143
23286W        W42820   0.362  14.867   1.620 -0.5657  0.1155 -0.1772
23287W        W42821  17.044  10.777   0.816 -0.0079 -0.0628  0.1118
23288W        W42822  11.658  11.226   4.096  0.0326 -0.2599 -0.4455
23289W        W42823   0.227   6.643  13.184  0.0230 -0.0692 -0.1080
23290W        W42824  12.647  11.773   3.390  0.0021 -0.1612  0.1008
23291W        W42825   5.302   2.856   3.279 -0.0374  0.0648 -0.3480
23292W        W42826  10.512   7.634  11.895 -0.1924 -0.0990 -0.2179
23293W        W42827   2.334  18.059   0.705  0.0385  0.3208 -0.0423
23294W        W42828  11.573  13.537   5.192  0.4915  0.1448  0.1069
23295W        W42829  15.209  11.404  13.790 -0.0506  0.0190  0.2503
23296W        W42830   5.938   9.067  13.281  0.4326  0.0016  0.0531
23297W        W42831  12.939  12.662   3.333  0.4193  0.2925 -0.1094
23298W        W42832  12.540  18.926   1.431 -0.1490  0.3048  0.0106
23299W        W42833   2.067  14.257   0.233 -0.1162 -0.0696 -0.0804
23300W        W42834   3.244  10.318   0.781  0.0537 -0.2587 -0.0569
23301W        W42835  11.479  15.149   0.449  0.0017  0.0015  0.0026
23302W        W42836  13.622  11.793   1.775 -0.0667  0.1127 -0.2749
23303W        W42837  12.200   2.276   3.948 -0.0263 -0.1404  0.1356
23304W        W42838   9.931  17.979  11.068 -0.0587  0.1707 -0.1433
23305W        W42839   6.389  19.431  10.543 -0.0019 -0.0513 -0.1617
23306W        W42840  11.542  11.245  10.279  0.1062  0.1822  0.1153
23307W        W42841   2.190   4.892   2.910  0.1082  0.0223  0.0265
23308W        W42842   4.567   5.099  10.883 -0.0860 -0.1059  0.2802
23309W        W42843  18.901   8.786  11.796  0.1992  0.0498 -0.1410
23310W        W42844  15.927  10.024   2.817 -0.0312 -0.0252  0.0064
23311W        W42845  15.191  18.066  11.993 -0.4512  0.4595 -0.0528
23312W        W42846  18.613  15.863   2.850 -0.0644  0.0675 -0.2107
23313W        W42847   6.303   0.415  14.070  0.0558  0.1649 -0.1361
23314W        W42848   4.479   5.097   1.971 -0.1630  0.1807  0.0346
23315W        W42849   2.293   7.927   1.315 -0.1699  0.2744 -0.2079
23316W        W42850   8.356   9.346   1.682  0.0058  0.0594  0.0468
23317W        W42851  19.045   8.229  14.085 -0.2132  0.2737 -0.1604
23318W        W42852   2.974   6.925  13.952  0.1594 -0.0027  0.1407
23319W        W42853   2.464  16.317  10.932  0.2245  0.0207 -0.3265
23320W        W42854   6.980   8.436   1.412  0.0899 -0.2526  0.1526
23321W        W42855  17.322   5.705   2.291  0.1443  0.1390 -0.2831
23322W        W42856  10.493   9.246   2.520 -0.1561  0.1890 -0.0376
23323W        W42857   8.528   3.912   3.415  0.1250  0.5621 -0.3363
23324W        W42858   6.545  14.095  13.147 -0.0395 -0.3546 -0.2192
23325W        W42859   9.522  17.568   3.083 -0.0041 -0.1321  0.1214
23326W        W42860   5.240   2.906   2.721 -0.0247  0.0512 -0.2777
23327W        W42861  15.806  18.296   2.628  0.0439  0.2216 -0.0752
23328W        W42862  12.973  10.071   3.898 -0.0350  0.1418 -0.0176
23329W        W42863   3.537   9.000  11.380 -0.0765 -0.0467  0.0621
23330W        W42864   2.117   2.401   0.887 -0.2134  0.0086  0.1664
23331W        W42865   9.888   8.669  13.593 -0.0191 -0.1279 -0.2315
23332W        W42866   4.402  11.672  11.151 -0.1892  0.0488  0.2983
23333W        W42867  16.374   1.963  11.952  0.0928  0.1756 -0.0014
23334W        W42868  15.905  13.723  12.643  0.2619  0.1636 -0.0102
23335W        W42869  16.383  11.837  11.081 -0.0643  0.0223 -0.0977
23336W        W42870  12.167  13.736  12.573  0.0738  0.2763 -0.1881
23337W        W42871   5.376  10.856   2.258 -0.2860 -0.0062  0.1309
23338W        W42872   7.837   6.583  12.116  0.0948 -0.1346 -0.1275
23339W        W42873  13.741  17.626  12.854  0.1629 -0.0639 -0.1725
23340W        W42874  13.890  11.555   3.914 -0.3902 -0.4054  0.0566
23341W        W42875   0.467  16.577  10.713 -0.1380 -0.2029  0.1299
23342W        W42876   0.020  15.665  11.339 -0.2705 -0.0169 -0.0899
23343W        W42877   7.628   5.067   2.053 -0.0075  0.3484 -0.0890
23344W        W42878   9.601   1.844  10.614 -0.0802 -0.1051 -0.0530
23345W        W42879   6.900   3.446  14.042  0.6090  0.1301  0.0484
23346W        W42880   0.948   0.584  12.999 -0.4223  0.2751  0.0797
23347W        W42881   7.425   5.948   4.025  0.0479  0.1485  0.3813
23348W        W42882   4.802  16.647   3.353 -0.0925 -0.0150  0.1415
23349W        W42883   4.622  18.121  13.246 -0.0141 -0.4384 -0.2628
23350W        W42884  17.394  17.505  12.084  0.2424  0.0806  0.0321
23351W        W42885  10.278  15.445   1.444 -0.0933 -0.0574 -0.1523
23352W        W42886  14.983   9.443   0.461 -0.0094 -0.3815 -0.1304
23353W        W42887  14.136   4.784   4.568 -0.1378 -0.1975 -0.0673
23354W        W42888  15.902   0.356  10.503  0.1122 -0.1982 -0.0692
23355W        W42889  10.236   6.152   0.689 -0.0156  0.4423 -0.4425
23356W        W42890   6.619   3.155  11.080  0.3207 -0.0172  0.1928
23357W        W42891  14.442   1.447   0.762  0.3364  0.0034  0.0201
23358W        W42892   8.996   8.214   0.141  0.0547  0.1838 -0.2051
23359W        W42893  11.077  15.843  12.550  0.2948 -0.1943 -0.0421
23360W        W42894   2.270  11.225  11.030 -0.0194  0.3425  0.0664
23361W        W42895   6.397   0.545   2.388 -0.1428 -0.2007  0.3372
23362W        W42896   5.153  11.700   1.672  0.2773 -0.0410  0.0061
23363W        W42897   7.951   7.758   0.223 -0.2111 -0.0803  0.0997
23364W        W42898  18.588   6.045   2.395  0.1068  0.3735  0.2925
23365W        W42899   4.186  13.922  12.564  0.0466 -0.1236 -0.0456
23366W        W42900   4.378  15.117  10.654 -0.0042  0.2049  0.4429
23367W        W42901  16.420  19.108   4.870 -0.0759  0.1063  0.1209
23368W        W42902  10.853   7.872   3.411 -0.4549  0.2222  0.0887
23369W        W42903   6.766   5.275  13.125 -0.0854  0.2690  0.0475
23370W        W42904  11.806  14.885  11.690 -0.0258 -0.2307 -0.2880
23371W        W42905  10.463   7.059   2.035  0.2200  0.3584  0.0249
23372W        W42906  18.835   2.007  13.842  0.1388 -0.1930 -0.1061
23373W        W42907  19.476  11.142   0.597  0.0430  0.1169 -0.0157
23374W        W42908   5.582  13.068  13.931 -0.0722  0.2629  0.0076
23375W        W42909  19.281  10.843   1.815 -0.1167  0.0211  0.0694
23376W        W42910  18.850  13.130  11.379  0.1033 -0.3631 -0.1404
23377W        W42911   2.749  13.134  14.174  0.0790  0.1376  0.2975
23378W        W42912   2.845   2.346  11.294  0.0384  0.0637  0.0822
23379W        W42913   7.712   0.933   1.514  0.0709 -0.4105  0.1946
23380W        W42914   2.374  11.641  12.608 -0.0134 -0.0146  0.1597
23381W        W42915  11.096   1.055  14.031  0.2153  0.1728 -0.2654
23382W        W42916  14.240  14.521   2.020  0.1954 -0.2670 -0.0244
23383W        W42917  12.379  11.146   1.476 -0.0369  0.2494 -0.1574
23384W        W42918   2.144  11.702  11.276 -0.1941 -0.3244  0.3660
23385W        W42919   4.991   2.910   9.133 -0.1047  0.2166 -0.0289
23386W        W42920  19.096  18.871  13.861  0.1753 -0.3820  0.1594
23387W        W42921   8.978   9.967   1.881  0.1322  0.0152 -0.0339
23388W        W42922  13.206  13.042  12.924  0.0906  0.2146 -0.1621
23389W        W42923  19.120   5.807  14.109  0.0136  0.0313 -0.0877
23390W        W42924   3.027  10.736  10.809 -0.0301 -0.1609  0.2289
23391W        W42925   5.113   5.624   3.249  0.2248  0.1889 -0.2267
23392W        W42926   5.019   5.310   2.668 -0.1466 -0.3073 -0.1902
23393W        W42927   8.913  11.495  12.554 -0.0689 -0.0090 -0.3466
23394W        W42928  14.093   5.407  14.236 -0.0213 -0.2526  0.3027
23395W        W42929  10.270   4.707   3.303  0.0905  0.0551  0.0534
23396W        W42930   8.051  15.243   2.070  0.2208 -0.0166 -0.1687
23397W        W42931  14.286   2.266   0.640  0.1055  0.2184 -0.2236
23398W        W42932  12.537   4.448  12.091  0.1154  0.0747 -0.3565
23399W        W42933  13.299  13.195   1.996  0.4502 -0.0055  0.1777
23400W        W42934  16.420  16.408  13.714 -0.1420 -0.2516  0.0458
23401W        W42935  11.402  14.616  12.910  0.0875  0.0463  0.2198
23402W        W42936   5.044  12.701  12.084 -0.1218 -0.1506 -0.5130
23403W        W42937  11.230  11.543  12.199  0.1628  0.0050 -0.0162
23404W        W42938   5.372  10.792   3.549 -0.2811  0.2300  0.1583
23405W        W42939   4.740  13.742  10.938  0.2025  0.1107 -0.1237
23406W        W42940   6.396   9.585   1.506 -0.1021  0.0596 -0.1576
23407W        W42941  13.609   8.175  10.816  0.1150 -0.1561 -0.2587
23408W        W42942   3.946  10.744   0.533 -0.2698  0.1574  0.2215
23409W        W42943  15.184   9.758   3.135  0.4251 -0.0052  0.1441
23410W        W42944  11.043  11.951   1.968  0.0918  0.0983  0.5577
23411W        W42945   8.526   8.894   2.463 -0.2287  0.1487 -0.1563
23412W        W42946  15.632   5.732   2.761 -0.1006 -0.1578 -0.0283
23413W        W42947  12.252   8.820   4.069 -0.0799 -0.0921  0.0344
23414W        W42948  17.348   8.524  12.789  0.1652  0.0609  0.0666
23415W        W42949  10.669  12.473  12.818 -0.1009 -0.1053  0.2188
23416W        W42950  14.050  19.350  12.648 -0.1440  0.2128 -0.1761
23417W        W42951  15.064   0.072  12.780 -0.0461 -0.2534 -0.1464
23418W        W42952  15.600  13.696   0.762  0.1976  0.0783  0.1760
23419W        W42953  15.005  14.884  13.186  0.1110  0.1696 -0.0467
23420W        W42954  14.363   5.856  14.179  0.2570  0.0750  0.0478
23421W        W42955  18.656  14.437   3.510 -0.1893  0.0413  0.0803
23422W        W42956  11.726  19.435  11.077 -0.0622 -0.1219 -0.1294
23423W        W42957  15.695   1.388   3.551 -0.3822 -0.2681 -0.0589
23424W        W42958   2.546   6.493   3.985 -0.0796 -0.0912  0.1124
23425W        W42959   7.602   5.775  11.542 -0.2903 -0.0351  0.0614
23426W        W42960   6.080   0.427  10.681 -0.3384  0.3300 -0.0830
23427W        W42961   6.319  14.664   1.116  0.1846  0.3815  0.3616
23428W        W42962   7.253   1.751   3.716 -0.0117 -0.2252 -0.1026
23429W        W42963   5.444  18.769   2.076  0.0743  0.2731 -0.0027
23430W        W42964   8.284  12.026  11.500  0.0937  0.0208  0.0202
23431W        W42965  13.323  17.187   3.496  0.1000 -0.0148 -0.1099
23432W        W42966  12.567  10.992  11.985 -0.1325 -0.1746  0.2078
23433W        W42967  19.090  11.502   4.876 -0.1795 -0.0952 -0.0224
23434W        W42968   4.333   6.459   3.862 -0.2531 -0.1550  0.2511
23435W        W42969   3.815  15.403  11.981 -0.0040  0.2213  0.2856
23436W        W42970   4.881  19.013  13.525  0.0686  0.2036 -0.0832
23437W        W42971   4.320  16.987  12.717  0.2672  0.1257  0.3300
23438W        W42972   3.833  16.862   1.239 -0.0233 -0.3765 -0.0525
23439W        W42973   7.841   5.974  13.665 -0.0380  0.1408 -0.0212
23440W        W42974  11.214   7.330  13.738  0.1744  0.0987  0.1783
23441W        W42975  18.245   9.783   2.393 -0.1423 -0.1021  0.1305
23442W        W42976  14.749  13.373  14.325 -0.2315 -0.5253 -0.1699
23443W        W42977   5.944  16.836  11.965 -0.1190  0.0953 -0.1381
23444W        W42978  18.440  12.522  11.751 -0.1517  0.1295 -0.0029
23445W        W42979  11.114  10.174   3.179  0.2361 -0.0763  0.1400
23446W        W42980   9.894  16.765  11.172  0.0603  0.2349 -0.4038
23447W        W42981   1.451   5.499   1.844  0.3711 -0.0369 -0.2213
23448W        W42982   0.965  13.917  13.895 -0.0311  0.1085  0.0449
23449W        W42983   3.931   9.506   4.418  0.0127 -0.2161  0.1652
23450W        W42984  11.905  10.425   0.811  0.0546  0.2538  0.0012
23451W        W42985   3.829   4.091  10.446  0.0009 -0.3206 -0.0589
23452W        W42986   5.867   9.133   1.288 -0.0196 -0.0627 -0.2413
23453W        W42987   8.389   7.478   3.279 -0.5578  0.2911 -0.4865
23454W        W42988   0.972  13.661  11.234 -0.2527  0.0603 -0.0402
23455W        W42989   4.444   2.214   3.146 -0.3420  0.1603  0.1666
23456W        W42990   1.137   4.928  12.491 -0.0289 -0.1137 -0.1026
23457W        W42991   8.723   2.744   0.818  0.2925 -0.3288  0.0238
23458W        W42992  17.131  12.486  11.390  0.2876  0.1759  0.1177
23459W        W42993   2.155  18.977   1.268  0.1182 -0.2313 -0.2002
23460W        W42994  13.053  19.061  10.122 -0.1241 -0.3383  0.0996
23461W        W42995  15.872   1.890   0.270  0.1380 -0.0157 -0.0050
23462W        W42996  10.267   0.405  12.723 -0.0950 -0.6146 -0.1591
23463W        W42997   2.824  10.439  14.340 -0.1625  0.2332  0.2275
23464W        W42998   6.306  10.314   0.627 -0.1141 -0.1203 -0.4356
23465W        W42999   0.398  10.548  11.414  0.1626 -0.0648 -0.3376
23466W        W43000   1.645   9.289  10.906  0.0338  0.3067  0.1317
23467W        W43001   4.344   5.311   2.744  0.3225 -0.0326 -0.2097
23468W        W43002   2.551  12.947  11.659  0.0325  0.0941  0.2860
23469W        W43003  16.390   5.686   3.773 -0.3516 -0.2083 -0.0906
23470W        W43004   7.097   6.052   2.948 -0.1537 -0.4522  0.2302
23471W        W43005  15.527  11.059  10.312 -0.1221 -0.0034  0.1528
23472W        W43006  14.103  13.260   3.217  0.1768 -0.1263 -0.3894
23473W        W43007   9.212   5.478   1.242 -0.4953 -0.2012 -0.3037
23474W        W43008  18.144  16.237  13.390  0.0359  0.0492  0.4681
23475W        W43009  14.321   6.945   0.473 -0.0923  0.3638 -0.0067
23476W        W43010   1.612   3.178  11.666 -0.2541  0.2457 -0.0241
23477W        W43011  12.245   7.644   3.910  0.0217 -0.2167 -0.3010
23478W        W43012  16.564   0.073   1.452  0.1175  0.1011 -0.0276
23479W        W43013   8.880   3.059  13.068 -0.0914 -0.2367 -0.2614
23480W        W43014   7.955   8.496  10.498 -0.1650 -0.2771  0.3781
23481W        W43015  13.214  14.986  10.374  0.2390  0.1207 -0.0753
23482W        W43016   9.685  19.376   1.651  0.0301  0.2458 -0.2488
23483W        W43017  15.276  16.635  13.329 -0.1188  0.2098 -0.1834
23484W        W43018   2.170  19.302   0.426  0.0529 -0.1729 -0.1561
23485W        W43019  10.694   5.034   1.082 -0.2696 -0.3350 -0.2305
23486W        W43020   6.702  17.624   0.963  0.1629  0.4656 -0.1080
23487W        W43021   5.325   7.605   0.893  0.0391 -0.2530  0.0150
23488W        W43022  19.153  11.618   1.441 -0.1599  0.3425  0.3160
23489W        W43023   4.775   5.943  11.001 -0.1930 -0.2263  0.2584
23490W        W43024   5.058   7.270  12.594 -0.0532  0.2308  0.2450
23491W        W43025  15.625  14.346   1.436 -0.1327 -0.0295  0.1279
23492W        W43026   5.264  15.787   2.693  0.0464 -0.0166 -0.0628
23493W        W43027   6.954   4.635   3.894  0.1624  0.0900 -0.0679
23494W        W43028  11.840   1.997  13.488 -0.1236 -0.1324  0.3456
23495W        W43029   0.033  16.372   2.166 -0.5093 -0.1664 -0.0581
23496W        W43030  12.801   3.844   2.859  0.0732  0.2371 -0.1022
23497W        W43031  11.050  10.665   1.207  0.1144  0.4101  0.0375
23498W        W43032  18.526   2.288  12.365 -0.1578 -0.1501  0.0772
23499W        W43033  10.575  13.842   3.452 -0.0592  0.1171  0.1594
23500W        W43034  19.416  10.689   2.286  0.1319  0.3156  0.1446
23501W        W43035  15.520  11.199   2.216 -0.0690 -0.1334 -0.3834
23502W        W43036  16.871  18.874   9.911  0.0255  0.0836  0.2233
23503W        W43037  14.061   6.707   2.201  0.1169  0.1873  0.1468
23504W        W43038   6.173  11.282  14.061 -0.0800 -0.1359 -0.1123
23505W        W43039  11.788  11.419  13.379 -0.0552 -0.1734 -0.1795
23506W        W43040   9.684  18.433  10.414  0.0186  0.1930  0.1165
23507W        W43041  11.902   5.790   0.117 -0.0332  0.2016  0.1663
23508W        W43042   7.455  18.616  13.122 -0.0775 -0.0870 -0.0908
23509W        W43043  18.078   6.556   0.312 -0.0222  0.0947 -0.1571
23510W        W43044   8.610  17.037   2.623  0.2291  0.0696 -0.2688
23511W        W43045  18.434   0.046   3.633 -0.2397  0.1964  0.0334
23512W        W43046   0.286  11.871   3.174 -0.2495  0.3340 -0.0628
23513W        W43047   2.942  13.630   0.541 -0.1784  0.1448 -0.0622
23514W        W43048   4.885   1.651  13.951  0.1459  0.0236 -0.1621
23515W        W43049  15.429  13.644  12.512 -0.2299  0.1340  0.2627
23516W        W43050   6.440   8.183  11.922  0.0263  0.0172  0.2262
23517W        W43051   2.179  16.488  10.155  0.1586 -0.0137  0.0315
23518W        W43052   9.235   9.822   2.437 -0.0795 -0.0597 -0.2894
23519W        W43053  12.115   8.785  11.221  0.0975  0.4215 -0.0785
23520W        W43054  12.961   0.258   2.140 -0.0577 -0.0794  0.3397
23521W        W43055   1.534   4.708  13.286 -0.2308 -0.0122 -0.1290
23522W        W43056  12.206   1.426   1.212 -0.1081  0.2121 -0.0486
23523W        W43057   2.166  13.788   0.019  0.0730 -0.0525  0.2303
23524W        W43058  11.302  13.176  11.152 -0.1107  0.2148  0.1618
23525W        W43059  12.895   5.597  13.256 -0.0508  0.0728 -0.3048
23526W        W43060  15.476  17.518   0.688 -0.0439 -0.2413  0.1876
23527W        W43061   0.634  17.568   1.797 -0.0098  0.1001 -0.0424
23528W        W43062   8.105   0.840   3.715 -0.2982  0.0437 -0.1185
23529W        W43063  14.388  15.935  10.494  0.2390  0.1162 -0.2247
23530W        W43064   4.622  13.487   2.199  0.1670 -0.2368  0.0118
23531W        W43065  14.068   3.714   1.151 -0.0310  0.0969  0.1313
23532W        W43066   5.864  16.699   4.146 -0.1614 -0.2390  0.0487
23533W        W43067   2.491  12.465   3.366  0.0666  0.0718  0.0280
23534W        W43068   9.116   2.429  12.505 -0.0011  0.4472 -0.5595
23535W        W43069  15.111  16.755   0.462  0.3808  0.0222  0.0013
23536W        W43070   8.317  11.954   5.333 -0.3059 -0.0343  0.0630
23537W        W43071  12.741  17.574  13.002 -0.1242 -0.2659  0.1374
23538W        W43072   0.233  10.285   2.989 -0.0833 -0.0624  0.1193
23539W        W43073   6.635   5.566   0.838  0.3272  0.0140 -0.0457
23540W        W43074   5.256  15.036  13.633 -0.1338  0.4019  0.0773
23541W        W43075  16.739  15.199   8.983 -0.1406  0.0338 -0.2366
23542W        W43076   4.197  10.715   4.765 -0.2567 -0.3638  0.0434
23543W        W43077  13.777  16.911   0.288 -0.5293 -0.1232 -0.2040
23544W        W43078   8.809  15.808  12.085  0.0362  0.2628 -0.0763
23545W        W43079  16.743   3.970   2.764 -0.1468  0.1349 -0.0498
23546W        W43080   9.091   6.279   0.034  0.0361 -0.1998 -0.0262
23547W        W43081   5.145  12.982  13.726 -0.4788  0.0322  0.1971
23548W        W43082   0.981  18.979   2.801 -0.0523 -0.1004  0.0175
23549W        W43083  15.792   6.643   1.523 -0.0152 -0.2431 -0.0720
23550W        W43084   9.467   1.029  12.514  0.1302 -0.2601  0.0874
23551W        W43085   0.858   3.772  10.125  0.0762 -0.1967  0.3350
23552W        W43086  13.167   3.605   0.894  0.1270 -0.0287  0.2248
23553W        W43087   9.303  17.608  12.549 -0.1634  0.2128  0.1003
23554W        W43088   9.038   0.142   0.045  0.0182  0.1369 -0.0699
23555W        W43089  13.824   2.323  10.186 -0.1597  0.1873  0.3189
23556W        W43090   7.599   7.062   3.675  0.1245 -0.1994 -0.0381
23557W        W43091  13.077   2.757  11.695  0.2563  0.0190 -0.0531
23558W        W43092  18.796  16.583   0.157 -0.0404  0.0121 -0.2517
23559W        W43093  16.891  10.155  12.124 -0.1682  0.2534  0.0286
23560W        W43094  17.750   7.126   0.930 -0.0129 -0.1367 -0.3402
23561W        W43095  13.598   2.628  13.628  0.0368 -0.1112 -0.0543
23562W        W43096   9.821  16.491   0.218 -0.0407  0.0155  0.3394
23563W        W43097   8.287  17.522   4.673  0.0418  0.3706 -0.2346
23564W        W43098  11.617   0.316  10.289  0.0569  0.0671 -0.2722
23565W        W43099   1.549   7.972  10.021 -0.1478  0.2477  0.1128
23566W        W43100   0.539  17.156   3.457 -0.1773  0.4469 -0.1016
23567W        W43101   2.722  15.586  10.492 -0.0403 -0.0108  0.2371
23568W        W43102   4.525   4.360  11.492 -0.0272  0.0120 -0.1090
23569W        W43103   4.945   1.799   2.132 -0.1925 -0.2997  0.1888
23570W        W43104  12.268  17.934   1.584 -0.1541  0.0489 -0.1538
23571W        W43105   4.943  17.074  13.232  0.3970  0.2890  0.2335
23572W        W43106   3.941   4.762  14.314 -0.0942 -0.1829  0.0387
23573W        W43107  14.426  14.555   4.749 -0.1204  0.3383  0.1890
23574W        W43108  11.857   4.208   2.678 -0.0064 -0.1672  0.1235
23575W        W43109  15.544  16.670  13.842 -0.1729  0.2132  0.0962
23576W        W43110  11.071  12.966   0.034 -0.1347 -0.1096  0.0806
23577W        W43111   8.273  13.664   4.397 -0.0868  0.3563 -0.0742
23578W        W43112   4.648  13.952  11.582 -0.3543 -0.1014 -0.2102
23579W        W43113  17.236  11.923  11.354  0.3812  0.3477 -0.3802
23580W        W43114   9.824   8.183  11.749  0.3886 -0.2452 -0.2264
23581W        W43115  14.550   9.445  12.318 -0.1849 -0.0132 -0.3867
23582W        W43116  15.801  17.752   2.739 -0.0335 -0.1037 -0.0531
23583W        W43117   3.064  17.048  12.261 -0.0326 -0.0993  0.0177
23584W        W43118  15.940  11.951   2.370 -0.1040  0.0936 -0.0763
23585W        W43119   0.472   3.071   1.295  0.0291  0.1607  0.2019
23586W        W43120   0.754   5.517  13.246 -0.2914  0.0442  0.0079
23587W        W43121   6.274   4.703  10.823 -0.3748  0.0401  0.1557
23588W        W43122   1.307   6.378   2.197  0.1297  0.1465  0.2755
23589W        W43123   5.079   7.481  12.010 -0.3776 -0.2825 -0.1014
23590W        W43124   9.623  15.509  13.138 -0.3553  0.2326  0.1432
23591W        W43125   6.908   7.710   4.691 -0.1851 -0.1508 -0.1213
23592W        W43126  13.187   0.202  13.166 -0.1765 -0.0290  0.2210
23593W        W43127   1.981   5.896  12.254  0.0097 -0.0983 -0.0131
23594W        W43128  11.489   0.636  11.223  0.1367  0.2226 -0.1730
23595W        W43129   8.733   3.540  11.659  0.4028  0.0801 -0.3162
23596W        W43130   4.946  16.543  11.149 -0.0112  0.1850  0.2196
23597W        W43131   0.750  13.777  14.306 -0.1684 -0.0240  0.2194
23598W        W43132  10.170  17.242  12.079 -0.1945  0.2540 -0.3291
23599W        W43133   7.132  16.665  13.143  0.2166  0.1353  0.0255
23600W        W43134   5.269   8.411  10.002 -0.1258  0.0374  0.0910
23601W        W43135   6.890  13.605  11.086 -0.4876  0.0040  0.1027
23602W        W43136   9.098   3.550   3.996 -0.1274  0.1510  0.2181
23603W        W43137   4.519   5.682  12.780  0.2608 -0.2732  0.0213
23604W        W43138   0.713  17.017  10.806  0.1219  0.0694  0.0147
23605W        W43139  18.069  11.364  12.121  0.0142 -0.2197 -0.1380
23606W        W43140   6.379   8.811   0.034 -0.0170 -0.1049 -0.0818
23607W        W43141   2.009   7.449   3.928  0.1595  0.0273  0.0901
23608W        W43142  16.434  10.322   4.383  0.1050  0.3009 -0.1742
23609W        W43143   5.114  13.666   2.907  0.2319 -0.0720  0.1690
23610W        W43144   1.245  13.247   2.388 -0.2071 -0.0799 -0.0159
23611W        W43145  14.336   3.940  11.905  0.2803  0.2310 -0.0682
23612W        W43146   1.799   1.362  12.716 -0.2084 -0.3633  0.1504
23613W        W43147   2.079   8.759   3.397 -0.0735 -0.1518 -0.1165
23614W        W43148  12.616  15.595   2.085  0.4126  0.0936  0.3385
23615W        W43149   4.796   9.473  14.017  0.0284  0.1083  0.0565
23616W        W43150   7.911   7.562  11.935 -0.1658 -0.2142 -0.3340
23617W        W43151  13.376   9.715   1.663 -0.0775 -0.0716 -0.1123
23618W        W43152   1.951   4.528   4.622  0.1315  0.1917 -0.2253
23619W        W43153  11.488  11.933  11.514  0.0351 -0.0145  0.2184
23620W        W43154   5.885  19.238  13.551 -0.2001  0.0769 -0.0077
23621W        W43155   3.071   6.405  11.256 -0.0208  0.0479 -0.0732
23622W        W43156  17.785   7.457  11.002 -0.1161  0.1048 -0.1492
23623W        W43157  13.796  13.455   9.966  0.1239 -0.1332 -0.0376
23624W        W43158  10.195   2.086   1.703  0.0928  0.3394 -0.1212
23625W        W43159  16.316  18.180   2.886  0.0689 -0.1978  0.0765
23626W        W43160   1.801   2.686  10.550  0.0113  0.2378 -0.1015
23627W        W43161  14.531   6.183   4.040 -0.1259 -0.1347  0.1090
23628W        W43162  11.544   8.320   3.564  0.0303 -0.0239  0.0281
23629W        W43163   5.480   1.384   0.292  0.1105  0.0346  0.1132
23630W        W43164   8.143   9.070   0.739  0.0246 -0.0677  0.0899
23631W        W43165   6.451  10.373  13.275 -0.0091  0.0475  0.2171
23632W        W43166  16.590  15.371  14.326  0.1690  0.0959 -0.2438
23633W        W43167   0.279   2.944  10.946 -0.0170 -0.2826  0.1148
23634W        W43168   8.963   6.518   3.300 -0.0164 -0.1743  0.2041
23635W        W43169  16.907  18.094  10.172 -0.4054 -0.2932 -0.3602
23636W        W43170   4.733   2.334  12.084 -0.2230 -0.0120 -0.1282
23637W        W43171   5.127   1.846  13.535 -0.1299  0.1241 -0.1435
23638W        W43172   6.921   6.637   2.978 -0.1162  0.3393 -0.1051
23639W        W43173  16.493  16.866  14.375 -0.1005 -0.1137  0.4204
23640W        W43174  11.758  10.191   1.757 -0.0651  0.0140 -0.2777
23641W        W43175   4.787  16.866   0.912  0.0292 -0.0479 -0.0659
23642W        W43176   8.026   4.241  13.094 -0.0023  0.1034 -0.1721
23643W        W43177  16.901  14.492  12.087  0.0864 -0.0921 -0.0405
23644W        W43178  17.508   6.547   3.258  0.1974  0.0212 -0.3093
23645W        W43179  12.003  18.974  11.502  0.0372  0.2506 -0.0183
23646W        W43180   2.496   3.981   1.755  0.2986 -0.1986 -0.2320
23647W        W43181  18.746   5.703  12.080  0.0376  0.2154  0.1584
23648W        W43182  17.981  11.120   9.608 -0.1811  0.4022 -0.0722
23649W        W43183  18.102   8.083  14.018 -0.4320 -0.0352  0.0698
23650W        W43184   6.872  15.990  10.470  0.0092  0.1901  0.3202
23651W        W43185   4.092   8.845  12.515  0.0678  0.2287 -0.1933
23652W        W43186   4.635   6.991   3.493  0.1775 -0.2503 -0.2495
23653W        W43187  10.238  18.380  13.048 -0.3689 -0.0987  0.1461
23654W        W43188   7.874  12.471  13.060  0.2204 -0.1243  0.0434
23655W        W43189  14.916   8.507  13.506  0.2142  0.1494 -0.1539
23656W        W43190   2.751   1.426   0.766 -0.3337 -0.0963 -0.0171
23657W        W43191  13.401  16.346   3.383 -0.3615 -0.2120  0.0110
23658W        W43192   5.187  13.202   2.792 -0.0515  0.0958 -0.0913
23659W        W43193  12.897  13.506  12.078  0.2279 -0.0101  0.2747
23660W        W43194   4.959   1.570   1.008 -0.2171 -0.0601  0.0040
23661W        W43195  17.980  17.886   2.040 -0.2859  0.0340  0.3312
23662W        W43196   0.296  16.004  13.893 -0.3435  0.3996  0.0631
23663W        W43197   2.058   7.897   4.546 -0.0039 -0.1162 -0.2618
23664W        W43198  11.519   4.655  11.934  0.1205 -0.0554  0.1492
23665W        W43199  14.218   7.928   2.030  0.2828 -0.0974  0.0824
23666W        W43200  18.525  15.531   0.318 -0.0809 -0.0814  0.0711
23667W        W43201  17.657  18.573   2.921 -0.0166 -0.0467 -0.0549
23668W        W43202  11.890  16.062   2.029 -0.3412 -0.0048  0.1055
23669W        W43203  11.993   1.517  11.915 -0.0676  0.1647  0.0147
23670W        W43204   9.339   2.515   1.286  0.0778 -0.0375 -0.3863
23671W        W43205   4.271   4.345  11.077  0.0089  0.1239 -0.0654
23672W        W43206   1.592   2.231   2.636 -0.2297  0.1579 -0.0846
23673W        W43207  10.207  17.250   9.809  0.1137 -0.2577 -0.3289
23674W        W43208  12.616   4.804   1.413 -0.1252  0.0125 -0.0478
23675W        W43209   3.117  18.856   1.431  0.1214 -0.1141  0.3019
23676W        W43210  11.370  10.598  11.534  0.0088  0.3986  0.0691
23677W        W43211   9.567  11.151   1.332  0.2525 -0.2592  0.1627
23678W        W43212  17.213  13.607  12.117 -0.3483  0.4197 -0.1485
23679W        W43213  13.001   2.743   3.459 -0.0647  0.0364  0.0886
23680W        W43214   8.257   4.948  11.513  0.2626  0.0223 -0.0083
23681W        W43215  19.440  17.362   0.106 -0.2470 -0.3239  0.0937
23682W        W43216  18.906   8.653  13.783  0.0703 -0.0871  0.0614
23683W        W43217  12.069   8.051   3.687  0.3749 -0.2187 -0.0261
23684W        W43218  15.235  18.905   1.093  0.2767  0.0147 -0.1070
23685W        W43219  11.801   0.318  12.599  0.1609  0.1552 -0.0528
23686W        W43220   6.495   0.293   3.440 -0.1193  0.0615  0.0173
23687W        W43221  16.128   6.259   1.609  0.3427 -0.1205 -0.1000
23688W        W43222  17.798  11.008  10.669 -0.1364 -0.2032 -0.0465
23689W        W43223   9.346   8.205   0.975 -0.3812 -0.0323 -0.0386
23690W        W43224   6.630   7.927  14.259  0.3365 -0.2680  0.2282
23691W        W43225   3.435   1.854   1.112 -0.0127  0.2034 -0.0662
23692W        W43226  17.797  19.167   1.935  0.3140  0.1291  0.1512
23693W        W43227   4.548  11.635  12.101  0.1262  0.0255  0.1159
23694W        W43228  16.393  12.555  14.215  0.1625  0.1937 -0.0593
23695W        W43229   2.108   8.884   3.913  0.0134 -0.0879 -0.0686
23696W        W43230  15.141   7.127   9.798  0.4137  0.3062  0.5372
23697W        W43231  11.143  13.342  13.701  0.0153 -0.0170  0.1420
23698W        W43232  10.883  18.468  13.396  0.1687 -0.0754  0.1540
23699W        W43233   5.253  16.025  13.512 -0.1173 -0.0554 -0.1612
23700W        W43234   6.578   3.525   4.040 -0.0203 -0.0330 -0.0882
23701W        W43235   2.315  12.794   0.196  0.3366  0.0969  0.4196
23702W        W43236  14.198  15.513  11.472 -0.1707 -0.0454  0.0721
23703W        W43237  18.301  13.591  14.344 -0.0537  0.1417  0.2460
23704W        W43238  11.264   5.193  13.619 -0.0660  0.1431 -0.0906
23705W        W43239   5.788   4.673  10.403 -0.0415 -0.0529 -0.1557
23706W        W43240  10.737   5.394   3.380  0.0246  0.2610  0.0072
23707W        W43241  14.004   0.610  13.268  0.1352 -0.1550  0.1515
23708W        W43242   1.825  11.370  10.905  0.3450 -0.0629  0.1990
23709W        W43243  12.757  12.754   1.955  0.0563 -0.2523  0.2091
23710W        W43244  17.200  12.812  11.754 -0.1590 -0.2089 -0.3720
23711W        W43245   8.079   3.695  13.843  0.0149 -0.0380  0.3138
23712W        W43246   8.145   5.099   2.099 -0.2700  0.1952  0.1919
23713W        W43247  10.288   7.112   3.032 -0.0835 -0.1922 -0.1047
23714W        W43248  16.504  16.154   3.428  0.2313 -0.1678 -0.1257
23715W        W43249  14.218   3.404   2.119  0.3023 -0.1299  0.1504
23716W        W43250   4.565  17.885   3.459  0.2562  0.3240 -0.0779
23717W        W43251  10.815   6.029   2.167  0.1752 -0.0700 -0.0328
23718W        W43252   6.056   7.175   1.967  0.2468 -0.1082  0.0276
23719W        W43253   7.213  17.382  12.169 -0.1341  0.0296 -0.0170
23720W        W43254   0.618   3.420   2.298 -0.0556 -0.0156  0.0968
23721W        W43255  15.348   0.591   2.482  0.0229  0.1205  0.0534
23722W        W43256  14.047   1.587  11.059 -0.0512  0.0146  0.0144
23723W        W43257  17.532  10.415  11.583 -0.2273  0.1467 -0.1502
23724W        W43258   9.551   0.209  11.558  0.2035  0.0604 -0.0892
23725W        W43259   4.317  12.190   3.202 -0.1287  0.0168  0.0639
23726W        W43260  13.301  13.391   3.944 -0.0925  0.0109 -0.1492
23727W        W43261   4.038   3.185  10.747  0.0525 -0.0097  0.1765
23728W        W43262   6.887  14.394   2.406 -0.2903  0.0678 -0.0211
23729W        W43263   1.997   8.803   1.324 -0.0287 -0.0031  0.2760
23730W        W43264   1.488  18.752   0.741 -0.2482 -0.0817 -0.4236
23731W        W43265  11.594  13.147   3.902 -0.0040  0.2186 -0.1746
23732W        W43266   5.174  19.426  13.401 -0.3162 -0.0155  0.0153
23733W        W43267  16.052  16.145   2.371 -0.3038  0.0698 -0.0448
23734W        W43268  15.853   8.732   3.634  0.4179  0.0723 -0.2726
23735W        W43269   4.957   5.093   4.848 -0.1180 -0.0893 -0.1663
23736W        W43270   0.040  16.390   3.999  0.0851  0.0057 -0.2088
23737W        W43271  18.144   7.765   0.621 -0.0880  0.0864  0.0785
23738W        W43272   0.763   9.770   0.719 -0.3469 -0.1107 -0.2297
23739W        W43273   8.291   2.919   1.195 -0.1294 -0.3391  0.1148
23740W        W43274  18.787   2.776  13.555  0.2397  0.1121 -0.3346
23741W        W43275   6.297   1.442   1.443 -0.1250  0.0582 -0.0391
23742W        W43276   7.712  12.652  11.634  0.0001  0.0027  0.0990
23743W        W43277  17.153   5.208   3.401  0.1185 -0.1101 -0.0516
23744W        W43278  15.737  14.856  11.264 -0.1269  0.0787 -0.2454
23745W        W43279  10.417   4.955   2.299 -0.3985 -0.1362  0.1333
23746W        W43280   4.991  11.220   4.885  0.0794 -0.0622 -0.2289
23747W        W43281   8.954  16.387  14.096  0.3784  0.1407  0.1680
23748W        W43282   1.548  16.646   3.674 -0.3826 -0.1374 -0.2176
23749W        W43283   8.823  12.573  13.617 -0.1354  0.1327  0.1369
23750W        W43284   3.530   9.006   3.975  0.2585  0.1358  0.2395
23751W        W43285   3.569   2.541  12.925  0.1965 -0.3689  0.2505
23752W        W43286   4.175   3.345   1.253  0.0897 -0.0621 -0.2866
23753W        W43287  10.494   1.129  13.124  0.0621 -0.1789  0.0611
23754W        W43288  10.956  19.273  11.399  0.1302 -0.0634  0.0951
23755W        W43289   4.281  14.332  11.294  0.3940 -0.3503 -0.0687
23756W        W43290  11.994  11.076   0.297  0.0194  0.0741 -0.0075
23757W        W43291  11.934   9.118  10.869 -0.0522 -0.2847  0.1066
23758W        W43292  17.613   0.284   1.615 -0.3267 -0.4335  0.1360
23759W        W43293  19.195   8.575  11.478 -0.0125  0.0003 -0.0517
23760W        W43294   9.578   2.856   1.439  0.1180 -0.2127 -0.0957
23761W        W43295   3.519  11.886  13.066 -0.0622  0.2165  0.2966
23762W        W43296  19.436  12.727   3.119  0.1875 -0.0278 -0.1604
23763W        W43297   4.335   0.808   0.456  0.2120  0.2992  0.2720
23764W        W43298   0.411   5.517  12.340  0.1938  0.1488  0.0853
23765W        W43299   5.841  12.886   5.491 -0.0853 -0.0078 -0.3207
23766W        W43300  15.561   3.809   3.361  0.2323  0.1077  0.0501
23767W        W43301   7.871   1.241   2.302 -0.0294  0.0952 -0.3259
23768W        W43302  15.869   4.588  13.378  0.4956 -0.2361 -0.2328
23769W        W43303   5.271   7.229  10.389  0.0450 -0.2389 -0.0713
23770W        W43304   1.510  18.859  13.073 -0.0419  0.1309  0.1092
23771W        W43305   0.785   1.133   3.012  0.2204  0.0541  0.0227
23772W        W43306   8.731  11.461   0.954 -0.4236 -0.0507 -0.0787
23773W        W43307   1.758   8.672   2.680  0.0671  0.2102  0.2223
23774W        W43308   3.593  13.542   3.811  0.4611 -0.0759  0.1028
23775W        W43309   2.706   6.649   3.506 -0.2709  0.0182 -0.0952
23776W        W43310  16.271  12.850  11.744 -0.0390  0.1025  0.4973
23777W        W43311   8.001  18.428   2.651  0.4102  0.2324  0.0471
23778W        W43312  14.104   2.716  10.516  0.0873 -0.0486  0.2122
23779W        W43313  18.251  14.147  10.095  0.2001  0.0847  0.1610
23780W        W43314  16.109  12.776  10.712 -0.1832  0.0243  0.0159
23781W        W43315  14.587   9.171   0.614  0.1887 -0.0367 -0.1287
23782W        W43316   8.892   9.762   0.163  0.3219  0.1203 -0.0237
23783W        W43317   6.010  16.395  13.901 -0.1594  0.2677  0.0311
23784W        W43318  12.694   2.226   3.346 -0.2249  0.3010  0.0867
23785W        W43319  15.822  10.454  14.375 -0.1245 -0.2017 -0.2124
23786W        W43320   5.990  14.323   0.905 -0.1300  0.1838  0.0211
23787W        W43321  16.824   3.731   1.859 -0.1547  0.3430 -0.0096
23788W        W43322   0.524   8.385  12.301  0.0531 -0.3167  0.1408
23789W        W43323  17.035   4.634   1.944  0.3092 -0.4402 -0.1846
23790W        W43324   3.452  17.390   0.360  0.1118  0.4422 -0.0942
23791W        W43325   9.435   4.509  10.611 -0.0731  0.3074  0.0508
23792W        W43326   0.212   6.324  11.963  0.0251  0.0799 -0.1498
23793W        W43327  11.348   0.587   3.028  0.0672 -0.0518  0.1050
23794W        W43328  17.926   4.381  11.837 -0.2484  0.0715  0.0546
23795W        W43329   4.053   2.625   3.010  0.0405  0.2454  0.0546
23796W        W43330   1.424  14.358  11.571  0.3190 -0.1520  0.2564
23797W        W43331   5.969  15.227  12.084 -0.0899  0.0290 -0.2304
23798W        W43332   9.463  12.864  11.223 -0.1944  0.0322  0.0718
23799W        W43333  18.607  13.389   0.495 -0.1063 -0.1510  0.2328
23800W        W43334  12.387  15.282  13.151 -0.1000 -0.2448 -0.0044
23801W        W43335   4.231   0.345  13.778 -0.0145 -0.2027  0.1570
23802W        W43336  15.976   5.627  13.773  0.1741  0.1910  0.3078
23803W        W43337  19.481  11.557   3.460 -0.0439 -0.5783  0.1501
23804W        W43338   5.110  14.976  12.758 -0.1854  0.0319 -0.1354
23805W        W43339  12.005   4.716  12.428  0.3110 -0.0811  0.2188
23806W        W43340   8.639  18.801   1.939  0.0858 -0.0545  0.1207
23807W        W43341  17.445   2.149   0.167  0.0651  0.2280  0.0407
23808W        W43342  15.000   2.813  12.196  0.1145  0.1116  0.0392
23809W        W43343  15.440   4.656  10.184  0.2370 -0.2635 -0.0688
23810W        W43344  13.128   8.634  11.150 -0.1527  0.0935  0.0182
23811W        W43345  15.686   6.289  10.903  0.0354  0.0534  0.0471
23812W        W43346  17.153  12.816  13.546  0.0206  0.0810 -0.1184
23813W        W43347   7.403  16.947  13.873  0.1407 -0.0354 -0.5392
23814W        W43348  15.265  10.009   1.347 -0.2426 -0.2468 -0.3302
23815W        W43349  11.428   4.845  12.621  0.0216 -0.1813 -0.2374
23816W        W43350   4.410  17.917   2.946 -0.0841 -0.0060 -0.2542
23817W        W43351   8.438  10.587   1.294  0.1169  0.0465 -0.1213
23818W        W43352  14.203   0.268  12.777 -0.1369 -0.2089  0.2014
23819W        W43353   0.891  13.954   1.807 -0.1499  0.2738 -0.1473
23820W        W43354  18.552   4.756   0.787 -0.3580 -0.0008  0.1831
23821W        W43355  17.316  12.985  12.993  0.5380 -0.0205 -0.1883
23822W        W43356   2.792   8.233   3.479  0.0781 -0.1315 -0.0945
23823W        W43357   8.068   4.088   3.821 -0.1149  0.0839 -0.1707
23824W        W43358  14.193  18.797   0.394  0.1022  0.1039 -0.2819
23825W        W43359   1.861  10.559   4.013 -0.1235 -0.0763  0.1325
23826W        W43360   2.333   8.394  12.266  0.1150 -0.0906  0.2258
23827W        W43361   3.166   3.919   3.340 -0.1200 -0.0369  0.1057
23828W        W43362  10.657   4.739   0.109  0.4090 -0.1450 -0.0163
23829W        W43363  18.437   1.979   1.086  0.0794  0.0590  0.0428
23830W        W43364  14.109  12.866   2.819  0.2687 -0.1287  0.2932
23831W        W43365   1.526   4.425   2.351  0.0164  0.0160 -0.0184
23832W        W43366   9.516  16.685   2.624 -0.2776 -0.1692 -0.0670
23833W        W43367   9.018  16.272  10.936 -0.0789  0.2287  0.0352
23834W        W43368   0.010   7.030   3.267 -0.0326  0.4238 -0.2619
23835W        W43369   1.465  10.067  11.294 -0.2008  0.1396 -0.1180
23836W        W43370   1.482  17.111   1.365  0.3335 -0.3628 -0.0013
23837W        W43371   5.968   1.741   3.545  0.2197  0.4260 -0.4171
23838W        W43372  14.577  14.553  10.318 -0.1279  0.0453  0.0896
23839W        W43373   5.963  11.078   1.777 -0.2289 -0.1431 -0.2700
23840W        W43374   7.324   2.308   4.283 -0.1642  0.2895  0.0899
23841W        W43375  11.112  10.249  12.826 -0.0784 -0.4285 -0.0780
23842W        W43376   0.720  12.801  11.617  0.1129  0.0162  0.0451
23843W        W43377   9.780   2.551   0.034  0.0194  0.0020 -0.2792
23844W        W43378   2.784   0.468   3.940 -0.1075 -0.2264 -0.0521
23845W        W43379  18.027   1.114  13.303  0.0370  0.1181  0.0155
23846W        W43380  17.328  18.942  12.000  0.0844 -0.1762  0.0854
23847W        W43381  11.911   8.177   1.298 -0.0018  0.2748 -0.1203
23848W        W43382  12.836   6.190   1.982  0.2853 -0.2728 -0.2369
23849W        W43383  18.286  12.625   1.335  0.4001  0.4406  0.1746
23850W        W43384   0.196   7.150  12.393  0.0480  0.0158  0.0422
23851W        W43385   2.208   1.694  10.846 -0.1811 -0.0520  0.1077
23852W        W43386  16.514  18.691   3.033 -0.1054 -0.1586  0.2421
23853W        W43387  12.842   3.782   2.350  0.0399  0.1392  0.0265
23854W        W43388  17.046   7.922   5.661 -0.4184 -0.2320 -0.0478
23855W        W43389  12.463  13.165  14.047 -0.0577  0.0180  0.3481
23856W        W43390  16.816  10.423   0.435 -0.0080  0.0005  0.0297
23857W        W43391  17.633   0.351   9.858 -0.2194  0.4327 -0.0917
23858W        W43392  17.105   2.509   0.288  0.3209 -0.2326 -0.1461
23859W        W43393  17.179   0.366  10.715  0.1997  0.2439 -0.1658
23860W        W43394   8.570  13.894  13.149 -0.1389 -0.2542  0.1782
23861W        W43395   0.237  14.022   2.265  0.1453 -0.1745  0.0108
23862W        W43396  16.015   6.460   0.576 -0.2125 -0.0292 -0.0688
23863W        W43397  18.101  13.810  11.774  0.1708 -0.0829 -0.1299
23864W        W43398   2.804   4.676   3.575  0.0061  0.2960  0.3469
23865W        W43399   1.968   1.205  14.317  0.0676 -0.1857  0.1317
23866W        W43400  12.732   1.008   1.614 -0.1835 -0.2711 -0.0630
23867W        W43401  10.580   7.577  10.952 -0.0568  0.0009 -0.0972
23868W        W43402  14.685   4.680  11.600  0.0660 -0.1046 -0.1851
23869W        W43403  12.474  16.778  11.452  0.1433 -0.1045 -0.0160
23870W        W43404  11.511   8.637   4.377  0.0087  0.4294 -0.0924
23871W        W43405  10.661  18.254   1.944  0.5742 -0.1716 -0.1531
23872W        W43406   7.338  13.176   0.559  0.0878  0.2005 -0.1128
23873W        W43407  16.967  19.269  12.448 -0.1129  0.0487  0.0081
23874W        W43408   1.026   6.094  12.664  0.0910 -0.3315 -0.0909
23875W        W43409  16.693  11.322   3.235  0.0438  0.1428  0.1669
23876W        W43410  18.829   2.309   3.143 -0.3500  0.1059 -0.1352
23877W        W43411  18.492   4.597  14.103 -0.0363  0.1259  0.0637
23878W        W43412  11.429   4.394   0.987  0.2508  0.2812  0.0565
23879W        W43413  17.201  14.727   3.302  0.1234 -0.0684 -0.0726
23880W        W43414   4.002  15.891   0.763 -0.1172 -0.1626  0.3970
23881W        W43415   2.060  19.402   4.052 -0.1868  0.0707 -0.2026
23882W        W43416  14.456   4.934   3.284 -0.1269  0.1255 -0.0351
23883W        W43417   1.359  17.173  10.906 -0.0907  0.0337 -0.0695
23884W        W43418   4.417   8.664   4.113 -0.0368  0.2324 -0.3062
23885W        W43419   9.876   0.702   4.059  0.1183  0.0083  0.0893
23886W        W43420  15.371  18.717  12.413  0.0264  0.1324 -0.1926
23887W        W43421   4.757  16.155   3.493  0.2944 -0.2681  0.0631
23888W        W43422   5.497  10.702   3.028  0.3179  0.0717 -0.2471
23889W        W43423   5.034   5.462  12.153  0.2745 -0.4147 -0.0082
23890W        W43424   7.292  14.059   0.996  0.0672 -0.2691  0.3152
23891W        W43425  14.795  11.631  12.656 -0.1863 -0.2097  0.0119
23892W        W43426   4.829   9.363   2.595  0.3307 -0.1834 -0.0184
23893W        W43427  19.349  11.027   1.333 -0.0500  0.2081  0.1463
23894W        W43428  11.426   7.905   2.740  0.4718  0.4734  0.1720
23895W        W43429  17.836  19.308  12.137  0.2773  0.0423 -0.3492
23896W        W43430   5.614   0.908   0.494 -0.5835 -0.2079 -0.0528
23897W        W43431   2.370   8.409   1.041  0.0261 -0.0265 -0.0315
23898W        W43432   8.489  17.677  11.189  0.0749  0.1132  0.1481
23899W        W43433   9.319  16.407  13.137  0.0165 -0.1193  0.2544
23900W        W43434   9.423   4.533   3.974  0.0526  0.1549  0.0660
23901W        W43435  19.484   1.317  11.049 -0.0599 -0.1070 -0.1163
23902W        W43436   4.393  13.995   0.970 -0.0546 -0.2112 -0.1109
23903W        W43437  16.619  13.452  13.686 -0.0722 -0.1016 -0.1704
23904W        W43438  10.003   8.687  11.617 -0.0501  0.1745  0.0683
23905W        W43439   6.460  12.806  12.959  0.3317  0.0790 -0.0293
23906W        W43440   3.949  19.360  11.989 -0.0983  0.2880  0.0450
23907W        W43441  17.395  14.966  14.053  0.1937  0.1009 -0.2747
23908W        W43442   0.451   9.542   3.639  0.0528 -0.1847 -0.0548
23909W        W43443  15.743   2.644  13.102  0.3646  0.1289 -0.3744
23910W        W43444  17.414   3.881   3.965 -0.0435 -0.2481 -0.2724
23911W        W43445  13.826   1.963  12.004  0.0037  0.0092 -0.0287
23912W        W43446   3.058   6.686  11.684 -0.0198 -0.1608 -0.0945
23913W        W43447  18.067   3.834   2.697 -0.0379 -0.0669 -0.0610
23914W        W43448  15.538   6.764  13.781  0.1485  0.1055 -0.0808
23915W        W43449   3.914  10.843   1.122 -0.0006 -0.0578  0.0962
23916W        W43450  13.573   9.168   1.706  0.3039 -0.0803  0.0496
23917W        W43451   3.430   9.609   2.905  0.0048  0.0469 -0.0522
23918W        W43452   8.848   9.448   1.613 -0.3052 -0.1607  0.0606
23919W        W43453  16.382   4.128  12.837  0.1481 -0.0240 -0.2438
23920W        W43454  15.983  11.480   3.729 -0.1227  0.1387 -0.0881
23921W        W43455   9.180  16.289   2.493 -0.1160 -0.2551 -0.0478
23922W        W43456  15.411  15.494  10.410  0.0050  0.1469  0.5322
23923W        W43457  19.463   9.347   1.984 -0.2280  0.3798  0.0938
23924W        W43458   9.857   4.799   3.022  0.3638 -0.0705  0.0481
23925W        W43459   6.713   9.681   4.263  0.2263  0.1801 -0.0546
23926W        W43460   9.409   5.638  11.852  0.1158  0.1543  0.2389
23927W        W43461   1.826  10.670   0.265 -0.2572  0.5134 -0.0398
23928W        W43462   1.855  17.615  12.001 -0.3549 -0.0016  0.0223
23929W        W43463  11.039  14.579   0.161  0.0253  0.2749 -0.3193
23930W        W43464   8.260  17.215   3.091 -0.1007 -0.2089  0.2080
23931W        W43465   7.404   8.740   1.005  0.0028 -0.0975  0.0920
23932W        W43466   6.189   2.666  10.011 -0.0074  0.0820  0.4552
23933W        W43467   3.374   0.042   0.165  0.1964  0.0405  0.2869
23934W        W43468  16.885  18.681  11.783 -0.2265 -0.1475  0.1911
23935W        W43469   2.337   8.739  13.257 -0.1647 -0.2246 -0.0203
23936W        W43470  11.100   1.684   4.458 -0.3882  0.0262  0.2523
23937W        W43471  14.195   7.022  12.221 -0.2932  0.0705  0.2595
23938W        W43472  16.829  11.251   3.750 -0.0906 -0.6422  0.5055
23939W        W43473  10.593   5.158  10.504  0.0524 -0.0191 -0.1100
23940W        W43474   3.511  17.001  12.954  0.1669  0.0286 -0.0736
23941W        W43475  11.677   4.573  13.224  0.0571  0.0517 -0.1279
23942W        W43476  13.829   4.238  13.949 -0.0123  0.0862 -0.0017
23943W        W43477   1.164  14.408  13.964  0.0274 -0.1109  0.0070
23944W        W43478   7.426  16.026  12.638  0.2495 -0.1398 -0.0019
23945W        W43479  17.103   6.431  11.310  0.3065  0.0144 -0.0522
23946W        W43480   1.718  18.372   2.583  0.1974  0.2408  0.3173
23947W        W43481   3.286   0.497   9.970 -0.2658  0.0517  0.3056
23948W        W43482  13.361  15.482   3.092 -0.0882 -0.3884 -0.0041
23949W        W43483  10.175   3.031   0.430  0.4033  0.2378  0.0772
23950W        W43484   9.581  13.910   3.178 -0.0258 -0.1360  0.0016
23951W        W43485  10.678   3.160   9.753  0.0341  0.1632  0.0823
23952W        W43486  18.100   7.618   3.767 -0.4117 -0.2739  0.0567
23953W        W43487  12.545  12.950   3.525  0.0130 -0.3181 -0.2146
23954W        W43488  10.754   7.488   1.946  0.0446  0.1688 -0.0990
23955W        W43489  13.980   4.547   4.159  0.1372  0.0624  0.2423
23956W        W43490  11.323   6.340  11.520  0.0029  0.3309 -0.4154
23957W        W43491  11.496   5.046  14.176  0.0366 -0.0319 -0.0162
23958W        W43492  15.489   4.095  10.417 -0.5178  0.1697 -0.2987
23959W        W43493  18.257   2.094  13.414  0.2533  0.1713  0.0809
23960W        W43494  19.002   0.860  13.325 -0.2680  0.5037 -0.0090
23961W        W43495   3.712  10.174   0.790 -0.1005  0.1556  0.0348
23962W        W43496   5.576   8.569  12.528  0.0460  0.0661 -0.1059
23963W        W43497  19.431   6.755  13.680  0.3309 -0.5639  0.2469
23964W        W43498   4.934   2.803   2.377 -0.1198  0.1849 -0.1333
23965W        W43499   4.570   7.373   3.806  0.0144  0.1615 -0.1845
23966W        W43500  14.143  16.833  13.861 -0.1169 -0.1748 -0.0660
23967W        W43501  11.240  11.094   2.865  0.4421  0.2442  0.0474
23968W        W43502   5.236   1.342  14.076 -0.3087 -0.1520 -0.1458
23969W        W43503  15.926  13.258  13.001 -0.1455 -0.1109  0.0518
23970W        W43504   0.594  18.458  14.081  0.0304  0.0758  0.1525
23971W        W43505   4.584   2.555   2.699  0.2994  0.1667 -0.2869
23972W        W43506  10.644   0.520   0.333 -0.1916 -0.0375 -0.2147
23973W        W43507   7.001  15.930  12.996  0.1017  0.2482  0.1079
23974W        W43508   0.307  12.342   1.920 -0.2039 -0.0891 -0.0178
23975W        W43509   1.746  16.421   0.698 -0.2374 -0.0429 -0.0421
23976W        W43510   2.422  18.485   1.862 -0.0302  0.2971 -0.0546
23977W        W43511  11.698   3.925  10.895 -0.1106 -0.0329 -0.1222
23978W        W43512   2.848  10.441   2.757  0.0831  0.1161 -0.2866
23979W        W43513  11.522  19.192   2.116  0.1246  0.0307 -0.3139
23980W        W43514   1.564   7.866  11.308 -0.1621  0.0741 -0.0381
23981W        W43515   2.459   9.354  10.718 -0.0403 -0.0655 -0.1175
23982W        W43516  16.029  15.038  10.868 -0.2062 -0.1134  0.1808
23983W        W43517  17.820   1.773   3.386 -0.0515 -0.0253 -0.1064
23984W        W43518   4.056  18.049   0.452 -0.1146 -0.1021  0.3871
23985W        W43519   3.545  17.332   0.939  0.1936 -0.0055  0.2657
23986W        W43520   1.099  16.474   3.316  0.3114 -0.1648 -0.1817
23987W        W43521   4.617  18.857   3.184  0.1062  0.0100  0.0321
23988W        W43522   2.949   9.871  12.789  0.2461  0.1288  0.0684
23989W        W43523  17.425   3.193  10.559 -0.0034 -0.1164 -0.1068
23990W        W43524   6.134   2.829  13.501 -0.0112 -0.0706  0.0240
23991W        W43525  16.696  16.239  11.987  0.0709 -0.1135  0.3730
23992W        W43526  18.917  19.511   3.695 -0.0574 -0.2308  0.0282
23993W        W43527  11.690  15.436   4.906 -0.1907  0.2766 -0.3800
23994W        W43528  15.253  11.528  12.805 -0.2042 -0.1934 -0.0077
23995W        W43529  13.410  17.134   1.476  0.0004  0.1005 -0.0996
23996W        W43530  12.857  16.492  11.577 -0.0168 -0.1457 -0.2956
23997W        W43531  11.401  17.882  10.777  0.1406 -0.0913 -0.1408
23998W        W43532  13.069   9.661   2.102 -0.0924  0.2522  0.0142
23999W        W43533   2.261  15.413   3.338  0.1032 -0.1720  0.0341
24000W        W43534   7.759   3.820  12.112  0.0984  0.2974  0.1186
24001W        W43535  16.018  16.249   3.347  0.0609 -0.0722  0.2084
24002W        W43536   0.171  18.103  12.735 -0.1670 -0.0409 -0.0420
24003W        W43537   7.165  19.435  12.172 -0.0823  0.0981  0.1390
24004W        W43538   0.158  12.506  11.860  0.0830 -0.0879 -0.4003
24005W        W43539  18.887  10.366   1.736  0.2886  0.0716 -0.0506
24006W        W43540   7.144   6.973   0.970 -0.1501 -0.0985  0.3005
24007W        W43541   7.924   9.878   0.580  0.0411  0.2317 -0.3511
24008W        W43542   3.622   6.344   0.393  0.0788  0.0002  0.1240
24009W        W43543   7.001   1.692  13.636  0.1545  0.2088  0.0336
24010W        W43544   8.032   3.003  12.421 -0.0622  0.2752 -0.1922
24011W        W43545   7.239   6.717  10.322 -0.2649  0.3056  0.0967
24012W        W43546   4.402  12.767   3.893  0.2324 -0.1209 -0.1366
24013W        W43547  18.859   6.230   2.870  0.0206  0.1052  0.1409
24014W        W43548   8.200  13.164  14.111  0.1172 -0.0796  0.1923
24015W        W43549   3.756   0.043   1.493 -0.2688 -0.0560 -0.0744
24016W        W43550  11.456   3.258  13.787 -0.2272 -0.2465  0.0733
24017W        W43551  18.740  14.045  10.810 -0.1387 -0.0228  0.1198
24018W        W43552  18.566  16.427  12.038 -0.2597  0.0928  0.2179
24019W        W43553   3.408   8.313   2.757 -0.4880  0.2554  0.0049
24020W        W43554  16.171  16.034  13.376  0.4758  0.0995  0.1685
24021W        W43555   3.767   6.761   1.500  0.1868 -0.0406 -0.2444
24022W        W43556  16.684   8.562  14.373 -0.0903 -0.0867 -0.1011
24023W        W43557  16.641   7.075   0.471 -0.1806  0.2565  0.0568
24024W        W43558  10.237   6.875  13.441 -0.2022  0.0544 -0.2483
24025W        W43559   6.258   8.901   2.691  0.0972  0.0667  0.0077
24026W        W43560   8.113  10.761   3.272 -0.2868  0.1632 -0.0971
24027W        W43561   9.727   5.089  14.247  0.1623 -0.0325 -0.1860
24028W        W43562   4.763   8.413   2.521  0.0789  0.0972 -0.0129
24029W        W43563  14.198   7.362   9.315  0.1965 -0.0052  0.1872
24030W        W43564  11.925   8.749   2.989 -0.4840  0.1782 -0.0494
24031W        W43565  10.149   4.232   3.435  0.0649 -0.0198 -0.1441
24032W        W43566  15.685  11.659  11.514 -0.0849 -0.1247 -0.2441
24033W        W43567   8.964  16.134  10.372  0.2032  0.0344 -0.2628
24034W        W43568  14.723   1.312   2.206  0.2194  0.2650 -0.2196
24035W        W43569  15.417   3.022   0.788  0.0378 -0.1633 -0.2149
24036W        W43570  13.221  16.086   0.190  0.0878  0.0698  0.2589
24037W        W43571  16.179  12.228  10.815  0.2087 -0.1733  0.1713
24038W        W43572   3.019  15.974  12.994 -0.2574  0.0741  0.2120
24039W        W43573   1.941  14.525  10.763 -0.5881 -0.2248  0.0286
24040W        W43574  18.540  10.298   3.526  0.3377 -0.0090  0.0673
24041W        W43575   9.387  16.704  14.133  0.0970 -0.3682 -0.2229
24042W        W43576   2.515   8.173  11.425  0.3611 -0.2622  0.0226
24043W        W43577  18.621  15.151   1.660 -0.0298  0.0429  0.0408
24044W        W43578   1.269  14.266   9.601 -0.1680 -0.0473 -0.1080
24045W        W43579  15.848   8.840  11.301 -0.0651  0.0421  0.2666
24046W        W43580  17.384  13.638  13.777  0.2107  0.0406  0.4105
24047W        W43581   4.835   3.152   3.342  0.2062  0.1119  0.1218
24048W        W43582  15.808  12.154   1.123 -0.3173 -0.2433 -0.1946
24049W        W43583  13.674   7.211  12.249  0.2772  0.2103 -0.2562
24050W        W43584   1.929   1.026   1.399 -0.3201 -0.0709 -0.2287
24051W        W43585  17.864  15.822   0.686  0.1687 -0.0416 -0.0261
24052W        W43586   6.057   1.482   4.179 -0.0402 -0.2998 -0.0044
24053W        W43587  18.401   7.889  11.002 -0.0110 -0.2297 -0.2313
24054W        W43588   6.587   8.642   4.357 -0.0796  0.0644  0.1268
24055W        W43589   6.853   1.433   3.644  0.1183  0.0819 -0.3409
24056W        W43590  18.958  10.104   5.333  0.1698  0.0089  0.2435
24057W        W43591   9.859   9.411  13.065 -0.0315 -0.0083  0.0010
24058W        W43592  15.642  16.400   2.236 -0.2902  0.0417 -0.2700
24059W        W43593   2.550   3.786   0.289  0.1616  0.3073  0.2465
24060W        W43594  16.959   5.642  10.745  0.0533  0.0535  0.0685
24061W        W43595  11.582   1.032   1.883 -0.0733  0.3850 -0.0923
24062W        W43596   0.529   0.940   0.830  0.0323 -0.1123 -0.0639
24063W        W43597  13.496   2.546   0.036  0.1488  0.1685  0.0517
24064W        W43598   1.090   2.195   0.103 -0.1677  0.1318 -0.0571
24065W        W43599   8.558   0.702   1.164 -0.4020 -0.1954  0.0132
24066W        W43600   2.003   7.791  10.899  0.2441 -0.0537  0.0136
24067W        W43601  13.558   4.165   4.358  0.0587 -0.0073 -0.0256
24068W        W43602   0.568   2.706   0.949  0.2985 -0.1333  0.0986
24069W        W43603  19.023   0.596   1.176 -0.0249  0.4201  0.1258
24070W        W43604  18.195  15.394   9.935  0.2232  0.4820 -0.1555
24071W        W43605  15.800  11.873  12.473  0.2910  0.1844 -0.0209
24072W        W43606   0.633   7.353  13.539 -0.2667 -0.0936  0.1347
24073W        W43607  13.674  17.183   2.625 -0.5341  0.0245 -0.1378
24074W        W43608  15.433  10.073  12.598  0.1078  0.2653  0.1289
24075W        W43609   2.244   8.573  12.730  0.0267  0.0594  0.0701
24076W        W43610  18.223  14.192   2.791 -0.0119 -0.0915 -0.1650
24077W        W43611   6.879   4.937   1.566  0.0442  0.1524  0.2403
24078W        W43612   9.569  18.428   2.127 -0.2351 -0.0595  0.0310
24079W        W43613   7.960  13.820  12.821 -0.2867  0.0709 -0.0475
24080W        W43614   1.825  10.761  12.231  0.2253  0.2795 -0.0596
24081W        W43615   8.428  13.936   4.022  0.0410  0.0125  0.0706
24082W        W43616  17.926   6.701  11.452 -0.2529  0.0494  0.0795
24083W        W43617   7.178   0.594   5.086 -0.2304 -0.0193 -0.1310
24084W        W43618  13.031   6.566  12.730 -0.0196 -0.1986  0.0582
24085W        W43619  11.070   8.783  12.699  0.2059 -0.1213 -0.0733
24086W        W43620   5.060  16.621   0.061 -0.0352  0.0784  0.2590
24087W        W43621  15.690  10.069  13.964  0.1508  0.0025  0.0359
24088W        W43622   0.199  10.223  11.782 -0.0194  0.0808  0.1613
24089W        W43623  13.873   2.634   1.330 -0.2481 -0.1772  0.1377
24090W        W43624  14.904  10.348  10.423  0.1142  0.0965 -0.1104
24091W        W43625  18.938  16.534  10.455  0.3768 -0.1580  0.0026
24092W        W43626  13.860   8.033   0.890  0.0850 -0.0013  0.1271
24093W        W43627  17.242  12.756   4.514  0.3017  0.0364 -0.1613
24094W        W43628  11.940   8.855   0.162  0.2639  0.3801  0.0683
24095W        W43629  11.913  13.447  12.222 -0.0146 -0.0439  0.1071
24096W        W43630  16.591   7.014   2.030  0.0139  0.1159 -0.1502
24097W        W43631   5.893   2.771   0.480 -0.0678 -0.2911  0.0192
24098W        W43632   9.851   5.969   1.689  0.2099 -0.1758 -0.0275
24099W        W43633   1.127   9.179  10.096 -0.1232  0.2418  0.1447
24100W        W43634  17.224  12.275  11.833  0.2670 -0.3381 -0.2509
24101W        W43635  16.184   0.022  11.857  0.1896 -0.2336  0.2307
24102W        W43636  16.389  10.225   2.888 -0.0418  0.1591  0.1029
24103W        W43637   2.861   8.454   0.956 -0.0030 -0.0514 -0.0830
24104W        W43638   6.748   8.091   1.659 -0.2008 -0.0146  0.1435
24105W        W43639   9.242  15.358  12.255  0.1873 -0.1611 -0.4117
24106W        W43640   7.593  17.275  10.883 -0.0927  0.0200  0.1404
24107W        W43641   2.311  15.851  13.321  0.1280  0.3084 -0.1383
24108W        W43642   8.281  17.497  13.543  0.3870  0.1565 -0.0942
24109W        W43643   1.837   4.051  12.894 -0.0896 -0.0145 -0.3077
24110W        W43644   0.632   5.480   1.847  0.5206 -0.1150  0.2370
24111W        W43645   1.566  16.259   3.338  0.0442 -0.1362  0.3914
24112W        W43646   0.552  15.135  10.627 -0.1386  0.3465  0.3519
24113W        W43647  11.733   1.551  12.349 -0.1080 -0.1639 -0.0531
24114W        W43648  10.450   2.753   0.745 -0.1225 -0.3269 -0.1967
24115W        W43649   4.008  14.698   3.017  0.0767  0.3717 -0.0050
24116W        W43650   2.769   8.529  12.855 -0.0877  0.0026 -0.1942
24117W        W43651   0.524   8.959   4.001  0.0719 -0.1963  0.1492
24118W        W43652  18.989   5.316  12.384 -0.1100  0.0936  0.1064
24119W        W43653   1.033  14.194  10.648  0.1505  0.2004 -0.2862
24120W        W43654   5.569  18.475   0.223 -0.1079 -0.1853 -0.2077
24121W        W43655   9.066   5.469   2.826 -0.0679 -0.2256 -0.0781
24122W        W43656   8.508  14.668   4.582 -0.0317 -0.1555 -0.0230
24123W        W43657  18.519  18.694  14.289  0.1438  0.0102 -0.3503
24124W        W43658  11.761  12.464   0.275 -0.4550 -0.1178  0.1796
24125W        W43659   6.302   6.994   2.484  0.3870 -0.2697 -0.0382
24126W        W43660   1.439   8.682  13.377  0.2242  0.0860 -0.2325
24127W        W43661   4.091  18.552   1.352  0.0945  0.0155  0.1346
24128W        W43662  17.410   7.227   2.743 -0.1768 -0.2240 -0.0681
24129W        W43663   7.546  12.135  14.061 -0.1385 -0.1489 -0.1563
24130W        W43664   6.690   7.899   3.184  0.2164  0.1305 -0.1551
24131W        W43665   5.977   3.716   1.641  0.0724  0.1366 -0.1223
24132W        W43666   9.264   3.537   1.814 -0.0445 -0.0311 -0.1193
24133W        W43667  13.727   1.569   5.187  0.2639 -0.1088  0.0524
24134W        W43668  15.341  14.141  11.194 -0.3861 -0.0217 -0.1588
24135W        W43669  19.025   4.873  14.007 -0.0245  0.0224 -0.0218
24136W        W43670  18.419  11.673   0.584  0.0167 -0.1781 -0.1068
24137W        W43671  16.098  17.939  13.382  0.3748  0.1578  0.0596
24138W        W43672   6.830  14.281   2.978  0.0988  0.2416 -0.2735
24139W        W43673   8.451   0.857  14.038  0.0554  0.0767 -0.1246
24140W        W43674  17.463  12.918   3.473 -0.4912 -0.2812 -0.3799
24141W        W43675  17.510  16.098   3.487 -0.2500 -0.1035 -0.0799
24142W        W43676  13.346   1.511   1.126 -0.0108  0.0679 -0.0620
24143W        W43677   8.829  13.981   0.439  0.0064  0.2344 -0.1622
24144W        W43678  13.058  16.673   1.435  0.0588  0.2063 -0.1100
24145W        W43679  13.097   9.823   0.739 -0.1724  0.1242 -0.2288
24146W        W43680  16.722   8.687  11.827  0.1969  0.0600  0.5248
24147W        W43681  12.411   0.750  12.041 -0.2622  0.2528 -0.0446
24148W        W43682   9.075  13.478  11.230  0.3793  0.0158  0.2116
24149W        W43683  11.302   8.338  11.322  0.3979  0.3020 -0.0606
24150W        W43684   4.143   0.655  14.217  0.3082  0.0818  0.0499
24151W        W43685  12.861   8.834   4.333  0.0797 -0.0885  0.2377
24152W        W43686  16.463  11.977   2.597 -0.1156 -0.2445  0.1329
24153W        W43687  18.055  17.374   4.537 -0.3000  0.2663  0.1009
24154W        W43688   5.355   2.405  11.623  0.1816  0.2546  0.1264
24155W        W43689   1.833   6.082   0.884  0.0417 -0.0477 -0.2548
24156W        W43690  18.965  17.301  12.227 -0.0603  0.1113  0.0130
24157W        W43691  15.708   4.818  10.595 -0.0625 -0.1399 -0.1421
24158W        W43692  15.981  10.590   2.969  0.0232 -0.0716  0.0376
24159W        W43693   9.385   4.011   0.106  0.1237 -0.0623 -0.0687
24160W        W43694   9.933  16.083   2.704 -0.1015  0.0121  0.0597
24161W        W43695  12.818  12.905  10.874  0.4719  0.1744  0.1402
24162W        W43696  18.442   3.942  10.442 -0.3076  0.1890  0.0150
24163W        W43697   0.842   3.258  13.200 -0.1466 -0.1584 -0.1964
24164W        W43698   6.807   9.282   1.345 -0.3838 -0.3180  0.0424
24165W        W43699   4.658   1.226   0.462 -0.0102  0.4475 -0.2514
24166W        W43700   7.323  18.384  11.409  0.1496 -0.1733 -0.3965
24167W        W43701  11.799   5.943   4.127  0.1865 -0.1507  0.0093
24168W        W43702   2.296  14.828  13.405 -0.2191 -0.0073  0.1181
24169W        W43703   4.528  11.979  10.776 -0.2609 -0.0248  0.1979
24170W        W43704  12.213  10.909   5.224 -0.5480  0.0144  0.1931
24171W        W43705   1.536   4.920   3.733 -0.2200 -0.1066  0.4699
24172W        W43706  10.009  11.681   5.118 -0.1091 -0.1453  0.0468
24173W        W43707   1.408  11.725   0.683 -0.2507  0.2391 -0.0213
24174W        W43708   7.317   8.366  14.086  0.1251 -0.0911 -0.4914
24175W        W43709   6.682   1.228  14.026 -0.3380  0.4418 -0.0806
24176W        W43710   2.110  12.255  11.135 -0.0125  0.2696 -0.0924
24177W        W43711  12.600  19.418  10.986  0.0544  0.3339  0.0108
24178W        W43712   4.236   7.514   0.637  0.2073  0.1548 -0.2472
24179W        W43713  19.511  15.465   0.020 -0.2190  0.1825  0.0447
24180W        W43714   9.162   7.918   5.085  0.0908  0.2108 -0.1739
24181W        W43715  16.609   3.227  14.220  0.2108  0.1278 -0.1354
24182W        W43716  12.563  16.237  10.715 -0.1429  0.3425  0.2003
24183W        W43717  19.250   4.492   2.364  0.0202  0.2542  0.2235
24184W        W43718   2.965  13.204   0.857  0.3830 -0.3369  0.0417
24185W        W43719   0.909   4.003   0.686 -0.0417 -0.0991 -0.3849
24186W        W43720  16.190  11.296  13.833 -0.0876 -0.1057 -0.0695
24187W        W43721  15.717   2.237   4.539  0.1983  0.3298 -0.0514
24188W        W43722   6.520   0.084   4.319 -0.0410 -0.2783 -0.3890
24189W        W43723  11.129  10.279   5.095  0.4066 -0.4722  0.0251
24190W        W43724   3.515   1.670   9.728  0.1230  0.2033  0.0196
24191W        W43725   6.192  15.652  11.476 -0.1905 -0.0991 -0.0665
24192W        W43726  15.406  14.016  14.230 -0.2660 -0.1133 -0.2243
24193W        W43727  18.649  18.093  10.721  0.4404 -0.1525  0.1970
24194W        W43728   7.962   3.504   1.099  0.4390  0.1771 -0.0010
24195W        W43729  11.026  19.064  12.813 -0.0379 -0.1766 -0.3806
24196W        W43730   8.410  11.638  14.352 -0.0950  0.0359  0.1740
24197W        W43731  13.813   6.353   3.502  0.1079  0.0091  0.0156
24198W        W43732   2.408   1.081   1.588 -0.4388 -0.0210  0.1778
24199W        W43733  16.427  15.299  11.143 -0.1262  0.2036 -0.0041
24200W        W43734   2.296   9.903  14.156 -0.1297  0.1207 -0.0253
24201W        W43735  10.926  15.940   3.209 -0.0283  0.0020 -0.0652
24202W        W43736  17.622  12.449  11.492  0.1564 -0.0314 -0.2498
24203W        W43737   7.352  15.260  13.687  0.0302  0.1909 -0.1075
24204W        W43738   1.845   3.519  10.339 -0.0438  0.1001  0.1749
24205W        W43739  18.706  13.438   3.649  0.0207 -0.2042 -0.0907
24206W        W43740   8.359  13.353   3.786  0.1511  0.0030  0.0118
24207W        W43741  11.347   0.251   2.575  0.0432  0.5037 -0.0826
24208W        W43742  12.870  17.795   0.288  0.0418 -0.0002 -0.1270
24209W        W43743  10.531   3.813   2.471 -0.2252  0.1523 -0.1028
24210W        W43744  11.369  14.384   2.971 -0.1791  0.2579  0.0869
24211W        W43745  12.671  10.436  13.716 -0.1103  0.2565 -0.0667
24212W        W43746   4.168  15.300  10.127  0.1807  0.0641  0.1333
24213W        W43747   1.902  15.772  11.615  0.1285 -0.0177 -0.1233
24214W        W43748   2.737   5.239   3.674  0.1520  0.2598  0.1226
24215W        W43749   8.351  13.107  12.527 -0.3598 -0.0938 -0.0005
24216W        W43750  17.368   3.114   2.216  0.0285  0.1985 -0.2965
24217W        W43751   0.046   1.106   0.667  0.3842  0.2024  0.1734
24218W        W43752   1.357   3.611  11.829  0.0288  0.3518 -0.3542
24219W        W43753  18.456   4.927   3.042 -0.0612  0.2644 -0.1317
24220W        W43754   3.109  18.156  11.425 -0.0002  0.0171 -0.2585
24221W        W43755  19.255   8.809   2.771 -0.1783 -0.0788  0.0698
24222W        W43756   3.589   0.513  14.362  0.1324 -0.2041  0.1490
24223W        W43757  13.017   8.943   0.652  0.2342 -0.0614  0.1827
24224W        W43758  17.040   7.758   2.594  0.0518  0.1113 -0.0270
24225W        W43759   7.864   2.221   2.319 -0.1452  0.0234 -0.1331
24226W        W43760   0.732   1.137  13.783  0.0305 -0.2498 -0.0301
24227W        W43761  15.442   0.378  10.175  0.1757  0.0101  0.0374
24228W        W43762   7.184  19.245   1.810  0.2171  0.0366 -0.2524
24229W        W43763   4.337  17.086  11.457  0.0483 -0.0781  0.1515
24230W        W43764   9.468   9.625  10.983  0.0918  0.1284  0.0149
24231W        W43765  11.636  11.425   0.845 -0.2214 -0.1257 -0.0311
24232W        W43766  12.105  17.839  14.211 -0.0384  0.2729 -0.0166
24233W        W43767  17.284  12.738   2.345 -0.3418 -0.2149 -0.3209
24234W        W43768   7.518  18.131   2.435 -0.1216 -0.0164 -0.1125
24235W        W43769  13.574   2.291  13.224 -0.0960 -0.1080 -0.2533
24236W        W43770   2.333   6.186  12.426  0.0220 -0.0656 -0.2077
24237W        W43771   3.349  14.331   0.101 -0.1164  0.1335 -0.1245
24238W        W43772   2.798   2.660   2.216 -0.1237  0.0488 -0.0924
24239W        W43773   7.129   2.779   9.579 -0.1661 -0.4059 -0.0263
24240W        W43774   1.696  12.422   0.758  0.2993  0.2114  0.1615
24241W        W43775  18.100  19.473  13.024  0.0009 -0.2763  0.0381
24242W        W43776   1.635   2.122   9.863 -0.0340 -0.1394  0.3652
24243W        W43777  11.289  13.212   0.922  0.2149 -0.1213 -0.1579
24244W        W43778  17.712  16.402  14.228 -0.0262 -0.0665 -0.2253
24245W        W43779  18.276   5.536   1.769  0.0156 -0.2992 -0.0476
24246W        W43780  15.426   9.737   3.718  0.0723 -0.4852 -0.0896
24247W        W43781  11.815  14.142   1.184  0.1496  0.1451  0.2656
24248W        W43782  19.483   4.912   0.683  0.2076 -0.1453  0.0976
24249W        W43783   6.796   1.347  11.938 -0.0780  0.2150 -0.0894
24250W        W43784   7.545  14.632   2.678 -0.1297  0.1120  0.4782
24251W        W43785   1.283   2.711  10.550  0.2337 -0.0324  0.4418
24252W        W43786   0.961   7.856  13.065 -0.1407 -0.0115 -0.0330
24253W        W43787   0.049   5.223  13.254 -0.1060 -0.0290 -0.3079
24254W        W43788  13.809   8.223  12.494  0.3101 -0.1605 -0.1806
24255W        W43789  11.024  19.005   2.246  0.1440 -0.1096  0.1054
24256W        W43790  15.317   6.500   4.535 -0.2916 -0.1357 -0.2040
24257W        W43791   8.276   2.576   1.559  0.1235 -0.0562 -0.3281
24258W        W43792   6.836  14.140  14.018 -0.2164 -0.2793  0.2472
24259W        W43793  17.467   6.309  13.662 -0.0124 -0.3611 -0.0406
24260W        W43794   9.540  15.700   2.507  0.2985  0.0686 -0.0051
24261W        W43795   9.676   8.720  10.729 -0.0719 -0.0373  0.3090
24262W        W43796  17.234  16.536  13.970  0.0017 -0.0229 -0.0394
24263W        W43797   9.625   3.553  12.358  0.0184 -0.2072  0.1440
24264W        W43798  19.288  15.814  10.307  0.1619 -0.0653  0.0625
24265W        W43799   1.600   2.948  12.541 -0.1744  0.0419 -0.1943
24266W        W43800  10.451  18.716  12.155  0.0534  0.1960  0.3733
24267W        W43801  18.596  17.481   0.593  0.2260  0.0812 -0.1747
24268W        W43802   5.161  17.221   0.795  0.0257 -0.0843 -0.1045
24269W        W43803   8.483  16.319  11.635  0.0364 -0.0811 -0.4122
24270W        W43804  19.392  17.415   2.453 -0.3140  0.1226 -0.2488
24271W        W43805  10.639   3.597  14.283 -0.3502 -0.0828  0.1849
24272W        W43806  11.631   7.521  14.104 -0.0320 -0.1450  0.2159
24273W        W43807  18.055   1.465   3.133 -0.1938  0.0213  0.0151
24274W        W43808  11.845  18.355  10.700 -0.0186 -0.0924 -0.0604
24275W        W43809  13.932  14.817  11.890  0.0602 -0.1387 -0.0580
24276W        W43810   6.501  19.364  11.349 -0.0895  0.0651  0.2875
24277W        W43811   3.099  14.875   1.294 -0.0391 -0.1548 -0.0369
24278W        W43812   0.185  15.094  12.580  0.0002 -0.2063 -0.1727
24279W        W43813  12.422   7.019   0.346 -0.0910  0.0755 -0.4021
24280W        W43814  12.275   1.749   0.300 -0.2598 -0.0059 -0.2718
24281W        W43815   0.757  17.727   2.401 -0.0900  0.1240 -0.1305
24282W        W43816  10.875  11.768  10.734  0.1855  0.1676 -0.0437
24283W        W43817  15.267  17.028   8.819  0.2885  0.1295  0.2775
24284W        W43818   5.044  16.908   4.778  0.1278  0.1706 -0.0021
24285W        W43819  12.253   9.999   9.302 -0.3349 -0.3199  0.2568
24286W        W43820  18.706  19.174   3.431 -0.1411  0.2608  0.0073
24287W        W43821  11.576  14.699   1.453  0.0065  0.1230  0.1413
24288W        W43822  18.421   0.299  11.527  0.0919 -0.0526 -0.2165
24289W        W43823   8.355  10.710   9.696 -0.1087  0.0987  0.1026
24290W        W43824  16.322   6.418  12.058 -0.0747 -0.1892  0.2601
24291W        W43825   8.160   0.964  12.524 -0.2628  0.2032 -0.1025
24292W        W43826   0.356  17.918   9.312 -0.4383 -0.1312 -0.2911
24293W        W43827  18.911  10.657  11.883  0.0195 -0.2245  0.1174
24294W        W43828  13.611  10.886  13.697 -0.2478 -0.3467 -0.0995
24295W        W43829  13.166  19.201  11.538 -0.2537 -0.0090 -0.3244
24296W        W43830  13.872   4.732  12.219  0.2348 -0.0193  0.2288
24297W        W43831  16.499   3.504   2.827  0.0212 -0.3834  0.0879
24298W        W43832   2.612  18.222  13.178  0.1208 -0.1072  0.0617
24299W        W43833   8.733   6.600  12.051 -0.1859  0.3497  0.1668
24300W        W43834   0.154   8.850  12.960  0.0872  0.0652 -0.0017
24301W        W43835   9.025   3.587  10.874 -0.0376 -0.3396 -0.0670
24302W        W43836   1.736   6.883   3.947  0.1607  0.0600  0.3594
24303W        W43837   4.836   8.463  11.980  0.1993 -0.2076 -0.0731
24304W        W43838   4.072  19.235  12.905  0.0917  0.0547  0.0325
24305W        W43839  16.939  10.446   4.724  0.0672  0.0540  0.1543
24306W        W43840   7.403  15.648   1.548  0.4016  0.1049 -0.1871
24307W        W43841   1.719   4.797   2.896  0.0224 -0.3044  0.1697
24308W        W43842   2.813  13.532  13.212 -0.1251  0.2490  0.0454
24309W        W43843   2.189   1.198  10.959 -0.1002 -0.1469 -0.1955
24310W        W43844  10.513   2.007  12.384 -0.1890  0.2886 -0.0647
24311W        W43845  12.163  14.785   0.650 -0.1019  0.2205  0.2111
24312W        W43846  19.507   6.530   5.087  0.0752 -0.0223  0.0787
24313W        W43847  14.827  14.610  10.823 -0.0109 -0.0922  0.0646
24314W        W43848   2.874  17.409   2.338 -0.0347  0.1786 -0.2672
24315W        W43849  13.917  10.195   1.147 -0.3287 -0.0675 -0.1711
24316W        W43850   7.166   9.472  10.951  0.0810 -0.2111 -0.2477
24317W        W43851  13.361  14.501  10.411 -0.0792 -0.1222 -0.0776
24318W        W43852  17.923  16.133  10.615 -0.5027  0.1989 -0.0085
24319W        W43853   7.827  11.264   2.651  0.1170  0.1063 -0.4051
24320W        W43854  17.020  18.600  13.290 -0.1861 -0.3251 -0.1165
24321W        W43855  14.362  18.189  14.283  0.1109  0.1554 -0.0544
24322W        W43856  12.102  15.366   3.380  0.0953 -0.1693 -0.0050
24323W        W43857  19.183   0.031  12.012  0.2025  0.1200 -0.0532
24324W        W43858   6.009   4.018  13.831  0.0584  0.0261 -0.0661
24325W        W43859   5.574  17.150   1.604 -0.2032 -0.0187  0.4703
24326W        W43860   3.532   3.835  12.984 -0.0858  0.2786 -0.1685
24327W        W43861  11.528   4.585   3.681  0.0621  0.0564 -0.3343
24328W        W43862   1.481   6.757  14.264  0.1511  0.0182 -0.0405
24329W        W43863   3.947  15.437  10.550  0.2128 -0.0671  0.0184
24330W        W43864   9.355   4.005   3.857 -0.0358 -0.1252 -0.0363
24331W        W43865  10.096  17.255   2.103  0.4767 -0.0753  0.1932
24332W        W43866   6.996   6.881  11.954  0.0298 -0.1619  0.4900
24333W        W43867   2.730  15.936  13.556 -0.0961 -0.1516 -0.1143
24334W        W43868   0.923   7.479   5.048  0.0542 -0.1198  0.0798
24335W        W43869  11.835   5.104  13.858 -0.2026  0.0650  0.3051
24336W        W43870   5.301  15.678   5.228 -0.0614  0.5314  0.3132
24337W        W43871  18.455   4.705   1.476  0.1075  0.2375 -0.0065
24338W        W43872   5.497  18.083   2.634 -0.3311  0.4335 -0.2252
24339W        W43873   7.533  17.834   0.557  0.0527 -0.2443 -0.0723
24340W        W43874  12.154   1.991  11.913 -0.3296 -0.2942 -0.1532
24341W        W43875   6.378  15.100  14.039  0.0014  0.1537  0.0537
24342W        W43876   4.883  19.419  12.371 -0.0395  0.1437  0.2429
24343W        W43877  12.973   0.182  14.108  0.1235 -0.0137  0.0608
24344W        W43878  15.570  11.115  12.807  0.0748 -0.0364  0.0988
24345W        W43879  15.967   8.375   3.301 -0.0628 -0.1381 -0.1195
24346W        W43880   3.038  17.475   0.638 -0.0196  0.2654  0.4731
24347W        W43881   5.975   8.532  11.480  0.0329 -0.1019  0.1478
24348W        W43882   6.513  12.028  14.094  0.0544 -0.0825  0.0450
24349W        W43883  19.087   7.071   2.619 -0.3502  0.0837  0.4442
24350W        W43884   7.596  14.164   2.756  0.1616  0.1705 -0.1673
24351W        W43885  19.282   2.408  11.859 -0.0324  0.1026  0.1713
24352W        W43886   2.911  13.036  12.547 -0.2421 -0.0668 -0.0022
24353W        W43887  10.557   0.716   2.149 -0.2665  0.2024 -0.1429
24354W        W43888  16.993  16.349   0.020  0.1332 -0.1251  0.0503
24355W        W43889  11.819  12.904  12.334 -0.0033  0.0727  0.0857
24356W        W43890   1.366  16.068   0.808 -0.1389 -0.0491  0.0011
24357W        W43891  14.540   6.743  10.405  0.1930  0.4711  0.1622
24358W        W43892   7.489  13.522  12.162 -0.1451 -0.0042  0.0333
24359W        W43893  14.900   1.748   1.055 -0.0243  0.0981 -0.0139
24360W        W43894   1.490  17.607  10.322  0.0841 -0.2729 -0.0717
24361W        W43895  18.185   8.293  12.998  0.0211 -0.1076 -0.1879
24362W        W43896  14.531   1.491   4.061  0.0227 -0.1003  0.0715
24363W        W43897  15.544   3.807  13.765 -0.1998 -0.0168  0.0542
24364W        W43898   0.283  16.268  14.325  0.1429 -0.3153  0.0169
24365W        W43899   8.853  12.224   1.790 -0.0488 -0.0592 -0.0701
24366W        W43900  11.871  12.754   0.992 -0.0816 -0.1209 -0.0266
24367W        W43901  15.090  12.418  14.290 -0.2659  0.0800 -0.2497
24368W        W43902  13.159   5.397   0.321  0.1716 -0.1822  0.0226
24369W        W43903  17.618   2.502   2.816 -0.2337 -0.1048 -0.1095
24370W        W43904  18.248  14.818   0.760 -0.2360 -0.1403  0.3229
24371W        W43905  18.710  17.509  13.754  0.0761  0.0297 -0.0223
24372W        W43906   0.633  18.226   1.769 -0.0438 -0.0976 -0.2058
24373W        W43907   2.150  16.773  10.969 -0.0228 -0.2672  0.1491
24374W        W43908   7.724   5.864  12.874 -0.1045 -0.1127  0.0458
24375W        W43909   3.374  17.739  11.440  0.0796  0.1850 -0.0103
24376W        W43910  15.213  10.388   3.406 -0.4158 -0.0506 -0.3007
24377W        W43911  15.915  12.257   3.263  0.0466 -0.0440 -0.1535
24378W        W43912   9.108   3.514  11.342 -0.2388  0.0382  0.2468
24379W        W43913  16.913  19.390   3.664 -0.0430  0.1014  0.1408
24380W        W43914   0.140  19.484   0.968 -0.0552  0.1622  0.2375
24381W        W43915  17.433  16.964  12.018  0.2794 -0.0637 -0.1234
24382W        W43916   9.459   4.099  13.033  0.0050  0.0359 -0.4690
24383W        W43917   6.388   6.571  11.186  0.1505  0.0361  0.1887
24384W        W43918  13.462   3.082  13.536  0.1667  0.0768 -0.0088
24385W        W43919   6.296   0.237   1.429 -0.0564 -0.4910 -0.1403
24386W        W43920  17.356  14.766  10.931  0.2693  0.3922 -0.0017
24387W        W43921  17.671   9.864  11.723  0.2844  0.0762  0.3787
24388W        W43922  10.095  16.877  11.674  0.0596  0.1199  0.1759
24389W        W43923  13.699  13.092   3.931 -0.0401 -0.0691 -0.1958
24390W        W43924  13.551  12.832  10.315  0.0844 -0.4130  0.2474
24391W        W43925   6.127   4.611   1.412  0.1798  0.1640 -0.0409
24392W        W43926  12.249  15.359  11.881 -0.0642  0.1515 -0.0970
24393W        W43927   7.839   4.680  12.904  0.2964  0.3356 -0.0206
24394W        W43928  11.673  10.682  12.001  0.0295 -0.3536  0.3402
24395W        W43929  14.218   1.191   1.595  0.2467 -0.1097 -0.1939
24396W        W43930   1.832   7.040  13.790  0.0561  0.0355 -0.3194
24397W        W43931  18.815   3.063   5.148  0.0434 -0.0470 -0.2850
24398W        W43932   4.046  11.352   4.100  0.0264  0.1516 -0.4750
24399W        W43933  10.609  15.842   1.428  0.1856 -0.2826  0.0552
24400W        W43934   2.206  15.868  13.832 -0.2722  0.1399 -0.0395
24401W        W43935   1.046  11.151   0.570 -0.2452  0.1485 -0.0318
24402W        W43936   0.286   7.380   1.838  0.0767 -0.1188 -0.1716
24403W        W43937   9.622   6.328  10.296  0.0593  0.1788  0.0832
24404W        W43938   8.955  18.442   1.802  0.0344  0.1923 -0.1207
24405W        W43939  15.036   6.737  11.637  0.2560  0.2129 -0.1011
24406W        W43940  10.450   1.776   3.235  0.1254  0.2243  0.2599
24407W        W43941  17.113  14.826  12.384 -0.2102 -0.2133  0.1323
24408W        W43942  13.609  11.844  12.161 -0.2909  0.2307 -0.3997
24409W        W43943   3.894   2.177   3.098  0.0370  0.2512  0.1486
24410W        W43944   2.780   9.024   1.861  0.0044  0.2960  0.1368
24411W        W43945   8.198   2.369  14.163 -0.0865  0.2282  0.4020
24412W        W43946  16.920   4.100  10.534 -0.0815 -0.5460 -0.1256
24413W        W43947  14.290   3.779   3.979  0.1870 -0.0279 -0.1354
24414W        W43948   3.247   5.748  13.310  0.1983 -0.0999 -0.0933
24415W        W43949   5.572  10.580   1.227 -0.2921  0.3513  0.3085
24416W        W43950  13.742  10.994  11.613  0.0362 -0.0655 -0.0160
24417W        W43951  14.421   7.004   2.973  0.2055 -0.0520 -0.0408
24418W        W43952   2.294   8.284   3.537  0.3092 -0.0945  0.0534
24419W        W43953  12.216   3.766   3.554  0.0382 -0.3268  0.1227
24420W        W43954  18.037   1.559   0.290  0.3338 -0.0781  0.3191
24421W        W43955   3.306   0.955  13.875 -0.1367  0.2189 -0.0084
24422W        W43956  11.284   6.600  11.979  0.0823 -0.0488 -0.3194
24423W        W43957   4.229  18.762  12.726 -0.0860 -0.3679  0.2026
24424W        W43958   6.161   7.909  13.896  0.0254  0.3896  0.0527
24425W        W43959  16.137   2.484   1.806  0.0210 -0.1673 -0.3131
24426W        W43960  14.077  13.543   0.618 -0.0316 -0.0675 -0.2063
24427W        W43961  12.200   8.791  10.112 -0.3062  0.1374 -0.0698
24428W        W43962   5.809  19.077  11.857 -0.1297 -0.2478  0.0125
24429W        W43963  16.978  16.070   3.365 -0.0127 -0.2260 -0.1347
24430W        W43964   2.449  16.555   1.989 -0.1283  0.3115 -0.2015
24431W        W43965  13.215  10.499  13.804 -0.0180 -0.3256 -0.0463
24432W        W43966  12.129  10.330  12.587 -0.0699  0.0046 -0.1893
24433W        W43967   2.024  11.210   2.188 -0.0139  0.2867  0.0488
24434W        W43968  13.262   9.519  13.810  0.2834 -0.0056  0.0922
24435W        W43969   3.612   4.027   1.021  0.0034 -0.0466 -0.0345
24436W        W43970   8.199  18.513  12.028  0.1744  0.0227 -0.0841
24437W        W43971   5.380  14.797  14.087  0.0753 -0.0989  0.0171
24438W        W43972   7.001  15.400  11.988  0.2562 -0.0708  0.3239
24439W        W43973  12.729   2.328  13.761 -0.3862 -0.0717 -0.1961
24440W        W43974  17.716   2.772  10.397  0.1270 -0.4318 -0.0919
24441W        W43975  12.771   8.812  14.277 -0.2041  0.0927  0.1211
24442W        W43976   5.181   1.323   2.280 -0.1233  0.1582  0.3375
24443W        W43977   2.386   8.507  13.664  0.1266  0.2522 -0.1495
24444W        W43978   9.861   0.000   3.749 -0.0582  0.2349 -0.0819
24445W        W43979  19.088   8.567  13.314 -0.1506  0.2488  0.2320
24446W        W43980  17.225  12.071   3.695  0.3306 -0.0400  0.2288
24447W        W43981   9.671  15.772  12.648 -0.3632 -0.4357 -0.0669
24448W        W43982   9.943   2.803  13.186  0.0212 -0.3025 -0.4069
24449W        W43983  13.497  14.363   2.601 -0.2166 -0.0820  0.1176
24450W        W43984   0.014  15.937   2.379  0.0548  0.0637 -0.2811
24451W        W43985  19.468   7.769   3.376 -0.2086  0.4142 -0.3113
24452W        W43986   9.894  17.827   3.356 -0.2301 -0.1228 -0.2115
24453W        W43987   6.438  16.413  14.189 -0.0648  0.0892 -0.2857
24454W        W43988  15.198  12.551   2.195  0.0662  0.0286 -0.0017
24455W        W43989   6.330   6.304   0.551 -0.1658 -0.0011 -0.0291
24456W        W43990   2.688   5.037   1.622 -0.0808 -0.0874  0.0096
24457W        W43991   1.306   3.153  12.990  0.0559  0.0959  0.1475
24458W        W43992   2.432   4.932  10.352  0.0261  0.3517 -0.2382
24459W        W43993  13.882   3.297   2.577 -0.0253 -0.2545 -0.2223
24460W        W43994  12.275  16.104  12.881 -0.3559 -0.0090  0.1917
24461W        W43995  11.894   2.852   1.753 -0.1350 -0.3610 -0.1590
24462W        W43996   7.720   0.659  12.706  0.1199  0.2944 -0.1155
24463W        W43997   4.681  11.598   0.864 -0.2796  0.1935  0.2690
24464W        W43998   8.615  15.244   1.390 -0.1572  0.0580 -0.0656
24465W        W43999   8.787   6.289   5.004  0.1432 -0.0199  0.2985
24466W        W44000   3.122  19.273  13.355  0.0060  0.0847  0.1581
24467W        W44001  16.834  13.740   2.434  0.1069  0.0234  0.1033
24468W        W44002   3.584  19.193   4.149  0.2040 -0.3370  0.1619
24469W        W44003   5.874  17.309   2.636 -0.1266  0.2908  0.1511
24470W        W44004   0.845   9.121   1.545  0.2419  0.1540  0.4267
24471W        W44005   6.349  12.497   4.647 -0.0145 -0.0550  0.0296
24472W        W44006  13.796   1.825   2.547  0.1908  0.2463  0.1757
24473W        W44007   3.227  17.322  13.257  0.1650  0.1025 -0.0554
24474W        W44008  19.310  12.746  12.180 -0.0905  0.0999  0.0359
24475W        W44009  13.323   7.849  10.499  0.4017  0.1970 -0.0863
24476W        W44010   9.398   6.921   4.197  0.0586  0.0454 -0.0056
24477W        W44011  10.879   2.964   0.451  0.1621 -0.2014 -0.0411
24478W        W44012  16.631   4.629   2.318 -0.0151 -0.0746  0.0763
24479W        W44013  10.779   0.317   4.214  0.0518 -0.3217 -0.3069
24480W        W44014   8.999  10.614   1.987  0.4086  0.1756  0.1170
24481W        W44015   0.033   1.211  12.363 -0.2607 -0.5315 -0.0782
24482W        W44016   1.501   3.006   2.117 -0.1669 -0.0401 -0.1249
24483W        W44017   9.652   1.290  10.394 -0.1796 -0.0072 -0.1088
24484W        W44018  17.120  14.089  13.621 -0.2347  0.2855  0.0396
24485W        W44019   2.979   9.778  12.279 -0.0114  0.0102 -0.4680
24486W        W44020   1.652  14.674   1.310 -0.3717 -0.0081  0.1974
24487W        W44021  16.683   7.231  12.713 -0.3307 -0.1216 -0.0480
24488W        W44022  12.396   1.520  10.974  0.2248  0.1481 -0.1308
24489W        W44023   5.669  11.753   3.527  0.1135  0.0323 -0.3615
24490W        W44024  13.433  15.346   5.207 -0.0495 -0.3765 -0.0755
24491W        W44025   7.896  15.385   0.566 -0.1657  0.3954  0.0843
24492W        W44026  18.469   6.840   1.316  0.1292  0.2468 -0.0516
24493W        W44027  19.364   2.430   0.189  0.2553  0.2640 -0.0239
24494W        W44028  15.719  13.225  12.487 -0.3803  0.1460 -0.2341
24495W        W44029  17.777  18.644  13.958 -0.1066 -0.0481  0.1495
24496W        W44030   8.683   9.808   2.277 -0.1662 -0.3643 -0.0913
24497W        W44031  10.000   1.709  12.936 -0.0390 -0.1048 -0.1314
24498W        W44032   1.377   2.343  12.452  0.0870 -0.3704 -0.0747
24499W        W44033   3.006   9.485  13.491  0.1026 -0.0904  0.1623
24500W        W44034   9.635   8.357  11.123  0.2333  0.1566  0.2220
24501W        W44035   7.077   2.968   1.927 -0.2869  0.2244  0.0754
24502W        W44036   6.396   4.960   0.199  0.0206 -0.0770  0.1359
24503W        W44037  12.902  19.398  12.881 -0.0265  0.4038 -0.4511
24504W        W44038  17.701  12.572   3.243 -0.0786 -0.0004 -0.0500
24505W        W44039   9.787  19.480   1.169 -0.2362 -0.0042 -0.4257
24506W        W44040  15.141  19.073   9.828 -0.2570  0.0344  0.1060
24507W        W44041   1.730   7.612   1.167 -0.2307  0.3024 -0.1789
24508W        W44042   7.618   7.545   1.925  0.0374 -0.1582 -0.2317
24509W        W44043  10.824   7.330  12.388 -0.0787 -0.1416  0.1059
24510W        W44044   5.102  18.864   4.086 -0.0044  0.1634 -0.2489
24511W        W44045   0.189  10.467  10.888 -0.0050  0.0598  0.0594
24512W        W44046   2.885   9.263   2.307 -0.0913 -0.0849  0.1705
24513W        W44047  13.569  17.807  14.004 -0.0415  0.0681 -0.3707
24514W        W44048  17.195   1.050   1.204 -0.2578 -0.0779  0.1709
24515W        W44049   3.876   5.174   3.020  0.3734  0.3421 -0.0286
24516W        W44050   1.901   0.934   0.812 -0.0704  0.1781 -0.2435
24517W        W44051   4.330   7.861  13.643 -0.1572  0.0699  0.0010
24518W        W44052   3.464  10.485   2.127 -0.0920 -0.1663 -0.0820
24519W        W44053  19.134  18.552   2.943  0.0134 -0.0837 -0.0600
24520W        W44054   8.676  18.329  11.955  0.0363  0.1416 -0.0194
24521W        W44055   1.003   0.612   0.068 -0.1326 -0.0426 -0.0581
24522W        W44056   1.790  18.615   3.143  0.1548 -0.1306 -0.1363
24523W        W44057   1.759   7.798  13.110  0.1717 -0.1326 -0.1824
24524W        W44058  19.475  16.546  11.606  0.1802  0.1269  0.1988
24525W        W44059  19.039   4.509   5.146 -0.0089 -0.0142 -0.0207
24526W        W44060  13.375   5.865  11.392  0.1179  0.0860  0.1195
24527W        W44061  16.922  13.714   0.188 -0.1291 -0.1593 -0.4125
24528W        W44062   4.219  14.300   2.690 -0.0664 -0.1905  0.1741
24529W        W44063  19.503  10.524  13.231  0.1028  0.0606  0.2394
24530W        W44064  15.711   2.882  12.657  0.2646  0.1322  0.0768
24531W        W44065   8.653  11.926   2.554  0.2357  0.1919  0.1019
24532W        W44066   3.109  14.263  11.761 -0.0854  0.0721  0.2335
24533W        W44067   9.017   2.117   2.698 -0.1119  0.1240  0.0106
24534W        W44068   3.790  14.194  10.919 -0.0739 -0.4026  0.2701
24535W        W44069   3.165   0.944   0.889 -0.1796  0.1114  0.0874
24536W        W44070   5.360   5.240  11.065 -0.0116  0.0565 -0.2658
24537W        W44071   8.750  10.781  10.953 -0.0874 -0.0683  0.2595
24538W        W44072  14.170  10.944   1.456  0.2963  0.0536  0.1412
24539W        W44073   1.522   6.031   3.512  0.0689 -0.2583 -0.1547
24540W        W44074  12.004   0.977  11.828 -0.1014  0.4114 -0.1617
24541W        W44075   4.670   9.884   4.126 -0.0032 -0.2503  0.0350
24542W        W44076   0.709   5.981   1.586  0.0639 -0.2228 -0.1832
24543W        W44077   3.833  16.304   3.831 -0.1342  0.0151  0.0181
24544W        W44078  19.143   5.729   2.304  0.0790 -0.2423 -0.1089
24545W        W44079   4.852   5.597   0.675  0.2573  0.3887  0.1389
24546W        W44080   8.732  16.610   1.775 -0.1400  0.0792 -0.2061
24547W        W44081  11.286   0.984   0.862  0.3860 -0.1422  0.0474
24548W        W44082  11.897   5.131  11.941  0.2486 -0.1617  0.0770
24549W        W44083  15.408   2.985   2.909 -0.0955 -0.3807  0.2641
24550W        W44084  14.135  10.266   9.476  0.0121  0.0836  0.3474
24551W        W44085   5.286   6.556   4.104  0.0881  0.2386 -0.0163
24552W        W44086  17.896  15.354   4.793 -0.2362 -0.0538 -0.0745
24553W        W44087  12.789  19.181   1.860 -0.2632  0.0936 -0.0705
24554W        W44088   5.292   4.612   2.952  0.5094 -0.0609 -0.2454
24555W        W44089  17.541   3.708   1.138  0.0111 -0.0268  0.1863
24556W        W44090   3.063  13.694   2.970 -0.1813  0.0447  0.0728
24557W        W44091  10.097   0.430   1.243 -0.2068  0.1629  0.1542
24558W        W44092   3.518   2.990   2.986  0.0052  0.1845 -0.1880
24559W        W44093  11.643   6.835   1.166  0.2485 -0.0367 -0.0635
24560W        W44094  17.516  16.366   2.000 -0.2717 -0.1293  0.1195
24561W        W44095  14.310  18.190   0.385  0.0833 -0.2759  0.1912
24562W        W44096   5.358  13.020  12.312 -0.3320 -0.1769  0.1334
24563W        W44097   1.886   9.355   3.752 -0.1081  0.2037 -0.0984
24564W        W44098  14.133  13.480  11.153  0.1066 -0.0713  0.0559
24565W        W44099  17.667  19.095   3.226 -0.0301  0.0293  0.1117
24566W        W44100  15.730   3.372   2.872 -0.1979 -0.1925 -0.0056
24567W        W44101   3.242  11.808  13.791 -0.1565  0.1486 -0.0508
24568W        W44102   2.851  12.889  11.251  0.0544 -0.2131  0.2785
24569W        W44103   4.539  19.128   2.223  0.0098  0.0251  0.0029
24570W        W44104  16.126  15.444  14.075 -0.1745  0.2289 -0.0997
24571W        W44105  17.832  11.995   1.850  0.1749 -0.0961  0.3603
24572W        W44106   2.345  14.667  11.933 -0.1582 -0.4672  0.2782
24573W        W44107  16.995  14.623  10.607  0.0765  0.0015  0.2260
24574W        W44108  12.638  13.637  12.575  0.0906  0.1427  0.0270
24575W        W44109   7.904   7.609  12.648  0.1880  0.0516 -0.2189
24576W        W44110   0.256  13.388   4.034 -0.2479 -0.1686  0.0464
24577W        W44111  11.102  12.534  13.111  0.0584  0.0562 -0.2276
24578W        W44112   8.979   5.516  11.058  0.2172 -0.1326 -0.0020
24579W        W44113  19.259  10.280  12.125  0.2780 -0.0871 -0.1361
24580W        W44114  17.478  14.107   1.166  0.0961  0.0959  0.1738
24581W        W44115   5.918   9.647   1.331 -0.1857 -0.2137 -0.3162
24582W        W44116  17.603  14.373  10.173 -0.1139  0.0943 -0.0552
24583W        W44117  12.570  11.839  12.346  0.2147  0.0448  0.1436
24584W        W44118   5.406   5.509  12.803  0.2066 -0.2256 -0.1856
24585W        W44119   3.076   5.517  11.420  0.0883 -0.0467 -0.1401
24586W        W44120   7.335  12.682   4.224  0.1695 -0.2876 -0.1660
24587W        W44121   8.340   1.547   9.818 -0.1135 -0.0090 -0.1031
24588W        W44122  14.669   9.282  11.416 -0.4270 -0.1349  0.0496
24589W        W44123   6.515  15.514   2.175  0.0054  0.0790  0.1604
24590W        W44124   5.800   7.646   2.902 -0.3292 -0.1213  0.0426
24591W        W44125   7.409   3.943  10.827 -0.2118 -0.0813  0.1668
24592W        W44126   9.937   6.119  12.392  0.0010  0.0420 -0.0868
24593W        W44127  14.301   2.450   2.444 -0.0301 -0.5386 -0.2008
24594W        W44128   5.660   6.422  11.784  0.2096  0.1186  0.1169
24595W        W44129  16.769   9.965  13.257 -0.0768 -0.0158 -0.0795
24596W        W44130   0.659   4.003  13.789  0.1082 -0.1034  0.4529
24597W        W44131  19.014  18.715  12.665  0.0248 -0.1733 -0.3397
24598W        W44132   1.228   2.615   1.980  0.0645  0.2044  0.1679
24599W        W44133   3.914  15.157   3.463  0.0999 -0.0596  0.1585
24600W        W44134   1.334   9.739   2.990 -0.0289 -0.0578  0.3413
24601W        W44135   7.880  17.550   0.242  0.3657 -0.3873  0.3296
24602W        W44136   4.629   2.354   1.247  0.1498  0.0122  0.0523
24603W        W44137   9.458  13.302  11.536  0.3513 -0.0581  0.0823
24604W        W44138  11.097   9.351  11.879 -0.0563 -0.0606 -0.3112
24605W        W44139  12.682   9.397   0.980  0.3350  0.1601 -0.1055
24606W        W44140   9.213   0.431  11.780  0.1843  0.1680  0.0389
24607W        W44141   0.161  18.223  13.831 -0.1293 -0.1134 -0.1288
24608W        W44142  15.610  12.270   2.447 -0.2710 -0.2944 -0.3503
24609W        W44143  18.157  14.806   3.587 -0.3056  0.0081 -0.3582
24610W        W44144  17.939   9.051   0.013 -0.0001  0.1490  0.0863
24611W        W44145  18.784  12.398   2.970 -0.1133 -0.0708 -0.0639
24612W        W44146  10.513   2.382   1.318 -0.1113  0.1235 -0.1620
24613W        W44147   9.474   0.940   2.448 -0.0366 -0.1464 -0.0720
24614W        W44148  10.104   2.569   1.539  0.1855  0.3339 -0.2032
24615W        W44149   6.569   8.699   3.360 -0.1351 -0.1104 -0.1156
24616W        W44150   5.872  10.976   1.281 -0.2340 -0.0811  0.0742
24617W        W44151  13.099   1.129   0.802  0.4009  0.3516  0.0367
24618W        W44152  15.159   8.153   2.490 -0.0245 -0.0817 -0.0165
24619W        W44153  11.540   9.135   2.050  0.0740 -0.1821 -0.0998
24620W        W44154   4.179   5.706  11.568 -0.1141 -0.0196 -0.0081
24621W        W44155   4.674  12.161   2.340 -0.0853  0.0195  0.2632
24622W        W44156  13.663  10.060  10.905 -0.1247 -0.2803 -0.0095
24623W        W44157  13.634   4.058   0.617  0.1734  0.1730  0.2593
24624W        W44158   2.095   9.701   0.284 -0.0542  0.2425 -0.3204
24625W        W44159  11.571  19.273  12.439 -0.0921 -0.2265  0.0336
24626W        W44160   4.390   1.804  13.036 -0.1314  0.0387 -0.0319
24627W        W44161   9.207   6.651   3.776 -0.1475  0.2828 -0.1335
24628W        W44162   2.382  19.341   0.860 -0.2452 -0.2659 -0.2290
24629W        W44163  14.881  13.487  10.417 -0.0936  0.2750  0.1053
24630W        W44164   4.042  14.675  12.572 -0.3090  0.1117 -0.2290
24631W        W44165  13.660   6.094   2.777 -0.0813  0.0527  0.0342
24632W        W44166  17.403  15.702  11.044  0.1480  0.3156 -0.1500
24633W        W44167   6.967   6.485  14.182  0.4427  0.1124  0.2273
24634W        W44168  13.756  14.808  13.134 -0.1229  0.1239  0.0825
24635W        W44169   9.226   7.809   4.274  0.0537  0.0304  0.0620
24636W        W44170  11.675   6.088   0.734 -0.0364  0.2219 -0.0119
24637W        W44171  11.932   0.866   0.046  0.0467 -0.2192  0.0382
24638W        W44172  18.910  14.780   1.423  0.0231  0.0844  0.0857
24639W        W44173  17.425   4.380  12.113 -0.2666  0.2413  0.1379
24640W        W44174  10.617   0.154  12.448  0.3633 -0.0673 -0.0915
24641W        W44175  14.726  17.942   0.120  0.1490 -0.0418  0.0355
24642W        W44176  11.127   0.717   2.574  0.1602 -0.2864  0.1010
24643W        W44177  17.483  14.576   0.033  0.2268 -0.1700 -0.0943
24644W        W44178  17.226  15.110   2.078 -0.0421 -0.2966 -0.1404
24645W        W44179  10.271  15.669  10.925 -0.1243  0.0526 -0.0564
24646W        W44180   8.356  18.047   3.493 -0.0703  0.1869  0.2458
24647W        W44181   8.919   7.805  12.525 -0.3236  0.1574 -0.1280
24648W        W44182  16.005   5.160  13.437  0.1268  0.0389  0.0248
24649W        W44183   5.297   0.640   0.972  0.0934 -0.1102 -0.1381
24650W        W44184   8.944   1.882   3.120  0.0780 -0.1376  0.1330
24651W        W44185  10.221  11.551  13.729  0.2511 -0.0602  0.1418
24652W        W44186   6.676  16.352  13.714  0.0275 -0.1341  0.0799
24653W        W44187   0.955  17.746  13.350  0.1334 -0.0565 -0.2169
24654W        W44188   2.364   2.244   1.326  0.0031 -0.4115  0.0300
24655W        W44189  15.141   0.718   3.033  0.0810  0.1074 -0.2573
24656W        W44190  14.016   3.509  11.913 -0.3026  0.0573 -0.1615
24657W        W44191  14.694  12.423   1.637 -0.0774 -0.1310  0.0845
24658W        W44192  16.936   4.321   1.268 -0.2284  0.2047  0.0181
24659W        W44193  15.078  18.804  10.548  0.3373  0.2174  0.2015
24660W        W44194   6.293  11.347   3.973  0.1967  0.1039  0.1807
24661W        W44195  18.818   3.144  14.089 -0.1259  0.4964  0.2552
24662W        W44196  12.215  12.729   3.786  0.0027  0.3022 -0.0028
24663W        W44197   6.077   6.955  11.682 -0.0656 -0.0456 -0.0668
24664W        W44198   7.429   1.980   2.633  0.2006 -0.0484 -0.2453
24665W        W44199   2.502   6.495  11.922  0.1850  0.2835 -0.0386
24666W        W44200   6.847   2.392   2.230  0.2793  0.2285 -0.3035
24667W        W44201  16.556  15.891   1.745  0.1623  0.0099  0.1790
24668W        W44202  11.321   9.020   2.924 -0.0650  0.3205  0.0911
24669W        W44203   6.039  15.219   0.030 -0.1620  0.1590 -0.1509
24670W        W44204   7.944   6.112  11.370 -0.0257 -0.0996 -0.1364
24671W        W44205   7.680   2.435  13.400  0.0473  0.1769  0.0697
24672W        W44206  18.829   9.497  12.273 -0.0351  0.0217 -0.2798
24673W        W44207   1.311   0.885  10.488 -0.1970  0.3828 -0.0753
24674W        W44208   9.203  18.730   0.353  0.3719  0.0869  0.0965
24675W        W44209   8.991  13.962   2.723 -0.2840 -0.3649 -0.0486
24676W        W44210  14.485   9.900  14.318  0.2789  0.0091 -0.1531
24677W        W44211   5.760   7.124   1.529  0.1166 -0.0489 -0.1186
24678W        W44212   1.703   3.606   3.786  0.3423  0.0284  0.0676
24679W        W44213   4.110  10.004   1.556  0.0279 -0.3098 -0.3137
24680W        W44214  11.124  16.212   4.779 -0.4515 -0.2377  0.1529
24681W        W44215   7.429   4.845   0.293  0.0142 -0.1693  0.2721
24682W        W44216   4.067   4.420   2.571  0.0950 -0.0355 -0.2563
24683W        W44217   0.521   0.153   4.366 -0.0036 -0.0921 -0.3100
24684W        W44218   5.204   2.508   2.033  0.1089 -0.1453  0.2200
24685W        W44219  15.107  17.698   1.589  0.1601 -0.1761  0.3073
24686W        W44220   5.490   4.987   1.488 -0.1827 -0.0092 -0.1644
24687W        W44221  17.900   4.476   3.289 -0.0904 -0.0236 -0.0293
24688W        W44222  18.200   7.330   1.237 -0.2436 -0.0480 -0.3120
24689W        W44223  16.623  12.476   1.723 -0.1755 -0.1479  0.0298
24690W        W44224  16.498  12.413   3.460 -0.0126 -0.2294 -0.2737
24691W        W44225  19.069  16.614  14.025  0.1233 -0.2770 -0.2379
24692W        W44226  16.198  17.178   2.573 -0.2098 -0.1659 -0.0320
24693W        W44227  12.502  14.681  11.967 -0.0265 -0.2546  0.1383
24694W        W44228   5.843  15.511   0.901  0.0226  0.0289 -0.1227
24695W        W44229  13.355   3.816   1.781  0.6246 -0.1002  0.2318
24696W        W44230   0.783  11.687  10.986 -0.2212 -0.2453  0.2771
24697W        W44231  17.764  18.807  12.199 -0.1083 -0.0140 -0.1961
24698W        W44232   7.347   0.770   0.215  0.0915  0.2488 -0.1712
24699W        W44233  12.760  15.337  10.827  0.1122  0.0141 -0.1902
24700W        W44234   7.736   8.145  13.828 -0.0147  0.1075 -0.0900
24701W        W44235   9.609   4.856  12.503 -0.2209  0.2588  0.1118
24702W        W44236   1.018  18.525  13.802  0.1725  0.0722  0.1051
24703W        W44237  14.791  10.351   8.777  0.1211 -0.2148 -0.0791
24704W        W44238  18.366   9.765  12.302  0.0994  0.0046 -0.1004
24705W        W44239  14.102   7.002  10.245  0.1552  0.1704 -0.0490
24706W        W44240   8.613   9.719   0.913  0.3873  0.0531 -0.0748
24707W        W44241  16.332   5.140   3.781  0.0268 -0.0523 -0.0222
24708W        W44242   1.332  11.112   2.656 -0.3364 -0.1397  0.4389
24709W        W44243   6.629  18.576  12.620  0.0556  0.1560 -0.1498
24710W        W44244   5.126   1.013   9.259  0.0135 -0.3777 -0.1398
24711W        W44245  13.733   5.928   4.927  0.0393 -0.1996 -0.1712
24712W        W44246   7.284   4.236   0.919 -0.0138 -0.0887 -0.0122
24713W        W44247  17.712  15.014   2.393  0.1323 -0.0757 -0.3622
24714W        W44248   4.875   7.358   0.806 -0.3249  0.1446  0.1252
24715W        W44249   0.449   7.483   2.645  0.0132 -0.1869 -0.1418
24716W        W44250   8.761  15.260  12.376 -0.0781 -0.0833  0.1244
24717W        W44251   6.036   3.530  14.020  0.1105  0.1516 -0.0072
24718W        W44252   9.253   0.960  10.517  0.2311 -0.0782 -0.1475
24719W        W44253  14.357  18.820   4.530 -0.1380  0.2572  0.1844
24720W        W44254   2.246  10.978  11.980  0.2477 -0.0145 -0.0815
24721W        W44255   4.659   3.395   1.860 -0.0301 -0.1457  0.0869
24722W        W44256  13.968   2.900   2.863  0.1908  0.2522 -0.0577
24723W        W44257  11.828   0.482   1.293 -0.2081 -0.1591  0.0824
24724W        W44258   8.331   8.221   1.918  0.0014 -0.3290  0.1525
24725W        W44259   8.646   8.234   3.134 -0.2433  0.4015 -0.1327
24726W        W44260   7.889   8.663  11.342  0.0515 -0.2292  0.0995
24727W        W44261   8.803   7.499   0.812  0.0093  0.0703 -0.1427
24728W        W44262  17.754   2.515   4.215 -0.0856  0.1943  0.3676
24729W        W44263   8.555   1.789   3.413  0.0225 -0.2197  0.1174
24730W        W44264  17.151  16.619   2.708  0.0930  0.1573 -0.0693
24731W        W44265   8.515  10.542   3.701  0.2521 -0.3165 -0.0401
24732W        W44266  17.050  13.244   3.172  0.0682  0.1746 -0.1515
24733W        W44267   6.163   5.479  12.653  0.2050 -0.0547 -0.3160
24734W        W44268   8.596   9.535   3.966  0.0422 -0.3199 -0.2478
24735W        W44269   5.219  15.485   0.170 -0.1884 -0.1330 -0.1980
24736W        W44270   2.408   4.389  12.944  0.2815 -0.0006 -0.1453
24737W        W44271  11.433   0.240   2.056 -0.0600 -0.1373  0.0123
24738W        W44272   7.978   2.885  14.265 -0.3171  0.1463  0.1366
24739W        W44273   6.979  11.153  13.284  0.0852  0.2400  0.2241
24740W        W44274   8.933   4.497  11.428  0.0173 -0.2530 -0.2829
24741W        W44275   4.569  19.106  14.174 -0.5600  0.4623  0.1133
24742W        W44276  15.335   7.215  10.888  0.0115  0.1298 -0.1854
24743W        W44277  10.198   7.639   0.356 -0.0149 -0.0664 -0.0286
24744W        W44278  16.800  18.291   1.793  0.0170  0.1701 -0.1271
24745W        W44279  13.432   4.761   9.704 -0.0061  0.2755 -0.0243
24746W        W44280   0.489   3.372   3.598  0.1610 -0.4004  0.3191
24747W        W44281   9.066   9.715   3.998  0.0163  0.2994 -0.4209
24748W        W44282  13.313   2.875  12.271  0.0471  0.0447  0.1368
24749W        W44283   9.817   6.312   5.248 -0.3217 -0.4094  0.1608
24750W        W44284  18.572  13.858   2.893 -0.1169  0.1269 -0.1625
24751W        W44285  12.600  13.880   1.981 -0.1079  0.1897 -0.1399
24752W        W44286   5.911   3.862   2.138 -0.1773 -0.0921 -0.0950
24753W        W44287   1.793   9.307   0.134 -0.0543 -0.0438  0.2109
24754W        W44288  14.817  15.463  12.890  0.5066  0.0959  0.0295
24755W        W44289  10.232   5.258  11.443  0.2121  0.1696  0.1066
24756W        W44290  12.069  11.844   4.192  0.4911 -0.1090 -0.1931
24757W        W44291   5.613  10.478  13.028 -0.0554 -0.0248 -0.1849
24758W        W44292  18.807  15.419   3.243  0.1073  0.3880  0.0294
24759W        W44293  16.859  16.465   3.641  0.0261  0.4670 -0.0841
24760W        W44294   7.828   1.010  11.083  0.1143 -0.0661  0.3610
24761W        W44295  16.420  11.220   4.109 -0.0650 -0.1145 -0.0105
24762W        W44296  16.933   7.371  13.629  0.3553 -0.0738 -0.3518
24763W        W44297   9.200   7.359  12.000 -0.0466  0.1919 -0.0268
24764W        W44298  13.992   6.814   1.422 -0.0155  0.1879 -0.0966
24765W        W44299   8.680   9.692  11.502 -0.0651 -0.2680  0.4387
24766W        W44300  10.787   2.638  12.272 -0.0553 -0.0033 -0.2414
24767W        W44301   4.603   1.039   2.566  0.2686 -0.0276  0.0264
24768W        W44302  16.694  17.955   4.234 -0.2761  0.1584  0.0359
24769W        W44303   8.158  11.232  14.048 -0.0783 -0.1505  0.3680
24770W        W44304   7.444   2.002  13.417 -0.3610  0.0077 -0.2130
24771W        W44305  17.560  10.034   2.866  0.1389  0.2129  0.1856
24772W        W44306  10.805   1.074   3.509  0.2698  0.3378  0.3385
24773W        W44307  12.097   2.880  10.136 -0.1286 -0.1197 -0.2319
24774W        W44308   3.676  14.995   3.931 -0.0582 -0.2381 -0.0672
24775W        W44309  10.671   3.455   4.533 -0.0471  0.0040 -0.0937
24776W        W44310   8.456   4.316   0.181 -0.2643 -0.1693  0.0633
24777W        W44311  15.944   3.647  11.007 -0.0576 -0.2193  0.0850
24778W        W44312  14.873  10.792   3.302 -0.0490 -0.1794 -0.0987
24779W        W44313  12.666  19.056   0.794  0.3392  0.1426 -0.0421
24780W        W44314  18.047   4.326  11.362 -0.0341  0.1361  0.4012
24781W        W44315   8.375  11.915   2.998 -0.3397 -0.1479  0.1678
24782W        W44316  16.045  17.389  11.092  0.1609 -0.1871 -0.0032
24783W        W44317   4.449  18.114   9.957  0.2825  0.1608 -0.3997
24784W        W44318   3.453   9.092  12.782  0.3235  0.2513 -0.0105
24785W        W44319  14.394   0.966  13.434 -0.4348  0.1013 -0.0797
24786W        W44320  16.349  14.189  13.330 -0.3501  0.1154  0.1244
24787W        W44321  11.077  10.974   2.435  0.1828  0.0261 -0.1691
24788W        W44322   2.858   3.536  13.571 -0.1552  0.0661  0.1072
24789W        W44323  13.144  14.236   9.783 -0.0000 -0.1309  0.0798
24790W        W44324   0.611  15.139  13.851  0.1915  0.2776  0.1109
24791W        W44325  18.574   5.788   0.524  0.0222 -0.0946 -0.0680
24792W        W44326   8.206   4.552   0.509  0.1642  0.0433 -0.1491
24793W        W44327  10.637  18.862  11.321  0.0842 -0.0879 -0.0169
24794W        W44328   5.426   8.782   4.084  0.2298 -0.2274 -0.0451
24795W        W44329   4.148   2.026   3.534 -0.5006 -0.2026 -0.1090
24796W        W44330   7.690   4.486   0.687  0.0409 -0.0321  0.0439
24797W        W44331   2.100   9.704   3.297 -0.1051 -0.0262 -0.1633
24798W        W44332  17.549  16.888  11.128 -0.0811  0.0025 -0.1426
24799W        W44333   5.117   4.033   2.991  0.2869  0.2341 -0.1266
24800W        W44334  13.370  18.503   1.862 -0.1768  0.1376  0.1151
24801W        W44335  18.262   6.453   3.756  0.3848 -0.1551 -0.3576
24802W        W44336  11.137  12.271   5.058  0.0751  0.0873  0.3276
24803W        W44337   0.041  19.369  12.515 -0.0075  0.2748  0.1380
24804W        W44338  17.306  14.438   0.876 -0.2158  0.1493 -0.1248
24805W        W44339  14.519  18.833   1.562 -0.0087 -0.2030 -0.1464
24806W        W44340  15.683   6.195  12.368  0.1450 -0.1878  0.0749
24807W        W44341  17.773   5.553   2.566 -0.3267  0.0999 -0.3420
24808W        W44342   5.231   9.850  11.638  0.0177  0.0044  0.0425
24809W        W44343   9.603  18.948   0.588  0.1061  0.2330  0.1316
24810W        W44344   8.298   6.649  12.327  0.1293 -0.3362  0.3731
24811W        W44345  14.269  16.477  12.557 -0.3978 -0.2439  0.0773
24812W        W44346   5.762  16.964  13.608  0.2661  0.0565 -0.0489
24813W        W44347   1.408  15.995   4.098 -0.0509  0.1977 -0.0612
24814W        W44348   5.914  11.562   1.870  0.0197  0.2891 -0.0448
24815W        W44349   0.819   2.496  10.337 -0.1726 -0.1177  0.0145
24816W        W44350  16.682  15.867  14.362  0.2031 -0.1476  0.0784
24817W        W44351  12.801   8.792  11.592  0.1107  0.0921  0.4727
24818W        W44352   6.273  12.556  14.260 -0.1638 -0.2722  0.3217
24819W        W44353  16.598  19.282  13.899 -0.0172 -0.0069 -0.0597
24820W        W44354  11.110  17.632  12.626 -0.2302  0.0825  0.3432
24821W        W44355  10.449  13.996  10.186 -0.2459  0.1232 -0.0412
24822W        W44356  12.041  11.114   1.124 -0.0738  0.3253 -0.2233
24823W        W44357   1.719  12.643  11.480  0.0228 -0.2048 -0.1018
24824W        W44358  18.368   7.826   2.007 -0.0671 -0.1980 -0.1668
24825W        W44359  14.016   3.437   0.066  0.3017  0.0758 -0.0822
24826W        W44360  15.989   5.480  11.276  0.0573 -0.2598  0.3104
24827W        W44361  15.195   2.681  12.970 -0.2898 -0.1593  0.0165
24828W        W44362   2.056  15.245   2.494 -0.0221 -0.1265 -0.0359
24829W        W44363   1.718   9.567  13.448 -0.2680 -0.3522 -0.3028
24830W        W44364  15.852   2.400  12.629  0.0663 -0.1042 -0.0181
24831W        W44365   7.985   2.176   1.817  0.2667  0.2460  0.0955
24832W        W44366   4.511   1.874  11.437  0.0514  0.0704 -0.2397
24833W        W44367  18.372  19.349   4.419 -0.0697  0.2753 -0.1728
24834W        W44368   9.791  16.500  13.348 -0.0249 -0.0165 -0.1278
24835W        W44369   8.106   2.286  12.028 -0.0090  0.1979  0.1857
24836W        W44370  10.847  10.024   1.275 -0.1539  0.0646 -0.1832
24837W        W44371  17.663   3.298  13.990 -0.2491 -0.0841 -0.2081
24838W        W44372   7.121  16.553  12.600  0.2772  0.0769  0.0029
24839W        W44373  11.794   3.017   0.792  0.1341 -0.1603  0.1445
24840W        W44374   8.232   9.082  12.888 -0.3724  0.0449  0.3090
24841W        W44375   4.848  19.430  11.877 -0.1239 -0.1057 -0.4405
24842W        W44376   8.474   1.408   2.544 -0.0480  0.2364  0.1454
24843W        W44377  18.138   1.433  10.547  0.1497 -0.0230 -0.3025
24844W        W44378   4.271  13.267  13.753  0.1797  0.0627  0.1449
24845W        W44379   6.785  14.754   4.417  0.1065  0.3750 -0.1028
24846W        W44380  18.098   3.842  14.294  0.0519 -0.0898  0.1190
24847W        W44381   1.195  13.467  11.624  0.3246 -0.2562 -0.1211
24848W        W44382   5.863  14.066  12.193 -0.2501 -0.0175 -0.0560
24849W        W44383  10.992  16.108   0.285 -0.0143 -0.1638  0.0044
24850W        W44384   7.874   1.092  12.940 -0.1284 -0.0933 -0.1891
24851W        W44385   8.574  12.154   3.376  0.3640  0.1242 -0.0895
24852W        W44386   4.261   3.712  10.438  0.2436 -0.0581  0.1685
24853W        W44387   9.504  15.368  10.543  0.2127 -0.2242  0.1060
24854W        W44388  17.783  17.789   0.766 -0.0039 -0.1595  0.0926
24855W        W44389   2.587   2.651  10.082 -0.2874  0.0416 -0.0120
24856W        W44390  17.164  17.380   0.807 -0.1163  0.1623 -0.0083
24857W        W44391   1.494   9.848   3.757  0.0396 -0.0372  0.2885
24858W        W44392  16.178   0.024   3.029 -0.1570 -0.0502  0.1181
24859W        W44393   2.267   9.320  14.286 -0.0845  0.0690 -0.1949
24860W        W44394  10.421   2.413  11.867 -0.3074  0.2907 -0.3438
24861W        W44395   8.608   5.962  13.043 -0.0543 -0.3637 -0.0267
24862W        W44396  17.002   2.975  13.650 -0.2002  0.0443  0.1445
24863W        W44397  17.081  16.886  14.294 -0.1965  0.0180  0.0707
24864W        W44398  17.497   7.935   2.603  0.2563  0.1341 -0.1445
24865W        W44399  16.106  11.440  12.650  0.0069  0.1317  0.2114
24866W        W44400  10.853   9.671  11.079  0.0403 -0.3891  0.1384
24867W        W44401   4.391   3.454   9.959 -0.1161  0.2239  0.1377
24868W        W44402  13.065   6.410   0.586  0.1828 -0.0799  0.1801
24869W        W44403  15.615   2.604  13.649 -0.1480 -0.0649 -0.2628
24870W        W44404  12.900   8.220   1.671 -0.1649  0.1716  0.2590
24871W        W44405   3.602  13.191   0.089 -0.4334  0.2332 -0.2597
24872W        W44406   2.221  18.381   1.352 -0.1486  0.3060 -0.0371
24873W        W44407   8.973   8.630   5.422 -0.0276 -0.0629 -0.4564
24874W        W44408   4.764   8.194  10.917  0.1734  0.0152 -0.0260
24875W        W44409   0.398  12.317   1.286 -0.3658 -0.3107  0.0820
24876W        W44410  13.748   1.413  11.515 -0.1745  0.1567  0.1683
24877W        W44411   1.716  12.191  13.618  0.0195  0.0078  0.1658
24878W        W44412   1.787  17.047   3.850  0.0214  0.1178 -0.1004
24879W        W44413  15.843   1.870   4.853 -0.2556 -0.2621  0.0434
24880W        W44414   2.783  12.403  11.358 -0.4287 -0.0997 -0.0546
24881W        W44415   2.851  11.470  12.606  0.1973  0.5166 -0.0441
24882W        W44416   6.457  13.355   0.822 -0.3048 -0.0616  0.0267
24883W        W44417   0.975  13.043   2.901  0.0880  0.1635 -0.0584
24884W        W44418   1.827  19.369  13.336 -0.0974 -0.1557 -0.0997
24885W        W44419  18.806  16.586  12.496 -0.3521 -0.1667 -0.0030
24886W        W44420   6.573   0.088   0.517  0.3195 -0.0838 -0.0716
24887W        W44421  18.756  10.758  10.322  0.2666 -0.2226  0.0425
24888W        W44422  17.607   2.602   0.064  0.3819  0.0184 -0.4507
24889W        W44423  15.100  17.922   9.048  0.0521  0.1985  0.1351
24890W        W44424  14.472   6.547   3.292  0.0481  0.0314 -0.2109
24891W        W44425  19.132   8.116   3.248 -0.0777  0.2917 -0.2768
24892W        W44426   3.262   2.984  11.420  0.0604  0.0314 -0.1507
24893W        W44427  14.857   3.298  12.573 -0.3033 -0.1566  0.1421
24894W        W44428  18.059  11.807  11.857 -0.4998 -0.2422 -0.2743
24895W        W44429  18.820  13.862  13.910  0.2588 -0.1574 -0.1840
24896W        W44430   8.608   1.823  10.842  0.2552 -0.1831  0.0241
24897W        W44431  13.947   6.849  10.738  0.0403 -0.0833  0.0411
24898W        W44432   3.112  19.199   3.836 -0.2840  0.0339  0.0290
24899W        W44433  19.486   7.712  12.953 -0.0455 -0.0152  0.1715
24900W        W44434  18.158   1.700  11.061 -0.0734 -0.0400  0.0574
24901W        W44435  13.361   0.882   9.636  0.1747  0.3538 -0.0332
24902W        W44436  11.654   9.303  13.356 -0.1000  0.2084 -0.0251
24903W        W44437  16.230  12.916   0.794  0.0648 -0.2901  0.0671
24904W        W44438   5.175  11.112   3.033  0.2786  0.1508  0.1910
24905W        W44439  17.596   2.542  11.254 -0.0911  0.1511  0.4382
24906W        W44440   6.004   5.427   2.642 -0.2039  0.1509 -0.3231
24907W        W44441  16.730   2.766   1.630  0.1217  0.0078  0.1932
24908W        W44442   9.843   4.943  11.540 -0.2699  0.2919 -0.0865
24909W        W44443  14.673  10.351   3.707 -0.1630 -0.0913 -0.0238
24910W        W44444  12.876   9.408  10.624 -0.2262 -0.3145 -0.0905
24911W        W44445   6.242  14.962  11.708 -0.2873  0.1388 -0.1445
24912W        W44446   9.638  16.735  11.700 -0.0263  0.2780  0.1157
24913W        W44447  13.452   6.625  10.788 -0.0735  0.0298  0.0979
24914W        W44448  10.355   5.074  13.404  0.0243  0.0238 -0.0992
24915W        W44449   1.946  10.614  10.718  0.0299 -0.2643 -0.0327
24916W        W44450  13.047   1.480  14.167  0.2816 -0.1804  0.1351
24917W        W44451   0.640   0.731   3.276 -0.2181  0.0370  0.0611
24918W        W44452  14.025   9.418  14.007  0.0422  0.0526 -0.0038
24919W        W44453   1.377   5.128   0.753  0.0945  0.0331  0.0930
24920W        W44454   9.283   9.653   9.900 -0.0544 -0.1216  0.5138
24921W        W44455  18.795  16.899  12.073  0.0916  0.0852  0.2576
24922W        W44456  10.097  15.669  13.063 -0.3324 -0.0018  0.4023
24923W        W44457   0.404  13.952  11.381  0.1086 -0.2120  0.1629
24924W        W44458  14.535  10.880   3.626  0.0417  0.0029 -0.1559
24925W        W44459   7.718  13.628  11.667  0.3373 -0.1988  0.2788
24926W        W44460   7.378  14.698  12.479  0.1022  0.1760  0.0685
24927W        W44461   5.457   2.999   1.960  0.2142 -0.0243 -0.1304
24928W        W44462   1.294   4.867  11.089  0.2987  0.0881 -0.0864
24929W        W44463  15.699  16.773   2.529 -0.1299 -0.0790 -0.1099
24930W        W44464  14.594   7.229   0.769 -0.2895  0.3490 -0.0593
24931W        W44465   8.541   7.034   3.330  0.3419 -0.3420 -0.2741
24932W        W44466  10.027  14.220   2.062 -0.0073  0.3661  0.2425
24933W        W44467   1.420  15.684  11.718 -0.2124  0.2253 -0.1837
24934W        W44468   5.214   4.571  13.379 -0.1787  0.1582  0.1894
24935W        W44469   0.243   5.060   5.104 -0.0688  0.2902  0.1284
24936W        W44470  18.930   9.427  13.443 -0.0247  0.3205 -0.1827
24937W        W44471  18.554   3.870   0.357 -0.4653 -0.0543  0.0833
24938W        W44472   2.904   5.571  10.795  0.1254  0.0763 -0.0817
24939W        W44473   7.997   2.906  11.951  0.0180 -0.1512  0.0456
24940W        W44474   7.810  11.750   2.536 -0.2718  0.1715  0.0783
24941W        W44475   1.251  18.365   2.747 -0.0766 -0.1771 -0.2530
24942W        W44476  11.004   6.948  12.159 -0.2456 -0.1573 -0.5276
24943W        W44477   8.854  14.066   4.270  0.3486 -0.1028  0.1733
24944W        W44478  11.817  17.338   2.424 -0.1012  0.1167  0.3436
24945W        W44479   8.404  13.804   2.625 -0.0685  0.2273 -0.0832
24946W        W44480   3.689  14.485   3.931 -0.2246 -0.0602  0.1980
24947W        W44481   4.514  18.956   2.711 -0.1013  0.0230  0.1832
24948W        W44482  17.413  18.608  12.986 -0.1337  0.2108 -0.1267
24949W        W44483   7.430  10.725   1.773 -0.2967 -0.3052  0.0133
24950W        W44484   1.670   2.041   4.355 -0.3891  0.1196  0.1965
24951W        W44485  10.952   6.979   1.841  0.2557 -0.0691  0.0978
24952W        W44486   6.667   6.078  11.730 -0.0608 -0.1057 -0.1400
24953W        W44487  15.560  15.255  10.856 -0.3959  0.0200 -0.3381
24954W        W44488  12.814  13.026   2.980  0.2659 -0.2742  0.0233
24955W        W44489   4.669   7.535   1.940  0.1189  0.1627  0.5416
24956W        W44490  18.363  12.659  13.834  0.0478 -0.2262 -0.2553
24957W        W44491   1.074  15.047   2.887 -0.4056  0.2740 -0.0285
24958W        W44492  14.769   1.166   1.605 -0.2078 -0.2156  0.1143
24959W        W44493   5.889   7.521  14.085 -0.1523 -0.2705 -0.0243
24960W        W44494  16.425   9.336   1.689  0.2923  0.4621 -0.0918
24961W        W44495   2.360   0.728   2.249  0.0627  0.0981  0.1054
24962W        W44496  18.517  14.490  11.189 -0.0758  0.0599  0.1013
24963W        W44497  17.095   9.067   2.427 -0.1741 -0.0108  0.0032
24964W        W44498  11.178   2.041  11.446  0.1224 -0.3587 -0.0936
24965W        W44499  16.618   1.066  10.547  0.0205  0.1605  0.0645
24966W        W44500   9.222  10.515  14.302  0.3381 -0.2482  0.0629
24967W        W44501   1.554   4.648   0.309  0.1616 -0.2010 -0.0138
24968W        W44502  17.754   1.670  11.502  0.1967  0.0433  0.0319
24969W        W44503  16.162  12.148  13.870 -0.0989  0.2276  0.2085
24970W        W44504  11.828   2.383   2.740 -0.0295  0.1450 -0.0918
24971W        W44505  12.156   2.991  11.729 -0.1378 -0.0491 -0.2148
24972W        W44506  16.393  17.809  13.800  0.1835  0.0538  0.0363
24973W        W44507  12.044  10.706   2.661 -0.1624 -0.1400  0.0953
24974W        W44508   0.503   4.448  13.473  0.0412  0.0472  0.0731
24975W        W44509  10.876   7.704   2.431 -0.0620  0.0456  0.1745
24976W        W44510   2.109  12.350  10.114 -0.0176  0.2376  0.1370
24977W        W44511  15.638   0.082   2.656 -0.0173  0.1191  0.0870
24978W        W44512  16.142  11.598   1.667  0.0543  0.0370 -0.2357
24979W        W44513   0.017  10.531  14.030 -0.0260 -0.4074  0.0991
24980W        W44514   5.930   0.682   1.531  0.0662 -0.3166  0.4659
24981W        W44515  14.828   9.718  12.654  0.1429 -0.2789 -0.1946
24982W        W44516  12.633   8.830   2.298  0.1636  0.2874  0.0041
24983W        W44517  18.220  18.502   1.200  0.1544 -0.0185  0.0768
24984W        W44518   6.455  15.987   0.793  0.1897 -0.1826 -0.0740
24985W        W44519  16.017  15.699   1.001  0.3470 -0.0726  0.4598
24986W        W44520   5.760   5.499   1.566 -0.2334  0.0507 -0.0581
24987W        W44521   3.082   7.970   0.843 -0.0832 -0.1431  0.0716
24988W        W44522  10.705  17.399  10.060  0.2031 -0.0612  0.0759
24989W        W44523  15.853  13.948   2.476  0.0322  0.0212 -0.0495
24990W        W44524   9.239   2.297   3.267 -0.0217  0.0700 -0.1130
24991W        W44525   0.626   8.308   1.616 -0.1602 -0.0045  0.0128
24992W        W44526  17.403   5.360   1.934  0.0602 -0.2793 -0.0983
24993W        W44527   1.229   6.906   2.804  0.0531  0.0324 -0.2151
24994W        W44528   9.989  19.059   0.947 -0.2348 -0.0257  0.0122
24995W        W44529  14.502   1.341  13.774 -0.0983 -0.0809  0.4543
24996W        W44530  10.487   2.876   1.323 -0.1370  0.2551  0.4442
24997W        W44531   1.218  19.316   3.178 -0.0163 -0.1807 -0.2299
24998W        W44532  16.499  17.968   2.077 -0.1184  0.0883  0.1377
24999W        W44533  11.519   8.810   1.690  0.2620 -0.1339  0.1022
25000W        W44534  19.008   7.090  12.420  0.1099  0.2883  0.2659
25001W        W44535   4.334  13.219   4.709  0.1566  0.1624  0.2386
25002W        W44536   5.231  13.373  10.887 -0.0295  0.1771  0.0609
25003W        W44537  19.399   1.454   9.370 -0.1026  0.0841  0.1967
25004W        W44538  10.445  10.954   3.644 -0.0994 -0.1995 -0.0169
25005W        W44539  10.485  11.364  11.804  0.1457 -0.3642  0.0239
25006W        W44540  15.872  16.429  12.691  0.2219  0.2662  0.2564
25007W        W44541  18.120  10.586   3.447  0.2680 -0.0203  0.1966
25008W        W44542   1.153   0.790   1.514  0.1164 -0.1517  0.0479
25009W        W44543   9.909   1.231  12.830 -0.0194  0.1077  0.1625
25010W        W44544  15.024   5.676  13.332  0.1972 -0.2007 -0.2971
25011W        W44545  15.531   4.649   0.731  0.0492 -0.1820  0.0450
25012W        W44546  14.496  16.815   1.559 -0.0212  0.1242  0.0221
25013W        W44547  11.474  13.467  13.232  0.2023  0.0320  0.2429
25014W        W44548  17.494   1.406   1.071 -0.3031  0.1810  0.0712
25015W        W44549   6.908  11.899   1.638  0.2696 -0.1154  0.1422
25016W        W44550   4.620   8.408   5.129  0.0491 -0.1869  0.1118
25017W        W44551   8.701  13.034  13.368 -0.0099  0.3329  0.0714
25018W        W44552   1.529   0.338  13.180 -0.0278  0.1539 -0.0804
25019W        W44553  10.018   1.549  10.712 -0.3982  0.0134 -0.0487
25020W        W44554   4.658   6.507   3.426 -0.1378 -0.1491 -0.1513
25021W        W44555  16.778   6.906  11.270 -0.2213  0.1278  0.2092
25022W        W44556   2.845   5.764   0.119  0.1642  0.0728  0.0367
25023W        W44557   5.752   9.551  13.003  0.2556  0.0216 -0.0476
25024W        W44558  18.403  14.186  11.734 -0.3965 -0.2195 -0.0716
25025W        W44559  15.217  13.162  14.182 -0.1058  0.1279  0.1762
25026W        W44560  15.244  13.197  11.460  0.3293 -0.0864 -0.0831
25027W        W44561   1.233   9.082   3.324  0.0496  0.0091  0.2012
25028W        W44562  14.185   2.062  12.361 -0.1305  0.1186 -0.0871
25029W        W44563  13.230   4.169  12.284  0.1040 -0.1027 -0.1007
25030W        W44564  18.547   1.765  10.451  0.0227  0.1018  0.3760
25031W        W44565   6.217   5.911  12.849  0.0245 -0.1158  0.2771
25032W        W44566   0.444   9.321   2.103 -0.0381  0.1609 -0.1700
25033W        W44567   2.996   2.304   1.917 -0.4646  0.1249  0.0173
25034W        W44568   6.919   2.862   0.669  0.2432  0.0448 -0.0062
25035W        W44569  10.348   7.290   0.675  0.0196 -0.0894 -0.2039
25036W        W44570   1.571   4.593   3.329 -0.0857  0.2567  0.1131
25037W        W44571   5.602   2.580  12.469  0.4209  0.0511 -0.0168
25038W        W44572   9.880  19.289   0.193  0.1358  0.1584  0.0617
25039W        W44573   7.445   4.902   3.478 -0.1224 -0.1599 -0.3510
25040W        W44574   1.581  11.588   4.136  0.0264 -0.0077  0.1386
25041W        W44575  18.172   4.224   3.011 -0.1038  0.1243  0.2725
25042W        W44576   9.567  13.975   1.916 -0.1767  0.2531 -0.2267
25043W        W44577  12.475  12.734   0.523  0.3352 -0.2097 -0.1664
25044W        W44578   0.087  16.552  12.119  0.1861 -0.0408  0.1170
25045W        W44579   1.735   1.610  14.166  0.2079  0.0489  0.0596
25046W        W44580  18.178  16.882   2.896 -0.0652  0.0915  0.0055
25047W        W44581  10.386  18.335   9.771  0.2507  0.2528  0.2811
25048W        W44582   3.149   0.890   2.259 -0.2259  0.0533 -0.0536
25049W        W44583  10.293  10.579   0.304 -0.4097 -0.2166  0.4779
25050W        W44584   0.235   6.858  12.781 -0.4185  0.3362  0.2815
25051W        W44585  16.088  14.942  13.524  0.4874 -0.0429  0.2125
25052W        W44586  11.130   4.217   2.133 -0.0311  0.4068  0.0609
25053W        W44587  16.651  12.666  11.339 -0.2839 -0.1244 -0.0597
25054W        W44588   6.428  13.385   2.706 -0.2463 -0.0493  0.0424
25055W        W44589  19.221   8.328   0.914 -0.0073 -0.1004 -0.2989
25056W        W44590  15.663   5.860  14.121  0.0738 -0.2667 -0.1030
25057W        W44591  18.924  10.179   0.657  0.1970  0.1278  0.0224
25058W        W44592   3.795  14.060   4.253  0.5585  0.0508  0.0988
25059W        W44593   7.005  10.326  12.793 -0.0115  0.1300  0.3407
25060W        W44594   3.399  12.337   2.717 -0.1963 -0.1691 -0.0861
25061W        W44595  17.079   5.041  10.894 -0.1719 -0.1509 -0.2794
25062W        W44596   0.521  16.576  12.573 -0.2238  0.4493  0.0401
25063W        W44597  12.098  15.853   0.277 -0.1450 -0.1833  0.0176
25064W        W44598   2.033  13.158   1.936  0.2910 -0.1550  0.4937
25065W        W44599   3.500   1.467  10.189  0.2208 -0.2027  0.4031
25066W        W44600   2.580   6.432   1.668  0.3498  0.2907 -0.3979
25067W        W44601  17.791  12.879  13.109  0.1953  0.0288 -0.0989
25068W        W44602   3.647  12.099   2.279  0.0415 -0.2196 -0.0316
25069W        W44603   7.997   9.948  14.135  0.0239 -0.1206 -0.1791
25070W        W44604  12.350   3.119  11.266  0.0433  0.1768  0.2058
25071W        W44605   7.655   1.111  13.358  0.0524  0.1617  0.4166
25072W        W44606  13.828  10.062  12.681  0.1814 -0.0807 -0.1951
25073W        W44607   3.994  16.648   2.055 -0.1313 -0.2094 -0.1186
25074W        W44608  14.549  18.983   1.025 -0.1439  0.1531 -0.0028
25075W        W44609  16.381   1.598  10.721  0.3144  0.2128  0.0153
25076W        W44610  11.581  17.662  12.768  0.0483  0.3126 -0.1735
25077W        W44611   4.282   2.797  13.533 -0.0752  0.3008  0.4400
25078W        W44612   7.627  18.955  10.680  0.1043 -0.0645  0.2658
25079W        W44613  11.083  14.307  13.162 -0.1583  0.2321  0.1311
25080W        W44614   3.828   9.437   3.845  0.0273 -0.0342  0.2288
25081W        W44615  10.543   5.326   0.460  0.1369  0.1440 -0.4297
25082W        W44616  17.316   2.061   9.717  0.1952  0.2811  0.1147
25083W        W44617  18.676   6.856   0.813  0.1143  0.1073 -0.1133
25084W        W44618   4.502   4.560   2.744  0.2906 -0.2090 -0.2042
25085W        W44619  11.214  12.411  12.619 -0.0008 -0.0181 -0.0670
25086W        W44620  12.290   1.763  13.252 -0.1106 -0.0766  0.2647
25087W        W44621  12.693  13.042  11.339  0.0127  0.3290  0.2895
25088W        W44622  15.660   7.260   2.146  0.1654 -0.1648 -0.0819
25089W        W44623  17.281  11.801  11.992  0.1581  0.2149  0.2144
25090W        W44624   8.615  16.678  12.603 -0.1269  0.0566  0.1764
25091W        W44625   1.574  12.331   3.943 -0.2799  0.1552 -0.1604
25092W        W44626   3.796  13.684  11.308 -0.0785 -0.1961 -0.0727
25093W        W44627  14.584   3.703   1.996  0.0805 -0.1271 -0.0588
25094W        W44628   3.576  18.583  12.832 -0.1860  0.3311  0.0503
25095W        W44629   8.517   3.798   2.905 -0.0224  0.1711 -0.1004
25096W        W44630  12.796   8.585   0.982  0.1548  0.0041  0.0279
25097W        W44631   7.581  14.346   4.381 -0.0871  0.2296  0.3257
25098W        W44632   5.373  13.495   4.320 -0.1278 -0.0611  0.0104
25099W        W44633  15.855   4.334  12.945 -0.0397 -0.2311 -0.2823
25100W        W44634  13.536  12.368   1.957 -0.1983 -0.0164 -0.0159
25101W        W44635  13.964   1.432  10.139  0.1946 -0.1668  0.1077
25102W        W44636  18.454  14.776   3.135  0.3010 -0.2032 -0.2550
25103W        W44637  18.845  18.209  14.370  0.0200 -0.0681 -0.2386
25104W        W44638   1.203  10.794   2.038  0.4444  0.1096  0.2361
25105W        W44639   9.483   0.214  11.054 -0.1435 -0.3131 -0.1380
25106W        W44640   4.877  13.530   4.007 -0.2610 -0.0697 -0.1456
25107W        W44641   5.770  15.770   3.959 -0.1824 -0.0275  0.0121
25108W        W44642  12.549   8.975  10.537 -0.1943 -0.0105  0.3522
25109W        W44643  11.391   2.601  12.159 -0.1258 -0.1497  0.3586
25110W        W44644  18.553   6.676   0.316 -0.1440 -0.0465  0.0931
25111W        W44645  12.375  16.169  14.262 -0.0283 -0.4484  0.2469
25112W        W44646   7.818   9.694  11.586 -0.0669 -0.2326 -0.0475
25113W        W44647   3.208   2.891   2.607 -0.0758 -0.0145  0.0615
25114W        W44648  17.865   0.041  10.726  0.0677  0.4507  0.0265
25115W        W44649   5.538   7.744   3.336  0.2036 -0.0986 -0.3095
25116W        W44650  16.514   5.053  12.652  0.2169  0.1939 -0.1412
25117W        W44651  15.074   4.491   0.574 -0.3330  0.0642 -0.2540
25118W        W44652   3.909   7.935   2.559  0.1203  0.2613  0.3219
25119W        W44653   6.167   0.120   3.854  0.1563 -0.0473 -0.0206
25120W        W44654  15.206   1.190  12.084  0.2455 -0.3298  0.1141
25121W        W44655  19.432   8.241   3.659  0.2028  0.1609 -0.0021
25122W        W44656   7.583   4.584  13.795 -0.1373  0.0224 -0.0002
25123W        W44657   1.304   9.080  10.598 -0.0326  0.2107 -0.1970
25124W        W44658   6.074  11.812  10.930  0.1562 -0.0673  0.0973
25125W        W44659  18.613  18.118   9.889 -0.1891  0.1039  0.2900
25126W        W44660   5.282   9.198   1.239 -0.0673  0.1500  0.0572
25127W        W44661   4.087  10.355  13.409 -0.0550 -0.0694 -0.1801
25128W        W44662  18.109   7.990   4.191  0.0937  0.0019 -0.1918
25129W        W44663  18.298  18.987   1.977  0.1121 -0.2230  0.0144
25130W        W44664   5.533  19.262   3.372 -0.0553  0.1340 -0.1471
25131W        W44665   8.672  16.644   2.979 -0.2028 -0.1258  0.0190
25132W        W44666  10.052  16.560  10.372 -0.0758  0.4249 -0.1204
25133W        W44667   5.288  15.669   4.029  0.0617 -0.0307  0.3281
25134W        W44668  13.475   6.891  12.958  0.1153 -0.0145  0.1460
25135W        W44669  13.037  11.265  10.756 -0.0841  0.0564  0.7857
25136W        W44670  13.383  17.093  10.477  0.0071 -0.0802 -0.0038
25137W        W44671   3.393  15.047  11.933  0.0784 -0.2663 -0.0346
25138W        W44672  10.712   5.275  12.187 -0.2259 -0.0766 -0.0207
25139W        W44673  13.891   1.854  13.361 -0.0738 -0.0544 -0.1854
25140W        W44674  17.885  16.729  13.854  0.1998 -0.0039  0.2235
25141W        W44675  11.794   3.029  11.397  0.0020 -0.2034  0.0746
25142W        W44676   0.194  13.113  13.120  0.2927 -0.0120  0.0892
25143W        W44677  11.794  14.539   0.890 -0.1941  0.3267  0.1949
25144W        W44678   6.404   3.909  12.144  0.0170 -0.2693  0.0721
25145W        W44679   1.527   0.363   0.061 -0.1440 -0.2728 -0.3316
25146W        W44680  15.546   7.585  11.269 -0.2316 -0.4109  0.0536
25147W        W44681  12.769  11.994   4.371 -0.0952 -0.1631 -0.1269
25148W        W44682  15.132  15.456   0.977 -0.1181 -0.1873 -0.1576
25149W        W44683  11.960  12.215   1.119 -0.1589  0.0102 -0.2053
25150W        W44684   5.458   3.287   3.153 -0.2587  0.3264  0.1598
25151W        W44685   2.567  15.185   2.981  0.0653 -0.1779 -0.0659
25152W        W44686  14.925   3.612   5.484  0.2261 -0.1281  0.1515
25153W        W44687  13.232  17.640   1.894 -0.0864 -0.1134  0.0894
25154W        W44688   0.685  13.560  12.516  0.0645 -0.1030  0.0707
25155W        W44689   0.430   6.279  12.866 -0.0823 -0.3769 -0.1989
25156W        W44690   1.720   2.063   0.526  0.3129 -0.0099  0.0267
25157W        W44691   5.555   5.629   3.934  0.0459  0.0555 -0.0076
25158W        W44692  12.308  17.229  11.326  0.0778  0.2117 -0.0155
25159W        W44693   7.189   0.298   1.727  0.1387  0.0336 -0.1161
25160W        W44694  15.380  13.282   1.719 -0.1980  0.0651 -0.1749
25161W        W44695  18.058  14.561  10.282 -0.0798 -0.1749 -0.0904
25162W        W44696  15.814  11.019  13.614 -0.2191  0.0983  0.0372
25163W        W44697  15.214   4.990   2.521 -0.1293 -0.1646 -0.0150
25164W        W44698   9.351   4.551   3.197 -0.1009  0.1017  0.2687
25165W        W44699   8.530   0.620   2.270 -0.3281  0.0113  0.1423
25166W        W44700   2.468  16.528  12.707  0.1530 -0.0063 -0.4987
25167W        W44701   6.958  17.653  11.127 -0.0802  0.2917  0.1587
25168W        W44702   2.579  14.779  14.365  0.2583 -0.0884  0.0591
25169W        W44703   4.394   5.607  13.854  0.2855 -0.0131 -0.2520
25170W        W44704   4.009   7.101   0.757 -0.2959 -0.1395  0.0007
25171W        W44705   6.925   3.306  12.055 -0.2097  0.2696 -0.2128
25172W        W44706   1.291  18.439   4.034 -0.0505  0.1365 -0.0137
25173W        W44707   4.697   5.554   0.221 -0.0563  0.1095 -0.0221
25174W        W44708   2.245   7.443   3.538 -0.0199  0.4434  0.1409
25175W        W44709  19.286  13.015   2.199 -0.2672  0.0687  0.2842
25176W        W44710  10.374   4.120   3.870  0.2152  0.0108  0.2852
25177W        W44711   4.797  15.300   1.219 -0.0889 -0.2772  0.0213
25178W        W44712  13.337   6.500   3.385  0.1244 -0.2410 -0.0302
25179W        W44713  15.448  18.098  13.821 -0.0676  0.0962  0.0036
25180W        W44714   1.144  14.685   9.849  0.1724  0.0799  0.0913
25181W        W44715   6.390   3.801   1.931  0.1288 -0.0626 -0.0457
25182W        W44716  14.996   5.079   4.451  0.0730 -0.0299  0.1034
25183W        W44717   2.723  14.270   2.488  0.0164  0.0343 -0.0187
25184W        W44718   9.903  15.714   1.293 -0.1011  0.3624 -0.0812
25185W        W44719  19.142  12.769  10.588 -0.0861 -0.2889  0.2664
25186W        W44720   5.700  13.271  12.010  0.0437 -0.1736  0.0712
25187W        W44721   4.873   8.051   2.160  0.5033  0.2646  0.2553
25188W        W44722   9.097   2.555  13.045 -0.2577  0.0057 -0.0483
25189W        W44723   5.863  19.417  12.290  0.0127  0.1718 -0.3114
25190W        W44724  16.683  16.696  13.089 -0.1637  0.0510 -0.1982
25191W        W44725  16.624   2.016  11.223  0.1300 -0.1671  0.0292
25192W        W44726  14.336   8.397  14.118  0.1672 -0.0846  0.1326
25193W        W44727   3.408  14.437  10.598 -0.1725 -0.1055 -0.4835
25194W        W44728   8.441   4.589  11.709 -0.1530  0.4155 -0.2258
25195W        W44729   1.343  14.476   1.647 -0.2626  0.0157  0.2250
25196W        W44730   9.744   1.225   0.218  0.1309  0.3513 -0.1743
25197W        W44731  16.323  18.722  12.331  0.0374  0.0860 -0.0119
25198W        W44732  15.546   5.408  13.916  0.0238 -0.1278 -0.1364
25199W        W44733  13.843  19.418  12.193  0.0980  0.1788  0.0822
25200W        W44734   5.624   3.787   9.401  0.0339 -0.0438  0.0744
25201W        W44735   4.676  11.302  13.544 -0.1658 -0.0979 -0.1088
25202W        W44736  16.833  14.652   3.679 -0.0191 -0.1885  0.1406
25203W        W44737  19.058   2.699   2.860  0.0427 -0.0344 -0.4001
25204W        W44738  12.082   6.567  12.488  0.2075  0.0597  0.2415
25205W        W44739   8.758   2.687  11.223  0.0063 -0.0514 -0.3917
25206W        W44740  17.203   7.613   3.694 -0.1899 -0.3480 -0.0991
25207W        W44741  16.241   6.921  10.533  0.1996 -0.0453 -0.2025
25208W        W44742  14.547   4.558   1.499  0.0262 -0.1598  0.2137
25209W        W44743   3.337  13.598  10.121  0.0279 -0.0364  0.1149
25210W        W44744   0.767   4.030   1.213 -0.2938 -0.0072  0.1695
25211W        W44745  13.653  12.612   1.505  0.1012 -0.0751  0.4784
25212W        W44746  11.033  14.004  12.757  0.3168 -0.0555  0.0045
25213W        W44747  19.468   7.212  10.197  0.0304 -0.0623  0.0912
25214W        W44748  19.256   0.697   3.310  0.2448 -0.1652  0.3205
25215W        W44749  11.356   7.317  11.443 -0.3666 -0.0824  0.2952
25216W        W44750   1.696   2.132  10.362 -0.1773  0.1979 -0.2111
25217W        W44751   6.946  11.702  12.161  0.1929  0.0091 -0.1901
25218W        W44752  15.126  11.179  12.399  0.1933  0.2426  0.0427
25219W        W44753   9.985  10.047  14.139  0.0513  0.1167  0.1585
25220W        W44754  19.224   1.022  12.012 -0.2368 -0.1626 -0.3025
25221W        W44755  15.821   7.817   0.753 -0.1500 -0.1096 -0.1110
25222W        W44756   4.385  11.635   3.048 -0.0448 -0.1951  0.0347
25223W        W44757   2.539  14.766   0.518 -0.1186 -0.1301 -0.2713
25224W        W44758  11.748  15.416   0.034 -0.1252  0.0646 -0.0933
25225W        W44759   3.687   0.744   4.187  0.0736 -0.1454 -0.2539
25226W        W44760   9.824   9.576  14.218  0.2461 -0.1314 -0.0334
25227W        W44761   6.135  11.013  13.625 -0.0857 -0.0702 -0.1108
25228W        W44762  11.244  18.588  13.076 -0.0445  0.0822 -0.1790
25229W        W44763  11.933   4.221   4.210  0.1210 -0.3085  0.3249
25230W        W44764   7.285  13.246  11.048 -0.0694 -0.3449  0.0339
25231W        W44765  12.902   6.357  13.754  0.0314  0.0125  0.2426
25232W        W44766   5.459   5.761   1.974  0.2484  0.1321 -0.1345
25233W        W44767   7.275  17.879  11.477  0.1964  0.2777  0.1611
25234W        W44768  12.071   0.126   0.367  0.0802 -0.0042  0.2626
25235W        W44769  16.813   2.274  14.340  0.1983  0.1883 -0.4617
25236W        W44770   1.326   1.287  11.348 -0.1364 -0.0143  0.1772
25237W        W44771   3.768   8.389   0.471 -0.1348  0.1151  0.3037
25238W        W44772  18.674  14.796   3.854  0.4049 -0.0322  0.0884
25239W        W44773   5.738  11.304  14.340  0.1981  0.1679 -0.0855
25240W        W44774  10.382   2.235  12.800 -0.0783  0.1627 -0.3980
25241W        W44775  17.149   2.703  10.965 -0.0725 -0.4060  0.0580
25242W        W44776  16.810   8.905   1.924 -0.2189  0.1724 -0.1675
25243W        W44777  16.747  17.794   1.647 -0.1142 -0.0958  0.1396
25244W        W44778   8.553  15.889   3.213 -0.1348 -0.0465 -0.1919
25245W        W44779   2.109  14.179  14.010  0.2523 -0.1389  0.0789
25246W        W44780   2.462   4.625   0.047  0.0824  0.2228 -0.0385
25247W        W44781   1.027  15.204  12.157  0.3075 -0.1889  0.1780
25248W        W44782   1.956   3.262   4.085 -0.0135 -0.3909  0.0854
25249W        W44783  18.984  12.380   3.454  0.3872  0.0967  0.0818
25250W        W44784   1.068  11.352  12.769  0.1129 -0.2938 -0.1084
25251W        W44785  19.440  11.792   2.820  0.0981 -0.1901 -0.0214
25252W        W44786   9.612   2.340  10.785  0.2022 -0.0969  0.1575
25253W        W44787   0.621  15.954  13.177 -0.2446 -0.2532  0.1296
25254W        W44788  16.237   1.527   3.622  0.4467  0.1685 -0.0273
25255W        W44789  10.914  11.382   1.391 -0.1336  0.0041  0.0404
25256W        W44790   1.930  14.265  13.523 -0.0453 -0.0621  0.1462
25257W        W44791   0.358   4.747  11.443 -0.0491  0.1768 -0.1076
25258W        W44792   3.381   3.896  12.114 -0.2102 -0.0389  0.2026
25259W        W44793  11.506   7.386   0.880  0.0859  0.0697  0.0561
25260W        W44794  14.578  16.486  14.139  0.1979 -0.1594 -0.0634
25261W        W44795   1.518  19.122   2.173 -0.0134  0.1355 -0.1073
25262W        W44796  18.076   5.497   4.128 -0.1342  0.1241 -0.0566
25263W        W44797  11.161   2.841  11.111 -0.0347  0.3329 -0.3038
25264W        W44798   3.180   4.229   0.874  0.0097  0.0208  0.1541
25265W        W44799  16.062   4.744   1.435 -0.1800  0.0619 -0.0192
25266W        W44800   6.614  11.211  14.334 -0.0164 -0.0873  0.0653
25267W        W44801   6.816   6.389  11.231  0.1778  0.0876  0.0182
25268W        W44802   3.575  12.580   1.889  0.0332 -0.3454 -0.2162
25269W        W44803  17.040  17.285  12.351  0.0652  0.2205  0.0066
25270W        W44804   0.223   4.826  13.564 -0.1500 -0.2535  0.1403
25271W        W44805   7.298   9.826  14.373 -0.0811 -0.2748 -0.2255
25272W        W44806  17.509   7.142  11.291 -0.1858  0.0075 -0.2524
25273W        W44807   5.827   6.714   1.137  0.1914 -0.2240  0.2341
25274W        W44808  14.807   1.796  13.390  0.1884  0.0800 -0.1886
25275W        W44809  10.881  15.086  11.229 -0.3866  0.2398 -0.1900
25276W        W44810  14.011   7.516  11.293 -0.2794  0.1137 -0.1156
25277W        W44811  11.830   4.409  10.587  0.1410  0.5550 -0.1176
25278W        W44812  13.499   7.927   2.512 -0.1656  0.0255 -0.1876
25279W        W44813   2.916   9.362  14.299 -0.1256 -0.1748 -0.2038
25280W        W44814   3.631   7.793   3.446 -0.1653 -0.3076 -0.1037
25281W        W44815   8.347   8.593   3.530  0.0044 -0.1940 -0.2205
25282W        W44816   2.125  17.724   2.923 -0.2152  0.0742  0.0418
25283W        W44817  15.775  18.547   2.205  0.0471  0.1383 -0.1023
25284W        W44818   8.297  12.348   1.697 -0.1452  0.0114 -0.0303
25285W        W44819  16.551   1.002   1.964 -0.0885 -0.2086  0.4913
25286W        W44820   9.246  15.325  11.516  0.1763  0.2147 -0.2828
25287W        W44821   2.471   8.929  12.467 -0.1645  0.0707  0.2036
25288W        W44822   1.078  10.146  13.370 -0.1151  0.2437  0.1539
25289W        W44823  10.811  12.023   3.350  0.0109 -0.3683 -0.2737
25290W        W44824  15.923  16.286  13.699  0.1296  0.1117 -0.1770
25291W        W44825   6.744   7.396   3.963 -0.0809  0.0547  0.2483
25292W        W44826   1.156   1.002  12.852  0.0533 -0.1507  0.2235
25293W        W44827   7.104  12.375   1.721  0.3168 -0.0050 -0.2285
25294W        W44828  11.265  13.354   0.318 -0.0491  0.0074 -0.0478
25295W        W44829   0.613   4.198   1.637 -0.0347 -0.0336  0.1416
25296W        W44830  16.281  16.386   1.580  0.1094 -0.1002 -0.0654
25297W        W44831  11.027   4.371  13.547 -0.1092  0.0396 -0.1667
25298W        W44832  17.929  11.653   2.892  0.0712 -0.2546 -0.1504
25299W        W44833  10.331  12.835   0.532 -0.1753 -0.1251 -0.2039
25300W        W44834   6.643   4.731   2.927 -0.0941 -0.2714 -0.1301
25301W        W44835  18.462   4.817   2.551 -0.1146 -0.0739  0.0913
25302W        W44836   4.140  16.614   2.527 -0.1094  0.2320  0.1624
25303W        W44837  18.918  14.262   0.738 -0.2100  0.0119  0.2812
25304W        W44838  15.377   8.931  11.126  0.1764 -0.0152 -0.1679
25305W        W44839  13.876   9.108  13.146  0.1168  0.1848  0.1034
25306W        W44840   3.462   6.939  13.117  0.2129  0.2255 -0.1171
25307W        W44841   7.988  11.400   3.560  0.2206 -0.1418 -0.1226
25308W        W44842   1.064   6.467   2.716 -0.1051  0.0851 -0.0234
25309W        W44843   1.682   8.519   3.244 -0.1330  0.1361  0.2403
25310W        W44844   0.169   7.290  13.302  0.1707  0.0719  0.0838
25311W        W44845   4.540  16.861   2.290 -0.0848 -0.1172 -0.2260
25312W        W44846   1.309  15.083   1.793 -0.6907  0.1577 -0.0580
25313W        W44847   5.277  11.938   3.133  0.1101  0.1547 -0.2128
25314W        W44848   3.779   2.224   0.781  0.0935 -0.1755  0.0941
25315W        W44849   7.163  10.330  13.585  0.2196 -0.3057  0.0703
25316W        W44850   2.565  17.012   3.584 -0.1541  0.2903 -0.0907
25317W        W44851   5.430   5.555  11.872 -0.0565  0.0003 -0.1199
25318W        W44852   7.250  10.985   3.537 -0.1463 -0.2904 -0.1089
25319W        W44853  18.960   6.391   3.438  0.1402  0.1424  0.0756
25320W        W44854   6.193  12.330  13.810  0.3810  0.3818 -0.3186
25321W        W44855   8.289  10.174   3.472  0.1357  0.1332 -0.0692
25322W        W44856   7.960  14.078   0.593 -0.0304  0.2417 -0.2253
25323W        W44857   2.733  17.911  10.673  0.0865 -0.1186 -0.1942
25324W        W44858  14.909  11.358   0.988  0.0138  0.1996 -0.2085
25325W        W44859   0.612   9.978   4.064 -0.0425 -0.1239  0.2244
25326W        W44860   4.206   8.119  10.914 -0.2645  0.0610 -0.0288
25327W        W44861   6.158   7.105  14.131  0.3040  0.0065  0.2644
25328W        W44862   5.784   7.257  13.649  0.0464 -0.1912  0.2641
25329W        W44863   5.067   8.728   0.356 -0.2273 -0.2211  0.1963
25330W        W44864  18.255   2.698  10.061 -0.2242 -0.1816 -0.0386
25331W        W44865   3.634  12.234   1.451  0.0278 -0.0391  0.0257
25332W        W44866   9.298  11.780   0.267 -0.0706  0.2807  0.4630
25333W        W44867   4.823   2.116   0.853  0.1763 -0.0968  0.3122
25334W        W44868  17.389  12.129   3.224 -0.0843  0.0687  0.1871
25335W        W44869   6.617  16.032  13.300  0.0801  0.2372 -0.0098
25336W        W44870   2.918  17.576  12.456  0.0014  0.1375 -0.1787
25337W        W44871   1.036   4.509  12.831 -0.1202 -0.0054 -0.2289
25338W        W44872  11.800   2.672   4.183 -0.0663 -0.0102  0.3122
25339W        W44873   2.385  12.976  12.095 -0.0465  0.0800 -0.1208
25340W        W44874   4.952   0.393  12.589  0.1278 -0.1292 -0.0967
25341W        W44875   2.805   0.523   2.222 -0.0036  0.1253  0.3966
25342W        W44876  13.285  18.214  14.017 -0.3128  0.3376 -0.0086
25343W        W44877  16.449   8.924  13.682  0.0643 -0.1414 -0.1266
25344W        W44878   7.831  18.516  11.419  0.1187 -0.3046  0.1263
25345W        W44879  16.857  10.475   3.082 -0.1784  0.0765  0.0329
25346W        W44880   7.392   3.959   4.135  0.2124  0.3292  0.1597
25347W        W44881  11.172   3.076   3.416  0.0252 -0.2545  0.0163
25348W        W44882   0.627  15.198   2.836 -0.2282  0.1789  0.1357
25349W        W44883  12.603   6.370  12.405 -0.4088  0.3735  0.1387
25350W        W44884  12.670   2.225   1.614 -0.0138  0.0881  0.0551
25351W        W44885   3.576  10.594  11.618 -0.0492 -0.0828 -0.2002
25352W        W44886   3.151  18.827   2.833  0.1219 -0.0176 -0.1168
25353W        W44887   1.115   9.114   4.168 -0.0021 -0.2962 -0.0450
25354W        W44888   2.887   7.659  11.843 -0.0138  0.2176  0.2317
25355W        W44889   3.900  16.186  11.203 -0.0459 -0.2935 -0.1179
25356W        W44890  14.353   2.893  10.917  0.0850 -0.2285 -0.2633
25357W        W44891  16.247   6.382  10.731  0.2871  0.2128 -0.1654
25358W        W44892  12.212   7.294  13.421  0.2993 -0.0131  0.0865
25359W        W44893  11.170  11.329   3.790  0.0037  0.2324  0.3347
25360W        W44894   7.777  11.764   0.053  0.1880  0.1837  0.1608
25361W        W44895   4.467   7.571  13.991  0.2595 -0.3082  0.0226
25362W        W44896   9.086  13.458  13.063  0.0010 -0.2672 -0.1834
25363W        W44897   9.741   8.257   2.790  0.0660  0.0176  0.1233
25364W        W44898  14.588   5.717   3.885  0.1928 -0.2505 -0.0412
25365W        W44899  14.244   3.061   5.205 -0.0541  0.2802 -0.0892
25366W        W44900   9.795   4.911   3.903  0.0109 -0.2696 -0.0156
25367W        W44901   4.657   7.758   0.783 -0.0078 -0.0563 -0.2406
25368W        W44902  11.200  13.973   2.256  0.0992  0.2384  0.2506
25369W        W44903  11.576  16.719   0.805  0.1356 -0.1768 -0.1886
25370W        W44904  12.096  17.852   1.120 -0.3238  0.1139 -0.2801
25371W        W44905  12.471   9.742  11.083  0.2469 -0.0747  0.1776
25372W        W44906  10.840   9.775  12.849 -0.0454 -0.0013  0.1377
25373W        W44907   0.234   2.660   0.572 -0.1415  0.0315  0.1278
25374W        W44908  18.478   3.464   2.941  0.1284 -0.0400  0.4464
25375W        W44909   9.514   3.298   1.296  0.0061  0.1503 -0.0035
25376W        W44910  10.236   7.091  10.320 -0.0163  0.1208  0.2420
25377W        W44911  14.092   9.210   2.723  0.0516  0.2651 -0.1562
25378W        W44912  12.800   7.382  14.050 -0.0875  0.0186  0.0178
25379W        W44913  13.066  10.076   1.840  0.2155  0.1601 -0.0585
25380W        W44914  17.332  18.463  11.930 -0.0784  0.1820 -0.1862
25381W        W44915   6.509   7.463  14.146 -0.1005 -0.0603 -0.0648
25382W        W44916  12.119   0.288  12.968 -0.1645  0.3360  0.0197
25383W        W44917   5.371   8.237   1.931 -0.1257  0.1577  0.2418
25384W        W44918  17.873   3.650  13.417  0.0772 -0.1060  0.1410
25385W        W44919  14.842   4.112   5.453  0.2874  0.0792 -0.1602
25386W        W44920   5.721   9.915   2.642  0.3220  0.0993  0.3674
25387W        W44921  17.517   2.092  11.072 -0.0236  0.1875 -0.0095
25388W        W44922  12.465  11.367   0.052 -0.2419  0.0723 -0.0959
25389W        W44923  15.065  17.893   2.432  0.2259  0.0002  0.1188
25390W        W44924   4.959  14.626   3.335  0.4575 -0.0822 -0.1679
25391W        W44925  18.241   1.770  11.602 -0.0926 -0.1293 -0.2904
25392W        W44926  14.671   6.539   2.297  0.3124 -0.0845  0.1088
25393W        W44927  17.134  18.474   0.908  0.0999 -0.0714  0.1548
25394W        W44928  11.115  17.601   9.614  0.2401  0.0693 -0.2561
25395W        W44929  19.294  12.019   3.536 -0.1331 -0.0666 -0.0563
25396W        W44930   3.643  11.624   2.170  0.2178 -0.4299 -0.0039
25397W        W44931   1.402  13.118  13.483 -0.2666 -0.1290  0.0515
25398W        W44932   7.339  14.548   3.166 -0.0469 -0.1101  0.0613
25399W        W44933  18.103  14.267   3.583  0.0705 -0.0946 -0.0759
25400W        W44934   1.888  12.047  11.611  0.0066  0.0349  0.0918
25401W        W44935  12.728   9.882   3.386  0.2875  0.2077 -0.3182
25402W        W44936  16.591   3.766   3.315  0.0738  0.4161 -0.1195
25403W        W44937   4.657  15.311   0.175  0.0508  0.2123  0.2950
25404W        W44938   1.331   3.021   0.511 -0.0488 -0.2031  0.2701
25405W        W44939  13.078   6.126   1.123  0.2499 -0.1195 -0.0258
25406W        W44940   5.173  12.073  14.021 -0.1081  0.1757 -0.1228
25407W        W44941  13.504  16.357  14.189  0.3226 -0.0219 -0.2218
25408W        W44942   5.044   3.700  14.149 -0.1727 -0.0547 -0.0202
25409W        W44943   8.206  13.576  11.934  0.1001  0.2545  0.0099
25410W        W44944  15.329   5.390  11.136  0.2847 -0.0373 -0.0417
25411W        W44945  15.726  13.168   3.720 -0.2064  0.1995  0.1511
25412W        W44946   3.075   3.485   9.587  0.0850  0.0383 -0.0879
25413W        W44947   9.996  19.233   2.976 -0.1074  0.3832  0.0504
25414W        W44948   9.363  16.758  13.596 -0.2630  0.2294 -0.1161
25415W        W44949  19.069  12.653   2.671  0.0967 -0.0327 -0.4331
25416W        W44950  15.208   6.290   2.855 -0.1976 -0.0287 -0.0200
25417W        W44951  15.053   3.970   1.312 -0.0176 -0.2064 -0.1359
25418W        W44952  13.493   5.675   1.057  0.3475  0.2258 -0.0441
25419W        W44953  11.328   8.277   9.655  0.4136  0.1586  0.0309
25420W        W44954  18.221  13.533  10.251  0.1290 -0.1298 -0.0850
25421W        W44955  16.771   5.809   1.061  0.1766 -0.0884 -0.1045
25422W        W44956   6.769  11.481  12.908  0.1233 -0.0001 -0.2474
25423W        W44957   2.888   6.122   2.623  0.0626  0.0682  0.0772
25424W        W44958   1.109  15.110   2.335  0.1972 -0.1147  0.0073
25425W        W44959   7.704   3.030   1.141 -0.0037  0.3597  0.0496
25426W        W44960  14.240   7.923   0.562 -0.1906 -0.1683 -0.3017
25427W        W44961   8.291   9.108  13.553 -0.1302 -0.1868  0.3338
25428W        W44962   2.068   1.259   4.340  0.1460 -0.0725  0.2173
25429W        W44963  11.846  14.377   3.234 -0.4749  0.4155 -0.3462
25430W        W44964  10.349   8.792  13.780 -0.1221  0.3130  0.0749
25431W        W44965   1.627   7.093   4.426 -0.3447  0.2489 -0.0645
25432W        W44966  15.383  16.066   1.642  0.2690  0.0794  0.0211
25433W        W44967  13.087   5.471  12.733  0.0917 -0.4309 -0.2751
25434W        W44968  13.123   3.082   0.932  0.4408  0.2357 -0.2708
25435W        W44969  16.688  18.564  10.350 -0.1499 -0.1678 -0.1100
25436W        W44970  11.696   7.564   3.003  0.1548 -0.0954 -0.0869
25437W        W44971  10.174   3.083   2.335  0.0290  0.1146  0.0227
25438W        W44972  10.046   5.526   4.506 -0.0458  0.1115  0.1096
25439W        W44973  18.760   8.642  11.125 -0.2253 -0.1103  0.2310
25440W        W44974   1.595  10.137   4.124 -0.1797  0.1135  0.1476
25441W        W44975   3.175  12.265   3.140 -0.3265 -0.0884  0.0041
25442W        W44976  10.138   5.144   0.759  0.2250 -0.0110  0.2824
25443W        W44977  15.606  10.239  10.849  0.0184 -0.0247  0.0875
25444W        W44978  14.572   2.666   3.053 -0.1130  0.0026 -0.1246
25445W        W44979  13.472  13.696  10.406 -0.1464 -0.0270 -0.4316
25446W        W44980  13.505   4.593   2.987 -0.0549 -0.0057 -0.1707
25447W        W44981   9.753   6.305  12.838 -0.0619  0.2688  0.1752
25448W        W44982   6.730  14.968  11.643 -0.4841 -0.3020 -0.1361
25449W        W44983  12.285   2.907   2.150 -0.0921 -0.0219 -0.3701
25450W        W44984  10.806  10.716   3.916  0.1012  0.0921 -0.0550
25451W        W44985  16.062  13.273  13.812 -0.1649 -0.1038 -0.3248
25452W        W44986   0.579   0.108  13.586 -0.1107  0.0388  0.4112
25453W        W44987   3.384  18.998   2.392 -0.0262 -0.0069  0.0776
25454W        W44988  15.597   3.267   0.095  0.0337 -0.1313  0.2795
25455W        W44989  15.286   9.850  11.810  0.0106  0.1609  0.1005
25456W        W44990  11.097   0.993  11.141 -0.2020  0.3953 -0.0022
25457W        W44991  15.340  18.482   1.350 -0.3818 -0.1828 -0.3445
25458W        W44992   9.868   4.315  13.878 -0.0940  0.2110 -0.0289
25459W        W44993  12.488  19.076  10.076 -0.0370 -0.0110  0.2467
25460W        W44994  18.147   1.623  14.181  0.1144  0.1179  0.0035
25461W        W44995  13.834   9.717   2.609  0.1821 -0.2324 -0.0744
25462W        W44996   1.941  16.786  12.963 -0.1748  0.0274  0.3017
25463W        W44997  19.510  17.361  12.207  0.2821 -0.0939  0.2310
25464W        W44998  13.352   3.407  13.938  0.4179  0.0955 -0.3187
25465W        W44999   9.975   1.498  11.895  0.1570 -0.0243  0.0801
25466W        W45000  11.962   7.987  13.944  0.2706  0.1036  0.2637
25467W        W45001   5.867   2.342  11.490 -0.2260 -0.0576  0.3028
25468W        W45002   6.040   8.895  13.989 -0.0735  0.0751  0.0615
25469W        W45003   1.918   0.020  11.889 -0.1261  0.0458  0.0026
25470W        W45004  10.723   4.753  12.110  0.1300 -0.1888 -0.2562
25471W        W45005   2.626   5.293   2.709 -0.0096 -0.0505  0.0532
25472W        W45006   6.223  13.280   0.408 -0.2373 -0.2421  0.0721
25473W        W45007   4.275   5.768   1.437  0.0419 -0.0248  0.0054
25474W        W45008   4.266  16.218  11.554  0.0038  0.0857 -0.0091
25475W        W45009  18.639  12.988  10.822 -0.2385 -0.0219 -0.0968
25476W        W45010  17.180   2.986  12.485 -0.0698  0.2619 -0.1604
25477W        W45011   2.114  10.026   2.766 -0.3456  0.1251 -0.1510
25478W        W45012   1.052   7.990  11.237  0.2212 -0.0917  0.2370
25479W        W45013   4.912  19.321   2.638 -0.0509  0.0329 -0.0998
25480W        W45014  13.250  17.433  12.887  0.0804  0.1120 -0.2170
25481W        W45015   2.638   6.379  13.280 -0.0460  0.0857 -0.1016
25482W        W45016  12.030   7.779   0.003 -0.1790  0.4444 -0.5037
25483W        W45017   3.225  18.973  12.929  0.5404  0.0762  0.0537
25484W        W45018  15.567  10.188  11.582 -0.1143 -0.0525  0.0087
25485W        W45019   3.577  18.338  12.342 -0.1629  0.2185  0.1282
25486W        W45020  19.266   1.892  11.669 -0.4314 -0.1672  0.1649
25487W        W45021  12.442   7.397  11.467  0.2663  0.0129  0.0177
25488W        W45022  17.264   4.584  13.504 -0.1977  0.0026 -0.4915
25489W        W45023   9.565   4.482  11.605  0.1682  0.2867 -0.3226
25490W        W45024  16.121  14.779   0.888  0.2700 -0.1080 -0.2938
25491W        W45025   9.398  18.299   1.637  0.2841 -0.2780 -0.0781
25492W        W45026  18.385   6.217   0.150 -0.0456  0.0766  0.0376
25493W        W45027  17.821   0.799  10.170 -0.0065 -0.0088  0.0899
25494W        W45028  14.950   7.345  14.294  0.0963 -0.0119  0.0835
25495W        W45029  11.401   3.808   0.920 -0.0970 -0.2695  0.0387
25496W        W45030  17.985  16.799  14.349 -0.0762 -0.0021  0.2275
25497W        W45031   2.373  15.523  10.835  0.3749 -0.0025 -0.2156
25498W        W45032  15.309  14.727   1.324 -0.0170  0.0236 -0.3554
25499W        W45033  15.849   1.074  13.735  0.0447 -0.1787  0.1033
25500W        W45034  18.242   1.898   0.595 -0.0295 -0.2436  0.0155
25501W        W45035   5.869   2.620  12.889  0.2251 -0.2950  0.0313
25502W        W45036  18.302   3.208   3.294  0.1896  0.2180 -0.1773
25503W        W45037  10.852   2.799  13.259  0.0979  0.0114  0.0891
25504W        W45038  15.656   7.616  10.731  0.0228 -0.2417  0.0485
25505W        W45039   1.217  13.900   0.784 -0.1088  0.2816 -0.2288
25506W        W45040   8.141   5.507   9.953 -0.0041 -0.0323  0.1161
25507W        W45041   6.120  14.501  10.375  0.1283  0.1726 -0.1234
25508W        W45042   4.936  12.015  10.452 -0.0064 -0.1620  0.2453
25509W        W45043   5.919  13.759  11.776 -0.0224 -0.2246  0.0951
25510W        W45044  14.895   6.174   0.674  0.0200  0.1256  0.0957
25511W        W45045   0.489  11.052   2.670 -0.1963  0.3158  0.1850
25512W        W45046   5.462  14.444   0.832  0.0340  0.2496 -0.2058
25513W        W45047  17.917  13.448  11.422 -0.0141  0.2977 -0.1657
25514W        W45048   5.309  18.004  12.490 -0.0248 -0.0604  0.0179
25515W        W45049   6.080  13.041   2.972  0.3003 -0.1852 -0.0348
25516W        W45050  12.155   2.926  14.289  0.0344 -0.1067  0.0076
25517W        W45051  16.079  17.270  12.212 -0.0655  0.4226 -0.1368
25518W        W45052   8.992  10.690   3.718 -0.0515 -0.3914 -0.2030
25519W        W45053   0.325   5.815  11.950 -0.1374 -0.2114  0.0752
25520W        W45054   6.348  15.265  13.133 -0.5632  0.1636  0.2668
25521W        W45055   2.172   3.266   0.921 -0.0811 -0.1770 -0.0961
25522W        W45056  18.721   3.674  13.843  0.3386  0.2564 -0.0587
25523W        W45057  14.493   9.897  11.022  0.0516 -0.0154 -0.1196
25524W        W45058   7.463   0.843  11.332 -0.1137 -0.1884 -0.3272
25525W        W45059  11.388   5.123  11.746 -0.1278 -0.2331  0.0814
25526W        W45060   8.715   6.175  11.758  0.1131  0.2373  0.0699
25527W        W45061   7.088  16.443   2.015 -0.5242 -0.2112 -0.0543
25528W        W45062   6.815   5.416   2.352 -0.2689 -0.1216  0.0393
25529W        W45063  14.052   6.289   1.278 -0.2294 -0.1382 -0.0013
25530W        W45064   5.201   0.568  11.517  0.2828  0.0012 -0.2706
25531W        W45065  12.151   8.292   2.790 -0.0205 -0.3129 -0.2742
25532W        W45066  11.904   6.161   2.029  0.0306 -0.1765  0.0832
25533W        W45067   9.349  18.131  12.538 -0.0616  0.2563  0.1107
25534W        W45068  16.048   0.412   2.611 -0.1949  0.1997 -0.1056
25535W        W45069   4.529   6.477  10.965 -0.3123  0.4541 -0.2380
25536W        W45070  10.334  15.077  14.140 -0.0925 -0.2447 -0.1346
25537W        W45071  15.030  17.808   0.650 -0.3263  0.1912  0.1542
25538W        W45072   2.231   1.964   3.896  0.2007 -0.2487  0.0698
25539W        W45073   0.617  15.388   0.868 -0.1134 -0.0262  0.0323
25540W        W45074   6.090   9.235  10.606 -0.0632 -0.1654  0.2020
25541W        W45075  10.132  16.253  14.236  0.2884  0.1721 -0.1720
25542W        W45076   9.677  17.326  12.261 -0.0595 -0.0180  0.0934
25543W        W45077   5.929   0.181  13.802  0.0069 -0.1510 -0.3251
25544W        W45078  13.489  19.252   2.416  0.0780 -0.0959 -0.2560
25545W        W45079   6.723  10.466   1.781  0.0471 -0.0686 -0.0369
25546W        W45080   5.160   4.982  13.104  0.1899 -0.2272  0.0689
25547W        W45081   0.666   2.928  11.250 -0.0405  0.1267  0.1791
25548W        W45082   3.648  14.780  12.886 -0.0691  0.0640  0.0107
25549W        W45083  13.886   5.040   4.033  0.2191  0.2005 -0.2019
25550W        W45084  13.003   6.137  13.228 -0.0476 -0.1088 -0.1449
25551W        W45085  18.957   1.831   0.849 -0.1065 -0.1882  0.2238
25552W        W45086   5.438  10.612  11.576 -0.1276 -0.3339 -0.2239
25553W        W45087   1.477  10.850  14.167  0.0515 -0.0441  0.0343
25554W        W45088  11.852  10.442   1.311  0.0354  0.1513 -0.0014
25555W        W45089   3.208   7.499   0.694  0.1286  0.1122  0.2996
25556W        W45090  17.061   0.800  13.489  0.2198  0.0602 -0.0426
25557W        W45091  12.782   8.096   1.240 -0.2151  0.4005 -0.0756
25558W        W45092  15.366   0.699  12.273  0.2735  0.1883  0.0051
25559W        W45093  15.005  12.950  12.960  0.2114  0.3838  0.0435
25560W        W45094  11.260   2.339   0.977 -0.2299  0.2191 -0.3237
25561W        W45095   5.538   3.451  14.124 -0.1741  0.0032  0.0828
25562W        W45096   8.739  10.014   2.789 -0.0821 -0.0161 -0.0396
25563W        W45097   6.114   3.747  11.435  0.1291  0.0055  0.0322
25564W        W45098   2.262   1.561   0.119  0.0715 -0.0275 -0.2564
25565W        W45099   2.425  12.021  11.550 -0.1783  0.0339 -0.1143
25566W        W45100  12.117  12.781   0.080  0.0642  0.0868 -0.0532
25567W        W45101   2.423  12.639   1.949  0.1634  0.0980  0.1977
25568W        W45102  14.600  15.831   3.124  0.0747  0.0651 -0.1861
25569W        W45103  11.807   4.734   2.786 -0.0167 -0.1365  0.0042
25570W        W45104   0.315   7.444  10.721  0.0662 -0.1346  0.2740
25571W        W45105  17.093   3.902   3.126  0.2950 -0.1970 -0.0082
25572W        W45106  15.084  13.025  13.504 -0.3417 -0.1783  0.0873
25573W        W45107  15.340  17.133  10.412  0.1167 -0.1219  0.3396
25574W        W45108  13.086   2.433  12.069 -0.0009  0.3032  0.0026
25575W        W45109  12.334  13.739   2.805 -0.0482  0.0022 -0.0580
25576W        W45110  11.533   2.563  10.834  0.1523 -0.2924 -0.5412
25577W        W45111   5.046  15.843   2.130  0.2412 -0.0678 -0.0726
25578W        W45112  13.764  14.813   3.742 -0.1871  0.0669  0.0295
25579W        W45113   0.709  19.135  13.365  0.1640 -0.1108  0.2112
25580W        W45114  15.267  15.786  14.020 -0.2901 -0.0351 -0.1767
25581W        W45115  11.063  14.412   0.806 -0.1438  0.0791  0.0424
25582W        W45116  17.356   7.823  11.945 -0.1130  0.0544 -0.0076
25583W        W45117   8.812   7.010  12.347 -0.3851  0.2160  0.0887
25584W        W45118  14.503  13.704  12.539  0.1006 -0.0580  0.1498
25585W        W45119  11.535   9.739  13.991  0.1710 -0.2867  0.0444
25586W        W45120   7.738  15.779   1.977  0.0107  0.0214 -0.1212
25587W        W45121  16.642  14.757  13.702  0.0617  0.0497  0.2401
25588W        W45122   4.749  11.402   3.726 -0.1590  0.2722 -0.2103
25589W        W45123  13.656   1.003  13.925  0.2672  0.3061 -0.0541
25590W        W45124  12.772   1.283  10.734  0.0370 -0.3278 -0.0315
25591W        W45125   3.249  18.458   0.502  0.1558 -0.0619 -0.2619
25592W        W45126   9.263  13.473   0.562  0.0324 -0.0876 -0.2773
25593W        W45127   3.269   9.188   2.684  0.2870  0.0143  0.0054
25594W        W45128   6.588  15.913   3.484 -0.0351  0.1258 -0.1376
25595W        W45129   8.272  16.771   0.505  0.1993 -0.0739 -0.2332
25596W        W45130   2.236  16.016  12.823  0.0489 -0.0858  0.2605
25597W        W45131  12.313   7.868   1.222 -0.5161 -0.2140 -0.0280
25598W        W45132  15.785  10.565  13.877 -0.2213 -0.2788  0.0640
25599W        W45133   3.017   5.460  12.229 -0.2280  0.2850 -0.2098
25600W        W45134   8.070  14.503   4.475 -0.1244  0.0982 -0.0466
25601W        W45135  18.055   3.913   4.013  0.2258  0.1707  0.0462
25602W        W45136  10.972   0.471  12.522 -0.1053 -0.1870  0.1368
25603W        W45137   9.795   3.311  13.925  0.0804  0.1571  0.1151
25604W        W45138   1.860  12.458   0.263  0.2739  0.1052 -0.2871
25605W        W45139   7.111   6.343   3.989  0.1576 -0.0966  0.1575
25606W        W45140  12.223  13.354   0.866 -0.0372  0.0737  0.0018
25607W        W45141  12.470  12.326  12.550 -0.1918 -0.1259  0.1527
25608W        W45142   4.462  10.898   2.000 -0.1390 -0.1093  0.1018
25609W        W45143  18.509  10.175  10.908 -0.2683 -0.0150  0.2476
25610W        W45144   1.285   0.761  11.097  0.0587 -0.0653  0.1735
25611W        W45145   8.152  19.152  13.089  0.0891 -0.0326 -0.1248
25612W        W45146   2.075   2.840  13.496 -0.0029 -0.0699 -0.0833
25613W        W45147   8.011  15.992  10.496  0.3839  0.0671  0.1356
25614W        W45148  17.319  14.832   1.156 -0.0923 -0.1082 -0.3937
25615W        W45149  19.358  18.657  13.028  0.2464  0.2406  0.0674
25616W        W45150   4.970   0.802  12.106  0.2147 -0.0846 -0.2212
25617W        W45151  18.546  12.043  11.399  0.0795 -0.1538  0.0557
25618W        W45152   9.481  17.604   3.576 -0.0623  0.0458  0.0207
25619W        W45153  11.136  10.791  13.638  0.0762 -0.0514  0.0209
25620W        W45154  15.112   8.576  14.079 -0.2151  0.2796 -0.0868
25621W        W45155  16.696  10.010   3.302 -0.0470  0.1527 -0.0366
25622W        W45156  17.931   5.943  10.580  0.0489 -0.0014 -0.2562
25623W        W45157   7.639  18.502   3.975  0.2345 -0.2114  0.0653
25624W        W45158  18.703  19.214   2.260  0.0818  0.1896  0.1425
25625W        W45159   7.398   0.649   9.875  0.0566 -0.0896 -0.0933
25626W        W45160   5.997  17.043   3.810  0.0426  0.0091  0.0907
25627W        W45161  12.623   2.917   1.011  0.1705 -0.3150  0.0390
25628W        W45162  13.245   0.727  12.480  0.1298 -0.2090  0.0467
25629W        W45163  17.964  16.951   9.927  0.2306  0.1171  0.0727
25630W        W45164  14.332  18.048  11.739 -0.0948  0.0842 -0.0927
25631W        W45165   3.257  11.447  13.448  0.1043 -0.3194  0.1868
25632W        W45166  12.075  10.392   4.280 -0.2862  0.0287 -0.2120
25633W        W45167  19.419   2.406  10.330  0.1758 -0.0418  0.1730
25634W        W45168   7.289   1.831   0.065  0.1849  0.1643  0.0294
25635W        W45169   2.630   6.613   2.861  0.1857  0.0057  0.3206
25636W        W45170   8.273   2.440  12.888 -0.0186  0.0105  0.2338
25637W        W45171  19.271  10.574   0.431 -0.1357 -0.1450  0.0884
25638W        W45172  12.429   4.924  12.129  0.1436 -0.2661 -0.1363
25639W        W45173   4.015  12.764   0.239  0.2856 -0.1420 -0.1607
25640W        W45174   2.018   0.183   0.729 -0.3447 -0.0082  0.0759
25641W        W45175   5.904  11.097  13.043 -0.2374  0.0187 -0.1036
25642W        W45176   7.958   9.833   3.254  0.1342  0.0275  0.2336
25643W        W45177  16.246  15.059  12.657 -0.0664 -0.2518 -0.2202
25644W        W45178  12.841   6.715  14.150 -0.0371  0.3654 -0.1570
25645W        W45179   5.153   3.919  13.255  0.1604  0.2604 -0.0068
25646W        W45180   5.694  18.767   1.595 -0.1949  0.0861  0.4229
25647W        W45181   2.734   5.659  11.758 -0.0308 -0.0337  0.0010
25648W        W45182   2.827   9.975   2.515 -0.2478 -0.0220  0.0808
25649W        W45183  12.477   5.409  13.433 -0.1241 -0.2107  0.1926
25650W        W45184  10.330  16.015  12.051  0.0827  0.0141 -0.1590
25651W        W45185  13.555   3.305  12.420  0.1109  0.0522 -0.0798
25652W        W45186   9.439  18.235  13.576  0.3313 -0.0162 -0.0042
25653W        W45187  10.621  18.048   1.409  0.0093 -0.1404  0.1954
25654W        W45188   1.344   5.535  11.567  0.0617  0.3466 -0.0615
25655W        W45189   4.750   3.971   3.588  0.0602  0.0955  0.2108
25656W        W45190   8.190   3.098   3.337 -0.0896 -0.1202  0.1179
25657W        W45191  18.056   0.237  13.539 -0.5890 -0.0856 -0.0648
25658W        W45192  18.183  17.277  11.569 -0.1667  0.1016 -0.1455
25659W        W45193  16.434  13.461   1.538 -0.0932 -0.0812  0.0660
25660W        W45194  16.342   6.786   3.408  0.1837 -0.0477  0.2291
25661W        W45195  16.832   9.968   1.552  0.1336 -0.0138  0.3976
25662W        W45196  17.633   5.518  13.814 -0.0318  0.1375 -0.2942
25663W        W45197  13.514   4.089   2.786  0.3232 -0.4987  0.2927
25664W        W45198   1.477   2.852  13.863 -0.0320  0.2258 -0.0337
25665W        W45199  10.485   1.754  12.804 -0.0736  0.2028 -0.0807
25666W        W45200   4.417   9.248  13.152 -0.0476 -0.1971 -0.1427
25667W        W45201  15.233   6.086  14.246  0.1868 -0.2459  0.0844
25668W        W45202   5.281  10.245   0.813 -0.0261 -0.1826 -0.0500
25669W        W45203   1.539  16.070  13.433 -0.2008  0.2994 -0.0919
25670W        W45204   3.098  10.510  13.891  0.1053 -0.0993 -0.1333
25671W        W45205   1.251  12.817  13.853 -0.1903 -0.2771 -0.2875
25672W        W45206  14.928   6.661  14.204 -0.0541  0.0886  0.0716
25673W        W45207  13.259  11.979  13.702  0.1093 -0.1055  0.1968
25674W        W45208  16.687   7.486  11.467  0.2440 -0.4062 -0.0146
25675W        W45209   5.221   3.319   2.322  0.0449 -0.0822  0.1548
25676W        W45210   6.383   2.624  14.108  0.1965 -0.0169 -0.1990
25677W        W45211  19.368   1.934   9.741 -0.1249  0.0821  0.3804
25678W        W45212  13.777  16.891  12.196 -0.1420  0.0690 -0.2170
25679W        W45213  16.294  11.178   0.429 -0.1064 -0.0884 -0.1877
25680W        W45214   9.746   4.181   1.025  0.0073 -0.0964 -0.0378
25681W        W45215  10.873  17.123  11.162  0.1877 -0.2264 -0.1332
25682W        W45216   2.612  13.335   3.733 -0.2390 -0.0770  0.3048
25683W        W45217  14.721   1.288  11.210  0.0495 -0.1822  0.3568
25684W        W45218   8.725  17.142   2.174 -0.1283  0.3388  0.3047
25685W        W45219   1.071  17.691   0.683  0.0212  0.0637 -0.0766
25686W        W45220  15.205   7.461  12.672 -0.0283 -0.1412  0.2202
25687W        W45221  15.560   7.353   0.838 -0.0194 -0.0801  0.1013
25688W        W45222   2.469  13.571  10.506  0.0873  0.2586  0.0640
25689W        W45223  18.473  17.975   2.857  0.0765 -0.0693 -0.2525
25690W        W45224   8.268   7.209  13.014 -0.2057  0.2614 -0.0897
25691W        W45225   6.656   6.574   3.816 -0.1387 -0.4420  0.3881
25692W        W45226   8.297   0.918  10.195 -0.1342 -0.1043  0.2211
25693W        W45227  13.772   0.618  10.732  0.0104 -0.0490  0.4174
25694W        W45228  15.342   4.443   1.145  0.1100  0.0953 -0.1638
25695W        W45229  13.721   0.784  12.281  0.0541  0.0954 -0.3873
25696W        W45230   3.166   0.715  12.068 -0.0926  0.0754  0.1196
25697W        W45231   4.596   6.187   2.621 -0.3111  0.0276 -0.3003
25698W        W45232   8.987  10.832  13.862 -0.0396 -0.1960  0.3119
25699W        W45233   2.528   6.897   1.036 -0.6229  0.1087 -0.0030
25700W        W45234   4.837   5.516   1.153 -0.1217  0.1448  0.0634
25701W        W45235   8.178   9.932  12.492 -0.1015 -0.0684 -0.2288
25702W        W45236   3.044   1.521  11.469  0.0286  0.1489 -0.3643
25703W        W45237   8.945  16.491   0.567 -0.0690 -0.1828 -0.3144
25704W        W45238  19.244   9.190  12.178 -0.0584 -0.2451  0.0541
25705W        W45239  14.738  12.815   3.850  0.0509  0.1020 -0.2482
25706W        W45240   1.449  12.087   2.511 -0.0311 -0.0078 -0.2968
25707W        W45241  15.944  16.616   0.645  0.0669  0.0775  0.0972
25708W        W45242  10.914   7.140   2.922  0.1212  0.0181 -0.1737
25709W        W45243  16.486  13.386   2.456 -0.0637 -0.2699  0.2922
25710W        W45244  17.311   2.396  12.951  0.2186  0.0330  0.2223
25711W        W45245  18.730  15.543  10.973 -0.2331  0.0087  0.1941
25712W        W45246   2.769   0.533  10.676 -0.2789  0.2365 -0.0640
25713W        W45247   9.877   1.112  10.822 -0.0177  0.2547  0.1934
25714W        W45248  15.574   8.576  14.303 -0.2019  0.1555  0.0521
25715W        W45249   8.733  19.084  13.820 -0.1668  0.0340  0.1478
25716W        W45250  11.028   4.454  14.068 -0.0122 -0.0062  0.2324
25717W        W45251  12.364   5.965  12.265  0.3227  0.4196 -0.1223
25718W        W45252   1.767   0.409   3.292 -0.2196  0.1012 -0.0666
25719W        W45253   8.489  14.089   0.818 -0.0071 -0.2315  0.2794
25720W        W45254   8.285  19.017  13.613  0.1338 -0.1446 -0.1164
25721W        W45255  18.872   4.885  11.542  0.0695 -0.3358 -0.2005
25722W        W45256   5.650   8.251   4.052 -0.1650  0.1943 -0.0092
25723W        W45257   7.914  16.916  12.586  0.2478  0.2307  0.3112
25724W        W45258   0.795  15.668  14.044 -0.4727  0.1707 -0.0221
25725W        W45259   4.675  16.355   4.216  0.3690  0.2456 -0.0332
25726W        W45260   8.915   4.504   1.203 -0.1485 -0.0723  0.0196
25727W        W45261   9.561  14.890  13.099 -0.1683  0.0280 -0.3313
25728W        W45262  19.056   1.073  10.678  0.4682 -0.4257  0.3826
25729W        W45263   3.631  16.480  13.400 -0.1417  0.1619  0.1893
25730W        W45264   0.027  16.790   0.886 -0.0280 -0.0761 -0.1651
25731W        W45265   3.936  12.346  14.261  0.3663  0.2031  0.5662
25732W        W45266   7.946   5.872   0.557  0.0235 -0.1074 -0.1570
25733W        W45267  16.412   8.365  12.223 -0.0593 -0.1796 -0.0462
25734W        W45268   4.131  16.507   1.563  0.0264 -0.0696  0.1679
25735W        W45269  11.464   1.739  14.298  0.0476 -0.1157  0.2750
25736W        W45270   8.442   6.610   3.675  0.0136  0.1264  0.1293
25737W        W45271   8.311  10.316  13.862 -0.3561  0.1099  0.2397
25738W        W45272  17.660   9.697  12.883  0.1740 -0.2055  0.0633
25739W        W45273  16.155  12.821   1.840 -0.3989 -0.3476  0.0232
25740W        W45274  13.336  12.322  10.928  0.0041  0.1230 -0.5275
25741W        W45275  14.892  18.778   0.725 -0.2826  0.2229 -0.2708
25742W        W45276  13.518  13.494  12.361 -0.1554  0.0523 -0.0077
25743W        W45277   4.279   1.292  10.674 -0.0892  0.0344 -0.2093
25744W        W45278   6.133   7.398  10.915 -0.3433  0.0673  0.1294
25745W        W45279   6.219  17.494  11.925 -0.1902 -0.1906 -0.1829
25746W        W45280  13.942  10.907   3.207  0.1850 -0.1483  0.2906
25747W        W45281  11.375   7.720   4.093 -0.3304  0.2183  0.0621
25748W        W45282  10.945   8.173   2.714 -0.0342 -0.2439 -0.1079
25749W        W45283   9.755   3.682  14.362  0.0053  0.1268 -0.1200
25750W        W45284  15.272  18.224  12.489 -0.3046  0.1878  0.0278
25751W        W45285   8.310  16.020  12.655  0.0379 -0.3115 -0.4554
25752W        W45286   9.023   4.009  11.254 -0.0016 -0.3269  0.1378
25753W        W45287   8.632   1.591  12.601 -0.0969 -0.1952  0.0542
25754W        W45288  11.634   5.696  11.035 -0.2015  0.0765  0.1605
25755W        W45289   2.477  17.542  10.443 -0.0058 -0.0014 -0.1643
25756W        W45290   5.489  18.088  10.787  0.2088  0.0690  0.1815
25757W        W45291   7.709   8.905   0.577 -0.5157 -0.3103  0.0716
25758W        W45292  17.250   3.254  11.584  0.0119  0.2388  0.2952
25759W        W45293  10.247   6.214  12.898  0.1612  0.0274  0.0989
25760W        W45294  17.903  13.632   3.158  0.1701  0.2791  0.0144
25761W        W45295   5.529  15.684   1.854  0.0669 -0.1848  0.1498
25762W        W45296   9.804   0.672   0.503 -0.2537 -0.1962  0.2091
25763W        W45297  12.063  13.463   2.453 -0.2234  0.2317  0.0260
25764W        W45298  12.716   8.535  13.750 -0.0364  0.1092 -0.3558
25765W        W45299  12.600  17.599  10.452 -0.1991 -0.1543  0.0410
25766W        W45300   5.854   9.266  11.974 -0.1570 -0.1591  0.0274
25767W        W45301  18.568   1.955  11.971  0.0327  0.0045  0.2076
25768W        W45302  18.049  12.642  12.372  0.3128 -0.2358 -0.2842
25769W        W45303   1.414  12.552   2.318 -0.1420  0.2279  0.4604
25770W        W45304   6.456   7.010   3.818  0.3522 -0.2100  0.2570
25771W        W45305   2.169  13.096  12.595 -0.1530  0.3874 -0.0341
25772W        W45306  13.974  15.617   3.462  0.0188 -0.2219  0.2255
25773W        W45307   7.218   9.236   1.846 -0.0867 -0.5237  0.2603
25774W        W45308   4.995   6.740   9.523  0.0239 -0.0044  0.1627
25775W        W45309  13.048  12.634  11.230 -0.3970  0.0989  0.0235
25776W        W45310   6.375  15.296   2.650 -0.0488  0.0448 -0.0157
25777W        W45311  14.495  11.475   2.170 -0.2297 -0.0998  0.1773
25778W        W45312   6.648   6.880   1.175 -0.3337 -0.0450  0.0009
25779W        W45313  15.296  10.595  10.129  0.1479 -0.2500 -0.4453
25780W        W45314  10.268  10.493  13.664  0.1165 -0.1063  0.3988
25781W        W45315  16.762  16.176  13.985 -0.2893 -0.4686  0.0247
25782W        W45316  10.497  17.705  11.844 -0.0791  0.0694  0.2424
25783W        W45317  17.242   6.876  12.021  0.0438  0.0728  0.2287
25784W        W45318  13.360  17.867  12.595  0.2501 -0.2462  0.4481
25785W        W45319  10.531   2.580   4.052 -0.1235  0.5354 -0.2960
25786W        W45320  17.448   2.080  13.832 -0.0412 -0.2788  0.0215
25787W        W45321  17.512   3.783  13.067  0.0705 -0.1124  0.0421
25788W        W45322  10.417  14.633   2.304  0.3113  0.0924  0.2606
25789W        W45323   7.844  18.485  12.379 -0.0834  0.0391 -0.2573
25790W        W45324  14.368   0.479   1.937 -0.4411 -0.1452  0.0810
25791W        W45325   0.344  14.329   3.201  0.0605  0.4654 -0.0177
25792W        W45326  18.131   4.628   5.200 -0.2336 -0.3741 -0.0426
25793W        W45327  12.758   4.184   0.467  0.0102  0.2294 -0.3143
25794W        W45328   8.198  19.131   1.146  0.0074 -0.2340  0.1690
25795W        W45329   8.998   5.177  10.276  0.1526 -0.0445 -0.0925
25796W        W45330  14.259  11.847   2.474 -0.0472 -0.4774  0.1589
25797W        W45331  10.761   4.967  12.608  0.0061 -0.3898 -0.1560
25798W        W45332   4.810  12.203   0.314 -0.1381 -0.0074  0.1290
25799W        W45333   1.730  13.881   4.361 -0.2372  0.4436 -0.1831
25800W        W45334   9.955   0.122  14.244  0.0942  0.2126 -0.0035
25801W        W45335  15.544  16.558   0.286  0.2148  0.1235  0.0612
25802W        W45336   8.159  14.114  10.891  0.1617  0.0555 -0.0336
25803W        W45337  13.429  18.215  11.762  0.0443 -0.0238  0.0100
25804W        W45338   4.893   8.152   0.117 -0.0315 -0.1040 -0.2033
25805W        W45339   3.280  16.841   5.233  0.1130  0.2974 -0.0450
25806W        W45340  12.661   0.286   2.527 -0.2466 -0.1216  0.1164
25807W        W45341  11.844  15.090   3.053 -0.1401 -0.2388 -0.0583
25808W        W45342   3.467  11.183  12.517  0.1282 -0.2124 -0.2353
25809W        W45343  16.645  15.811  12.296  0.0806  0.0073  0.0517
25810W        W45344   1.590  10.108   2.747 -0.2266  0.0457 -0.2921
25811W        W45345  14.379  17.226  10.810 -0.1886 -0.0569 -0.0353
25812W        W45346  11.646   1.944   1.759  0.0792  0.0313  0.0699
25813W        W45347  18.273   7.472   2.871 -0.3333 -0.0852  0.1398
25814W        W45348   7.075   3.012  11.135 -0.2497 -0.1974  0.0232
25815W        W45349   1.883   7.366  12.312 -0.0136 -0.0691 -0.3756
25816W        W45350   3.997  17.002   4.239  0.2689  0.0267  0.0276
25817W        W45351  11.862   2.511  13.434  0.1195  0.0728  0.0893
25818W        W45352   1.891  14.404  11.876  0.1338  0.2768  0.2337
25819W        W45353   9.778  18.259   2.993 -0.1804  0.1331 -0.1699
25820W        W45354  11.724  11.798   1.536 -0.1583 -0.0740  0.0630
25821W        W45355  15.397  19.308   0.068 -0.2812  0.1395 -0.0713
25822W        W45356  18.886  19.247   5.008  0.3451 -0.0500  0.0091
25823W        W45357   8.761  14.307  10.717 -0.3348 -0.3025 -0.1163
25824W        W45358   1.490  14.721   2.599  0.1583  0.2899  0.1848
25825W        W45359  17.077  10.622  11.887  0.0593 -0.0034  0.1494
25826W        W45360   4.252   5.838  11.082 -0.4707  0.3330  0.0851
25827W        W45361   7.175  10.744   2.231  0.0679  0.0881  0.0022
25828W        W45362   3.185   6.387   3.485  0.0441  0.3217  0.1072
25829W        W45363   9.872   2.280  10.391 -0.1233 -0.0061 -0.0403
25830W        W45364  11.577  11.185   4.639 -0.0967 -0.2475  0.1471
25831W        W45365  16.149  10.244  13.988 -0.0000 -0.2180 -0.0015
25832W        W45366   9.703   5.824   2.128  0.4369  0.2780 -0.0314
25833W        W45367  14.928  12.125   1.938  0.0095  0.1382 -0.2873
25834W        W45368  14.322  15.656   0.864  0.0615  0.1867  0.1281
25835W        W45369   1.419   7.195  11.994 -0.1336 -0.0850  0.1390
25836W        W45370  11.831   4.649   1.912 -0.1071  0.0819 -0.1449
25837W        W45371   9.605  13.076   0.438  0.0168 -0.0917  0.0152
25838W        W45372   0.225  19.450   3.916 -0.1505 -0.0497 -0.2552
25839W        W45373   3.628  18.824   3.033  0.3323 -0.0263 -0.1403
25840W        W45374  10.467  19.072   0.933  0.0407  0.0243  0.0585
25841W        W45375   9.080   8.730  11.961  0.3304  0.0007  0.2147
25842W        W45376   0.782   4.625   1.913  0.1849  0.0518 -0.0407
25843W        W45377   9.062   0.911  12.061 -0.4120  0.2421 -0.1697
25844W        W45378   4.245   4.168   2.065  0.0134 -0.1159  0.1457
25845W        W45379   2.401  19.290   2.707 -0.2099  0.2534  0.1348
25846W        W45380   9.630   1.802   2.106 -0.0875  0.0310  0.1143
25847W        W45381  11.848  15.493  11.368  0.0883  0.0344  0.3031
25848W        W45382  15.758  14.138  13.310 -0.1558 -0.2731 -0.0791
25849W        W45383  13.236   7.917   1.040 -0.1083 -0.0470  0.0497
25850W        W45384  14.481  11.023   2.309  0.1126  0.1499  0.0049
25851W        W45385  15.236   5.817  13.761  0.1851  0.3137  0.0196
25852W        W45386  13.465   4.329  12.845  0.2429  0.2240  0.2513
25853W        W45387  16.065   8.792  14.013 -0.2355 -0.0499 -0.0399
25854W        W45388   8.489  18.970   3.942 -0.0514  0.5754 -0.4071
25855W        W45389  14.634  19.111  12.625 -0.0380 -0.0087 -0.0794
25856W        W45390   7.460  11.878  13.653 -0.0608 -0.2672  0.0234
25857W        W45391  11.114   7.576   1.210 -0.0797  0.0041 -0.0999
25858W        W45392   4.023  12.439  12.516  0.1186 -0.0793 -0.4551
25859W        W45393   5.506  16.963   2.594 -0.1472  0.0598  0.1560
25860W        W45394   6.703  15.338   0.481  0.2359  0.2341 -0.1767
25861W        W45395   1.779  13.903  11.886  0.2626 -0.3201  0.0355
25862W        W45396   8.127  17.371   2.631  0.3908 -0.0177  0.0046
25863W        W45397   7.238  12.703  11.330 -0.0320 -0.2416  0.1234
25864W        W45398   4.709   6.969  11.374  0.5086 -0.2194  0.2645
25865W        W45399  17.832   4.180   0.874 -0.2795  0.0743  0.2902
25866W        W45400  10.225  12.435   1.572  0.0865  0.3424  0.0483
25867W        W45401   5.060   0.241   0.669 -0.3019 -0.1688 -0.0224
25868W        W45402   0.881  13.475  10.726  0.0849  0.0274  0.2080
25869W        W45403  10.384   8.290  12.498  0.1872 -0.1125  0.1585
25870W        W45404   5.966   8.459  11.930 -0.0130 -0.0395  0.0484
25871W        W45405  18.282  12.514   0.779 -0.0258 -0.2257  0.0727
25872W        W45406  17.527   7.913  12.532  0.2930 -0.1210  0.0834
25873W        W45407  17.913   6.742   1.323 -0.0548  0.0689  0.0031
25874W        W45408  14.395  14.229  13.720  0.3224 -0.1103  0.1372
25875W        W45409   4.663   5.119   3.113  0.2345 -0.1223  0.1832
25876W        W45410  11.942   4.902  12.885  0.0561 -0.1468  0.0565
25877W        W45411  12.906  13.699   0.037 -0.1517 -0.3656  0.2623
25878W        W45412  18.862   5.412  13.979 -0.0462 -0.0275  0.0853
25879W        W45413   6.332  18.103   1.006  0.1309  0.2443  0.0396
25880W        W45414  12.217   0.789  12.944 -0.0353 -0.2448 -0.0486
25881W        W45415  19.482   0.300  10.874 -0.2940  0.3678 -0.3092
25882W        W45416  11.903  18.298   1.124  0.2173 -0.0192 -0.0898
25883W        W45417  12.823   7.498  11.803 -0.0044  0.0078  0.0768
25884W        W45418   7.791   6.640   3.390 -0.1413  0.0468 -0.2877
25885W        W45419  13.108  18.945  12.826 -0.1765  0.0018 -0.2041
25886W        W45420   7.467  11.561  10.067 -0.0556 -0.0966  0.0901
25887W        W45421   3.740  14.208   2.859  0.1242  0.0238  0.0287
25888W        W45422   5.981   2.052   2.160  0.1023 -0.1970  0.0369
25889W        W45423  17.820   9.797   0.592 -0.1282  0.0605 -0.2172
25890W        W45424   7.049   6.029   1.673 -0.2537 -0.2759 -0.2525
25891W        W45425   3.418   4.027   1.907  0.0397 -0.0438 -0.0054
25892W        W45426   6.411  13.952   3.181  0.1251  0.1217  0.1269
25893W        W45427   0.088   3.491   3.241  0.1096  0.1188 -0.0676
25894W        W45428  11.482   7.537   4.523 -0.0385 -0.1205 -0.0921
25895W        W45429   6.041   1.934   1.200 -0.3055  0.0538  0.1352
25896W        W45430  18.318  16.694  12.395  0.0990 -0.0106 -0.3589
25897W        W45431   7.424   4.689   2.302  0.0361  0.1225 -0.0238
25898W        W45432   6.185   3.243   1.901  0.0878 -0.2863  0.1617
25899W        W45433   4.874  16.786  12.802 -0.0082 -0.2835  0.2507
25900W        W45434   9.141   4.444   2.741 -0.1817  0.0748  0.0024
25901W        W45435   8.078   6.088   1.008  0.0381 -0.0463 -0.1780
25902W        W45436  15.197   3.162   0.323 -0.1461 -0.0374  0.1086
25903W        W45437  12.486  12.722  11.809 -0.2721 -0.0644  0.2291
25904W        W45438  19.025   4.287   2.756 -0.0217 -0.4734 -0.2364
25905W        W45439   8.350   2.664  12.325  0.3257 -0.1172  0.4916
25906W        W45440   9.224  10.787   1.598 -0.0899  0.1745  0.0771
25907W        W45441   6.579  10.630   2.757  0.2576  0.1014 -0.0505
25908W        W45442  15.320  14.449   3.859  0.1453  0.2398 -0.1205
25909W        W45443   5.982   1.114  11.777 -0.0424  0.0922  0.1017
25910W        W45444   8.355  10.441   2.991  0.0450 -0.0348 -0.0830
25911W        W45445   9.581   4.086   3.425 -0.2608 -0.2925 -0.0096
25912W        W45446   5.011  15.183   4.532 -0.2556  0.1241  0.1350
25913W        W45447   9.469  12.419   2.753  0.2071  0.1392  0.0477
25914W        W45448   7.986  13.767  10.487  0.2312 -0.0552  0.0539
25915W        W45449  11.091   9.762   3.453  0.1459  0.2558 -0.0186
25916W        W45450   6.741   6.328   1.115 -0.1229  0.0844  0.2266
25917W        W45451  15.189  15.686   3.421 -0.3803  0.0783 -0.1514
25918W        W45452   3.826  13.231  11.001 -0.0711  0.0522 -0.0288
25919W        W45453   0.127  12.177  10.325 -0.0195  0.2625 -0.0637
25920W        W45454  14.838   0.711   1.810  0.1901  0.1014 -0.0823
25921W        W45455  13.789  13.879   1.881 -0.1675  0.1274 -0.2480
25922W        W45456   5.788   8.716   5.168  0.2232  0.4369  0.1897
25923W        W45457   6.709   6.834   3.375 -0.2279  0.0820 -0.1390
25924W        W45458  15.713  15.211  12.627  0.4438 -0.3241 -0.0305
25925W        W45459  13.212  14.311  12.455  0.2433  0.0597 -0.0201
25926W        W45460   6.994  14.351   1.911  0.2098  0.0198  0.0001
25927W        W45461  14.008   8.649   2.810 -0.1324 -0.1141 -0.2579
25928W        W45462  12.392  18.655   0.134  0.1643 -0.2011 -0.1027
25929W        W45463  16.932  11.828   0.102  0.0497 -0.1955 -0.0411
25930W        W45464   3.865  19.153   3.361 -0.0222  0.0483  0.1577
25931W        W45465  13.080   7.852  12.061 -0.0794  0.0166  0.0781
25932W        W45466  14.326  10.106   1.594 -0.0807 -0.0795  0.0695
25933W        W45467   7.058  16.405   4.141  0.3403 -0.3209  0.2340
25934W        W45468  15.276  14.978  12.755  0.1585 -0.1266  0.1910
25935W        W45469  14.788   8.916   2.769  0.3727 -0.0870  0.3077
25936W        W45470  11.610  18.793  12.425 -0.1227 -0.1774  0.0072
25937W        W45471  14.137  14.478   4.268 -0.1506  0.1330  0.1334
25938W        W45472   0.917   9.847  13.828 -0.2285 -0.0012  0.0416
25939W        W45473  14.913   0.144   1.966  0.4222 -0.1090  0.0626
25940W        W45474   8.968  15.273   2.590 -0.2278 -0.1806  0.1900
25941W        W45475  17.307   7.145   3.872  0.0369  0.1479 -0.0570
25942W        W45476  13.502   1.368   2.996  0.2617  0.0449  0.0497
25943W        W45477   3.356  19.274  14.131 -0.2316  0.3920 -0.1153
25944W        W45478  15.817  11.661   1.107 -0.0370  0.0905  0.1122
25945W        W45479   3.518  14.463  11.941 -0.0069  0.0904  0.2276
25946W        W45480  17.446  15.853   2.172 -0.0771  0.2257  0.0783
25947W        W45481   6.964  18.225  13.429  0.2568 -0.0476  0.2394
25948W        W45482   1.555  14.244  10.597  0.2925  0.0559 -0.0960
25949W        W45483  17.744   4.591  13.657  0.2175  0.2401 -0.0507
25950W        W45484   6.421  11.870   1.594  0.1107 -0.1527  0.2842
25951W        W45485   9.687   3.209   5.155 -0.1866 -0.1602 -0.1732
25952W        W45486   3.897   8.139   1.946  0.0243  0.0733  0.2793
25953W        W45487   2.794   5.927  13.121  0.1450  0.1659 -0.1570
25954W        W45488  10.421   6.245  13.705  0.1636  0.1612  0.2010
25955W        W45489  17.720  16.380   9.500 -0.2468 -0.0115  0.1232
25956W        W45490   5.101  14.293   3.666  0.1263 -0.1332 -0.4739
25957W        W45491   5.789  11.789   0.098 -0.0584  0.4592 -0.2180
25958W        W45492   6.583  12.981   3.772 -0.1851  0.2322 -0.2444
25959W        W45493  16.987   7.912  11.535 -0.2788  0.0141  0.1321
25960W        W45494   4.603  12.370   4.662 -0.0466  0.5454 -0.1608
25961W        W45495   8.186   3.496  12.415  0.2469  0.0953  0.0426
25962W        W45496   6.644   0.136   1.034 -0.0240  0.2423  0.1240
25963W        W45497  18.845   0.098  10.719  0.2571  0.1556 -0.1921
25964W        W45498  18.249  16.149   0.684  0.0410 -0.0519  0.0843
25965W        W45499   4.084   3.729   0.740  0.0658 -0.0292  0.2683
25966W        W45500   8.145   8.106  11.109  0.0292  0.1981  0.2403
25967W        W45501  11.091  18.580   0.459 -0.0538 -0.0846  0.2574
25968W        W45502  15.725   7.150  12.427  0.1519  0.0023  0.0485
25969W        W45503  16.839   4.006   4.056 -0.2774 -0.2840 -0.0318
25970W        W45504  12.292   0.600  11.003  0.0562 -0.2750 -0.1233
25971W        W45505  14.645   0.576   3.431  0.1334 -0.0539  0.1244
25972W        W45506  11.529  16.103  14.002  0.1651  0.3345  0.1304
25973W        W45507  15.164  11.909  12.534  0.0257  0.0262  0.0212
25974W        W45508   9.684   8.871   1.467 -0.0147 -0.1062  0.1192
25975W        W45509  16.324  11.430  10.671  0.0770  0.0338 -0.1352
25976W        W45510   1.370   2.385  13.526  0.0081 -0.0327 -0.0352
25977W        W45511   2.970  15.406  12.498 -0.3403 -0.0716 -0.1048
25978W        W45512   2.549   4.802   2.544 -0.1930  0.3536  0.1893
25979W        W45513   2.238   1.081  10.524  0.4289 -0.1168 -0.2681
25980W        W45514   7.292  12.581  12.021 -0.1314  0.0659  0.2686
25981W        W45515   6.840   7.486   0.293 -0.0697 -0.3227  0.2119
25982W        W45516   1.324   4.079  11.532  0.0106  0.0575  0.0808
25983W        W45517   2.352   5.431  14.263  0.2779  0.0098 -0.1501
25984W        W45518  13.684  13.022   1.125 -0.2497 -0.3206 -0.1502
25985W        W45519  10.032   1.878  10.155  0.0997  0.0855 -0.0205
25986W        W45520   7.601   5.364  11.150  0.0814  0.1322  0.1498
25987W        W45521   2.146  16.282  14.140  0.0601 -0.0928 -0.0403
25988W        W45522   5.000  12.288   2.704 -0.4462  0.1503 -0.2163
25989W        W45523  10.121  11.046   0.039  0.2090  0.0201  0.4780
25990W        W45524   0.762   8.983  11.935  0.0188 -0.3684 -0.3502
25991W        W45525   5.768  14.763  11.548 -0.0635 -0.3449  0.0007
25992W        W45526   3.688   3.735  12.470 -0.2338 -0.2208  0.0886
25993W        W45527  13.278  11.101  10.351 -0.3466  0.1097 -0.1867
25994W        W45528   2.435  16.866   0.159  0.3006  0.1005 -0.0882
25995W        W45529   7.363  14.323  13.403 -0.2251  0.4438  0.0729
25996W        W45530  14.687  17.072   4.338  0.0087 -0.2577 -0.1540
25997W        W45531  14.648  16.470   2.373 -0.2551  0.0556  0.0238
25998W        W45532  17.194   1.039   3.457 -0.3637  0.0473 -0.0277
25999W        W45533   6.422  13.259  11.176  0.1837 -0.1141 -0.2568
26000W        W45534  11.458  12.017  12.085 -0.1183 -0.2629 -0.2226
26001W        W45535  14.777  18.063  10.441  0.0756 -0.2040  0.1991
26002W        W45536   7.083  13.023  12.354 -0.0128 -0.0624  0.2917
26003W        W45537   1.357  16.213  14.116 -0.1335 -0.2552  0.0678
26004W        W45538   5.441   6.478  13.126 -0.1430 -0.0757  0.2525
26005W        W45539  10.763  18.138   2.534 -0.0667 -0.0421 -0.0888
26006W        W45540   2.769  12.716   3.695 -0.1084 -0.1948 -0.1113
26007W        W45541   4.682   1.449  10.836  0.0837 -0.2101 -0.0771
26008W        W45542   6.818  11.645  14.251 -0.1054 -0.2489  0.3071
26009W        W45543  15.073  10.980   9.970  0.2390 -0.0227 -0.0409
26010W        W45544   3.587   8.729  13.230 -0.1055 -0.1503 -0.0535
26011W        W45545   4.177  10.633   1.487 -0.2890  0.3591  0.1345
26012W        W45546   9.826  14.128   4.327  0.1407 -0.1580 -0.0113
26013W        W45547   6.186  10.043  13.841  0.0942 -0.1588  0.0479
26014W        W45548   5.861   1.490  12.093 -0.0634 -0.0274 -0.0140
26015W        W45549   2.146   7.250   2.397  0.0043 -0.1763 -0.0468
26016W        W45550  15.882   0.669   1.047 -0.3049  0.1438 -0.0440
26017W        W45551  15.471   2.442   0.682 -0.2051  0.1921 -0.1197
26018W        W45552  12.760   5.095   3.228 -0.2695 -0.1468  0.0388
26019W        W45553   3.718   6.029  13.212  0.0137  0.1064  0.3716
26020W        W45554   6.935   2.246  13.642  0.0364  0.1782  0.3872
26021W        W45555   3.810  16.975  12.300  0.2508  0.1593  0.0346
26022W        W45556   5.795  16.697   0.996  0.1340  0.0838  0.1449
26023W        W45557  17.401   3.793   1.618 -0.1593 -0.1848 -0.0332
26024W        W45558   2.668   8.621  11.644  0.2925 -0.2402  0.0997
26025W        W45559   4.291   4.331  14.222 -0.1115  0.1270  0.0167
26026W        W45560  17.554  19.292   0.688 -0.2287  0.1693  0.1015
26027W        W45561  16.231   7.896  13.678 -0.1208 -0.1476 -0.0837
26028W        W45562   5.811   0.232   1.808  0.3091 -0.0749  0.0053
26029W        W45563   1.200   8.764  11.689 -0.1667  0.0509 -0.2462
26030W        W45564   3.869   8.358  11.762  0.0342 -0.2381 -0.0689
26031W        W45565   2.638  16.770  10.913  0.1793 -0.1355 -0.1546
26032W        W45566   8.774   1.902   3.852 -0.3304 -0.0875 -0.0841
26033W        W45567   1.533  18.961  11.207 -0.0817 -0.0061  0.1369
26034W        W45568   7.609   8.726  11.787  0.1182  0.0470 -0.0005
26035W        W45569   2.710  19.434   9.814 -0.1526  0.1198  0.0289
26036W        W45570   6.679   7.767  11.750  0.1670 -0.2535 -0.0309
26037W        W45571  10.292   4.323  14.102  0.0037  0.1670 -0.1997
26038W        W45572   7.559   6.252   2.632 -0.0262  0.0232 -0.0438
26039W        W45573   9.628  12.955   2.771  0.0855 -0.0373 -0.2521
26040W        W45574   9.592  17.405   2.018  0.3056 -0.2055 -0.0646
26041W        W45575  13.229   5.222   5.157 -0.1189 -0.1550  0.3262
26042W        W45576   8.026  12.034  11.087 -0.1996  0.1699  0.0339
26043W        W45577  17.449  13.902  14.345  0.2078  0.0784 -0.1895
26044W        W45578  15.475  18.943  10.190  0.1749 -0.2178 -0.0294
26045W        W45579   6.306   1.098  13.003  0.1263  0.3113 -0.4043
26046W        W45580   7.118  16.162   1.562 -0.0534 -0.3463 -0.0631
26047W        W45581   3.309  16.371  12.079  0.1250 -0.0833 -0.0198
26048W        W45582   7.085   5.041   0.621  0.1678  0.0037 -0.0184
26049W        W45583   7.826  19.009  11.164 -0.2245 -0.0524 -0.2321
26050W        W45584  11.893   3.044  10.815  0.2133 -0.3514  0.2276
26051W        W45585  18.945  11.752   1.968 -0.0632  0.2308  0.0566
26052W        W45586   3.169   0.564   1.877 -0.0584  0.0478 -0.0185
26053W        W45587   2.483  13.854  14.029 -0.1855  0.1097  0.0631
26054W        W45588  10.025   4.226  12.921  0.1846  0.2377 -0.0770
26055W        W45589  14.485   9.153  14.135 -0.0822  0.3333 -0.1358
26056W        W45590  16.034   4.891   3.439 -0.3162 -0.1359 -0.0622
26057W        W45591  17.170   0.617  11.158 -0.0153  0.1732  0.4592
26058W        W45592   1.406  18.606  12.281 -0.0505 -0.1427  0.0031
26059W        W45593  11.282  13.692   0.727  0.2383  0.4064 -0.0630
26060W        W45594  14.086  11.269  11.902 -0.2367 -0.2089 -0.5756
26061W        W45595  17.016  15.564   0.398  0.2105  0.1271 -0.2580
26062W        W45596   8.624  16.177   4.044  0.0193  0.1489 -0.2793
26063W        W45597  15.173   2.596   0.051  0.2436  0.1599 -0.0071
26064W        W45598  10.364  13.644   0.618 -0.1936 -0.0068  0.0239
26065W        W45599   0.891  10.391   1.846  0.2491 -0.1239  0.1655
26066W        W45600  13.539  12.059   2.758 -0.0290 -0.1444 -0.0933
26067W        W45601  12.335  15.023  10.076  0.1744  0.0744  0.0429
26068W        W45602  19.421  15.928   0.259 -0.1238  0.0567  0.0504
26069W        W45603  10.662  14.711   1.878 -0.3308 -0.0014 -0.0122
26070W        W45604   3.668   9.436   0.514  0.1775 -0.1224 -0.4946
26071W        W45605   5.880   6.962   0.717 -0.2516 -0.0837  0.3229
26072W        W45606  18.628  13.037  13.623 -0.0303  0.1175  0.0921
26073W        W45607   9.680   7.531   0.465 -0.1058  0.3378  0.0955
26074W        W45608   6.199  18.395  12.534  0.2010 -0.1530  0.4181
26075W        W45609  10.662   6.501   3.696  0.1226  0.0574  0.0040
26076W        W45610   9.745   1.972  13.385  0.3170 -0.0207  0.0099
26077W        W45611   9.283   8.405   2.503 -0.0135 -0.3636  0.2542
26078W        W45612   2.618   0.147  11.622  0.2629 -0.1427  0.0432
26079W        W45613  14.931   4.743   4.151  0.1979  0.2166  0.0286
26080W        W45614   0.291   8.187  13.680 -0.1202 -0.0925  0.1644
26081W        W45615  10.542  16.635  12.567  0.0595  0.1323 -0.2135
26082W        W45616  10.576  12.594  11.042  0.2369 -0.3771 -0.2229
26083W        W45617  16.894  16.319  11.477 -0.2974  0.0359  0.0930
26084W        W45618   6.503  17.541  13.871 -0.0653  0.0255  0.2482
26085W        W45619  17.197   4.487  12.502  0.0121  0.1366  0.2241
26086W        W45620  17.579   1.380  10.537 -0.2448  0.2250  0.1306
26087W        W45621  11.404   4.736   1.423 -0.1695  0.1378 -0.4903
26088W        W45622  15.977   9.746  12.767  0.0919 -0.0652  0.3689
26089W        W45623   7.279   2.703   1.121 -0.0397 -0.3676 -0.3702
26090W        W45624   8.047   7.973   1.108 -0.3513  0.1111  0.3049
26091W        W45625   0.279   9.658   4.430 -0.3005  0.0565 -0.1105
26092W        W45626  13.377   5.424   1.500 -0.1593 -0.3692 -0.0600
26093W        W45627  11.936   6.407   3.474  0.0460  0.3554  0.0976
26094W        W45628  10.510   0.715   1.131 -0.1520 -0.1589 -0.0842
26095W        W45629   7.920  18.346  14.356  0.1801  0.0019  0.0128
26096W        W45630   7.140  12.040   3.862  0.1102  0.0026  0.1429
26097W        W45631  17.276   2.437  14.183  0.1530 -0.0515  0.0159
26098W        W45632  14.336  13.284  14.061  0.0114  0.1096 -0.0928
26099W        W45633  10.741   1.636  13.199  0.0863 -0.1479 -0.1608
26100W        W45634  18.676   8.895   3.515 -0.1012  0.0144 -0.1514
26101W        W45635   4.815   6.875  10.845  0.0247 -0.0164  0.0601
26102W        W45636   5.520   0.660   2.410 -0.1043  0.0455 -0.3483
26103W        W45637  13.348   9.889   2.654  0.0328 -0.1949 -0.0489
26104W        W45638  19.150   1.648  10.679  0.2191 -0.0383  0.1394
26105W        W45639  14.250   0.662   9.635  0.1881  0.1381  0.1444
26106W        W45640   4.774   0.955  10.943 -0.1264  0.1274 -0.0537
26107W        W45641  16.702   5.885  12.647  0.1933 -0.1316 -0.0717
26108W        W45642  10.074  13.991   0.873 -0.2381  0.0557 -0.2807
26109W        W45643  11.417   6.917   0.638  0.0053  0.2228  0.0765
26110W        W45644  18.369   4.104  13.913 -0.0400  0.1334  0.3342
26111W        W45645  15.093  19.009  13.622  0.2222  0.1096 -0.3742
26112W        W45646  14.725   0.204   1.511  0.3567 -0.0844 -0.1187
26113W        W45647  16.441   9.829   0.309  0.0076  0.1420  0.4207
26114W        W45648   8.652  19.250   3.033  0.2919 -0.0361  0.1868
26115W        W45649   6.652  12.351   1.930  0.1879  0.1407  0.0900
26116W        W45650   8.750  18.553  11.193  0.0204  0.3137  0.3890
26117W        W45651  10.483   4.659  11.531 -0.2039  0.3557  0.1876
26118W        W45652   3.898   3.393   0.374  0.0149 -0.1147  0.0119
26119W        W45653   5.748   8.386  13.875 -0.0279 -0.1337 -0.1987
26120W        W45654  10.496  18.479  10.982 -0.1029 -0.2268 -0.4833
26121W        W45655  18.980   7.381  14.120 -0.2116  0.1559 -0.0555
26122W        W45656  18.580  14.956   2.424  0.0863  0.1924 -0.1970
26123W        W45657   0.268  13.540   4.528  0.0541  0.0714  0.1023
26124W        W45658   2.888  13.573  12.719 -0.3347 -0.0062 -0.0791
26125W        W45659   0.248   8.590  11.422  0.0771 -0.0443  0.1264
26126W        W45660   1.045  15.354  13.744 -0.2292  0.4703  0.0932
26127W        W45661   9.352   0.442   0.733 -0.0203 -0.0386 -0.0679
26128W        W45662   9.758   3.183  10.153  0.0094  0.1355 -0.1342
26129W        W45663   8.538   0.374  13.746  0.2437 -0.1772  0.3623
26130W        W45664   6.588  14.719   2.543 -0.0521  0.1782 -0.2446
26131W        W45665   6.963   2.234   2.665 -0.2382 -0.0106 -0.2673
26132W        W45666   9.186  18.495   0.833 -0.0630  0.0786 -0.1993
26133W        W45667   3.722   0.425  10.281 -0.0130 -0.1053  0.1791
26134W        W45668  13.991  16.397  14.047 -0.2258  0.2965 -0.0409
26135W        W45669   1.802   8.002   0.260  0.4652 -0.2206  0.0383
26136W        W45670  14.173  11.983  12.612  0.0956 -0.2300 -0.3555
26137W        W45671  18.437   4.534   3.414  0.2850 -0.1341  0.2635
26138W        W45672  13.320  16.706   0.126 -0.0753  0.1612  0.1158
26139W        W45673  17.146   6.547   2.195 -0.0771 -0.3194  0.4716
26140W        W45674  13.436   0.082   3.517 -0.0457 -0.3896 -0.1169
26141W        W45675  15.629   6.463   0.932  0.0014 -0.1662  0.1116
26142W        W45676   6.686  17.037  11.803  0.0357 -0.0198 -0.3288
26143W        W45677   3.151   8.547   0.126 -0.0735 -0.0271  0.1155
26144W        W45678  17.551   2.379  11.733 -0.1428 -0.0653 -0.0658
26145W        W45679   4.315  11.722   1.173  0.2741 -0.0445  0.0051
26146W        W45680   7.639   3.025   0.267 -0.1551  0.1302  0.0681
26147W        W45681   7.988  17.026   3.913  0.3937 -0.1333 -0.1625
26148W        W45682  15.202  18.305  10.505  0.0265  0.0483 -0.2589
26149W        W45683   3.649  15.386   2.594 -0.3242  0.1947 -0.2213
26150W        W45684  18.295  16.625   1.484 -0.1580 -0.0035 -0.1528
26151W        W45685   0.207  17.107   2.149  0.0684  0.2285 -0.1150
26152W        W45686   7.137  11.319  11.606 -0.1700 -0.1822 -0.2830
26153W        W45687   0.319   0.652  10.795  0.1426 -0.2409  0.1586
26154W        W45688   3.911  17.627   0.732 -0.1781 -0.2330 -0.2769
26155W        W45689   7.304   3.677   0.906 -0.4273 -0.0402 -0.2505
26156W        W45690   4.952  12.279   1.861  0.2193 -0.1126 -0.0938
26157W        W45691  10.133   5.763   3.049  0.3457 -0.0874  0.0087
26158W        W45692  12.116   8.258  14.324 -0.4841  0.2009  0.1459
26159W        W45693  15.100  10.623   0.613  0.1178  0.2720 -0.0757
26160W        W45694  16.411   5.474   0.235 -0.0363  0.2657  0.0378
26161W        W45695  15.292   8.866  13.523  0.0333  0.4508  0.0303
26162W        W45696   7.361   9.962  11.207 -0.1549  0.0170  0.2326
26163W        W45697   3.252  17.772   1.099 -0.1462  0.2809  0.0700
26164W        W45698   4.066  13.818  13.553 -0.3714 -0.0367 -0.1667
26165W        W45699  16.070  12.429   3.814  0.0327  0.2214  0.1215
26166W        W45700   9.843  10.900   0.910 -0.2171  0.1860  0.1217
26167W        W45701   4.657  16.192   3.020  0.2426  0.1345  0.2300
26168W        W45702  13.571   9.846  10.450 -0.0895 -0.1500  0.0139
26169W        W45703   8.331   9.515   2.709 -0.1098  0.2002 -0.1074
26170W        W45704   7.170  10.268   1.681  0.3821  0.1723  0.0360
26171W        W45705   8.355   6.290   0.594 -0.0296 -0.0523 -0.1863
26172W        W45706   8.286   7.494   1.024 -0.1971  0.2038 -0.0190
26173W        W45707   3.016   6.630   1.847  0.0142 -0.1183 -0.0847
26174W        W45708  13.502   3.324  11.886 -0.0670  0.0176  0.0062
26175W        W45709  13.034   3.199  12.032  0.0613 -0.0040  0.0140
26176W        W45710  14.058   2.182   1.315  0.2673  0.0548 -0.1005
26177W        W45711  15.531   0.907  11.711  0.0993  0.3895  0.0981
26178W        W45712  15.302  17.047  13.991 -0.0309  0.3139  0.0447
26179W        W45713  13.037  14.168  10.779 -0.1795  0.1232 -0.0057
26180W        W45714   1.736   6.825   3.063 -0.2256 -0.2544  0.0616
26181W        W45715   3.921   4.693  10.406  0.2357  0.2246  0.1363
26182W        W45716  16.882   5.613   2.097 -0.3238 -0.2759  0.3402
26183W        W45717  13.319  12.326  13.310 -0.0208 -0.2141  0.0357
26184W        W45718  13.074  10.687   0.138 -0.0351 -0.0197 -0.1905
26185W        W45719  16.168   5.942   9.990  0.2150  0.0907 -0.1875
26186W        W45720  18.005   4.017  13.006  0.1371 -0.0538  0.1008
26187W        W45721   9.603  12.776  14.281 -0.1859  0.0198  0.0592
26188W        W45722   8.865  15.575  11.444  0.0213 -0.3188 -0.1384
26189W        W45723   3.488  16.961  11.186 -0.3977  0.3775  0.0125
26190W        W45724   5.650   1.872  11.776 -0.0649  0.0960  0.0401
26191W        W45725  13.976   7.292   1.426  0.2803  0.1369 -0.0168
26192W        W45726  16.788   9.746  11.074 -0.1827  0.1199 -0.0828
26193W        W45727  19.400   9.042   1.523  0.0386  0.1828  0.0713
26194W        W45728  12.807  11.096   0.422 -0.1166  0.0974  0.2027
26195W        W45729  18.095  15.496  13.893 -0.1436 -0.1113  0.2181
26196W        W45730   9.753   8.658   2.368  0.1933  0.1970  0.0043
26197W        W45731   3.652  13.639   2.097 -0.1777 -0.0659  0.1936
26198W        W45732  16.339   2.330  12.718 -0.2046 -0.2055 -0.2233
26199W        W45733   8.861   6.010  13.520 -0.0235 -0.2107  0.1829
26200W        W45734  12.277   2.653   0.792  0.2485 -0.1230  0.2260
26201W        W45735  17.917   8.471  13.408  0.2455  0.0575 -0.0659
26202W        W45736  12.005   9.232   0.464  0.0622 -0.2647  0.1691
26203W        W45737   3.998   0.268  12.781  0.0271 -0.3458  0.2102
26204W        W45738   0.478   8.931  12.482 -0.3107  0.2604 -0.3401
26205W        W45739  16.582   4.022   0.989  0.0017 -0.1495  0.2395
26206W        W45740  15.317  17.091  12.572 -0.0590  0.0496 -0.2676
26207W        W45741   5.228  12.267  11.902 -0.3480 -0.0266  0.0174
26208W        W45742   8.667  14.418   2.062 -0.1903  0.0638  0.2971
26209W        W45743  13.582  12.059   3.961 -0.0340  0.0867  0.0993
26210W        W45744   2.949  16.629   0.388 -0.3297  0.0625 -0.2129
26211W        W45745   3.623  18.976  11.394  0.0027 -0.1081  0.0549
26212W        W45746   4.803  13.331   0.136  0.1423 -0.1176  0.2870
26213W        W45747  10.598  15.496   3.767 -0.0090  0.2608  0.2350
26214W        W45748   1.102   3.716   2.995 -0.2499 -0.0554 -0.0382
26215W        W45749  19.339  12.695  11.508 -0.0077  0.2068 -0.3213
26216W        W45750  10.367  15.461   0.090  0.1583  0.1501 -0.0942
26217W        W45751   0.019   6.567  12.343  0.1505 -0.2111 -0.0470
26218W        W45752   0.650  12.592  12.663  0.0645  0.0410 -0.1372
26219W        W45753  17.808  12.231   0.709 -0.1364  0.0927  0.1025
26220W        W45754   3.193  13.171   4.524  0.1091 -0.1237 -0.3312
26221W        W45755  17.607   8.215  13.762  0.0276 -0.1191  0.0023
26222W        W45756   5.611  14.161  12.695  0.0158 -0.0175 -0.3959
26223W        W45757   2.124   7.314  13.504  0.0844  0.1402  0.0307
26224W        W45758   9.407  10.254   2.644 -0.0668 -0.0782 -0.4023
26225W        W45759  13.638  15.673  11.813  0.0982  0.1944 -0.0174
26226W        W45760   2.171   7.638  13.897  0.1721  0.0494  0.1889
26227W        W45761   3.278   8.328   3.280  0.0926 -0.2044  0.0913
26228W        W45762  15.234  16.590   2.453  0.0639 -0.0604 -0.1251
26229W        W45763   5.545   4.996  13.512  0.2415 -0.1495  0.0579
26230W        W45764   0.828  11.319  11.801 -0.0106  0.0931 -0.2969
26231W        W45765   0.358   2.910   2.663  0.0791  0.0584 -0.1589
26232W        W45766   2.396   7.253  14.360 -0.1802  0.0228  0.0887
26233W        W45767   2.516   0.322  12.707  0.2136  0.2589 -0.1933
26234W        W45768  12.944  17.805   3.777  0.2160  0.2726 -0.0632
26235W        W45769  10.667   3.635  13.750  0.0833  0.0477  0.0804
26236W        W45770   0.659  16.396   3.662 -0.1788  0.0899  0.3168
26237W        W45771   5.945  13.556   9.821  0.1214  0.0874  0.2798
26238W        W45772   6.976   6.891   4.024 -0.0270 -0.0668 -0.0365
26239W        W45773   3.339  12.987   3.765 -0.1193 -0.0555  0.0783
26240W        W45774  18.340  11.178   1.611 -0.0216  0.1086 -0.3458
26241W        W45775   8.633  16.927   0.827  0.1037  0.0147  0.0107
26242W        W45776  17.504   7.761   1.758 -0.5106  0.2823  0.0476
26243W        W45777   4.739  15.394  10.526 -0.0721 -0.4427  0.1464
26244W        W45778   9.519  12.508   3.513 -0.0846  0.1568 -0.0529
26245W        W45779  11.845  12.134   3.058  0.2250  0.1177 -0.2090
26246W        W45780   8.457  14.953   0.961 -0.0051 -0.1427  0.2500
26247W        W45781  11.037   3.125   4.677  0.1272 -0.0234 -0.2405
26248W        W45782  15.079  18.419   4.609 -0.1067 -0.2021  0.1164
26249W        W45783  11.068  11.960   2.511 -0.1764  0.3127 -0.2797
26250W        W45784  18.617   2.996   2.613 -0.1708 -0.0208  0.1294
26251W        W45785   7.228   0.170  12.613 -0.3828  0.0396 -0.1038
26252W        W45786   4.855   9.267   1.017  0.0943 -0.4898  0.0403
26253W        W45787   4.939  17.692  13.037  0.1978  0.0229 -0.0856
26254W        W45788   2.893   3.083  11.890  0.2192 -0.1848  0.4338
26255W        W45789  17.759   0.988   0.563  0.3124 -0.1070 -0.0766
26256W        W45790   5.456   1.915  13.934  0.1205 -0.1740 -0.2718
26257W        W45791   3.008   4.091  10.139 -0.1053  0.0170  0.0037
26258W        W45792  13.793  19.277   3.340 -0.1864  0.3061 -0.1029
26259W        W45793  12.688   9.335  11.716 -0.2770 -0.0211  0.2957
26260W        W45794  12.630   9.231   4.053  0.0056  0.1225 -0.1073
26261W        W45795  10.872  11.856   0.478 -0.0608 -0.0522  0.0897
26262W        W45796   1.626   8.929   3.586 -0.0609  0.2194  0.0633
26263W        W45797   7.872  13.212   3.576 -0.1424 -0.1136 -0.2507
26264W        W45798  14.043  17.652  11.570 -0.0499  0.0248  0.2152
26265W        W45799   4.083  15.679   2.592  0.2377 -0.0622 -0.2768
26266W        W45800   0.947  15.041   0.926  0.0702  0.0599  0.0650
26267W        W45801  10.573   5.479  12.664 -0.1937 -0.1388  0.0742
26268W        W45802   1.430  13.428   0.711 -0.0486 -0.2351  0.1739
26269W        W45803   5.693   8.260   4.981  0.2023  0.0946 -0.4162
26270W        W45804   0.529   3.336   9.993 -0.0078  0.2625 -0.0020
26271W        W45805  17.126   7.081   2.276 -0.2544  0.0695  0.2677
26272W        W45806   4.141   0.240  10.541 -0.1732  0.1872  0.1854
26273W        W45807   3.348   4.638   0.036  0.2706  0.0094  0.1409
26274W        W45808  10.984   1.908  12.609 -0.1780 -0.3612  0.2297
26275W        W45809   8.496  16.651   3.841 -0.0641  0.6077 -0.4040
26276W        W45810   9.820   9.639  11.380 -0.2168 -0.0019 -0.0637
26277W        W45811   3.483   3.703   0.639 -0.1629  0.2840 -0.0920
26278W        W45812   0.107   8.402   3.219 -0.0151  0.1925 -0.1359
26279W        W45813   8.136  17.538   1.561  0.0816 -0.0368 -0.1179
26280W        W45814  15.194  12.488  10.552  0.0832  0.3655  0.3644
26281W        W45815  11.992  16.834   0.171  0.0695 -0.1740  0.1080
26282W        W45816   7.065  17.811  12.109 -0.2041  0.1341  0.0072
26283W        W45817   1.048  17.365  12.561  0.0155 -0.2292  0.0023
26284W        W45818  11.260  17.958  14.061 -0.0570  0.2561 -0.0689
26285W        W45819  17.676  10.309   3.432  0.1112 -0.3942 -0.3245
26286W        W45820   3.961   4.506   3.507 -0.1602 -0.0630  0.0135
26287W        W45821   3.790   4.628   2.129  0.0223 -0.1188 -0.0468
26288W        W45822  13.872  12.260  10.342 -0.1909  0.0318 -0.4221
26289W        W45823   2.897  12.226   3.575 -0.0194  0.0515  0.0432
26290W        W45824   6.233  11.457   1.494  0.2365  0.1526  0.0838
26291W        W45825  12.383  15.245   0.775 -0.2529  0.0492 -0.1312
26292W        W45826   1.634   2.567   2.287  0.0327 -0.2875 -0.0283
26293W        W45827  18.697  15.319  12.364  0.3675  0.0387  0.3455
26294W        W45828   7.703   3.313   2.397  0.1338  0.0518 -0.1213
26295W        W45829  16.180  10.448   3.898 -0.1032 -0.1106 -0.3798
26296W        W45830  14.662   4.632   2.867  0.1612  0.3168  0.0450
26297W        W45831   5.140   5.284   0.188 -0.0051  0.0474  0.1688
26298W        W45832   2.250  12.794  12.963 -0.1475  0.1099  0.3017
26299W        W45833   9.953   7.286   1.459 -0.1423 -0.0851 -0.0877
26300W        W45834   3.152   8.847  11.728 -0.0007  0.0243 -0.2456
26301W        W45835  15.393  16.053  12.026  0.0403 -0.3219  0.0620
26302W        W45836  13.126   6.740   1.090 -0.2686 -0.0772  0.0722
26303W        W45837   6.533   5.932  13.802 -0.1090  0.2345 -0.0785
26304W        W45838  16.664   8.202   3.858 -0.0697  0.1483  0.0795
26305W        W45839   1.281  15.199  11.671 -0.1494 -0.1420  0.1780
26306W        W45840  17.664   2.197  12.346  0.0505 -0.0728 -0.5265
26307W        W45841  17.645   3.029   2.654  0.1936  0.2597  0.2544
26308W        W45842   4.674   4.173   2.379  0.0029 -0.0534  0.0070
26309W        W45843  12.971  10.572   4.859 -0.0598  0.0128 -0.2257
26310W        W45844   1.400   5.387   1.269  0.2199  0.1960  0.2692
26311W        W45845   5.764   1.789   0.713  0.0946  0.3548 -0.0642
26312W        W45846  18.055  13.484   0.388  0.1538  0.0956 -0.0489
26313W        W45847  10.884  16.825   3.477  0.1322 -0.0665  0.0049
26314W        W45848  12.493   8.165  13.388  0.0582  0.1466  0.0735
26315W        W45849   9.181   5.156   1.718  0.1156  0.0484  0.0818
26316W        W45850   0.837   1.104  10.405  0.0041 -0.0303 -0.3157
26317W        W45851  16.187   5.584  11.751  0.2707 -0.1511  0.3205
26318W        W45852   9.440   9.838   4.935 -0.3378 -0.0674 -0.2607
26319W        W45853   3.619  11.942  11.880  0.0916  0.0689  0.1125
26320W        W45854  13.302  13.101  12.079  0.2452  0.1054 -0.2056
26321W        W45855  11.458  14.452  11.638  0.0631 -0.0733 -0.2736
26322W        W45856  14.734  17.871  12.031 -0.1082 -0.1613 -0.2173
26323W        W45857  17.926   5.827  11.899 -0.5366 -0.0572 -0.0234
26324W        W45858  18.396  15.692   3.547  0.0447  0.2000  0.4990
26325W        W45859  12.084   8.547  13.755  0.0409 -0.0674 -0.2844
26326W        W45860  14.458  13.642  13.032 -0.1866  0.0768 -0.1341
26327W        W45861  18.767  15.350   2.753 -0.1070 -0.0622  0.0936
26328W        W45862   4.598   8.191   3.923  0.3772 -0.0801 -0.0546
26329W        W45863   8.539  17.416  13.147 -0.5391  0.0030  0.4369
26330W        W45864   5.295  19.127  12.574  0.1572  0.0208 -0.2336
26331W        W45865  13.636  15.317  10.334 -0.1451 -0.3302  0.0425
26332W        W45866  19.181   6.597  13.257  0.1957  0.0439 -0.1305
26333W        W45867   9.611   6.084  10.902  0.1838  0.0116 -0.0637
26334W        W45868  15.467   0.302  12.609  0.3401 -0.1265  0.3547
26335W        W45869   6.312   6.202  14.181  0.0146 -0.0501  0.0581
26336W        W45870  15.663   0.759   3.680 -0.1842  0.0786  0.0615
26337W        W45871   8.761   4.503  12.639  0.0420 -0.1664 -0.0812
26338W        W45872  15.613  16.522  12.265  0.1694  0.0268  0.1589
26339W        W45873  12.933   7.475   3.774 -0.3489  0.1751  0.1769
26340W        W45874  18.644   2.408   1.926  0.2801 -0.0710 -0.3682
26341W        W45875  15.475   1.577  11.097  0.1445  0.2473 -0.1119
26342W        W45876  12.516  12.558  11.133  0.0551 -0.3733  0.0608
26343W        W45877   2.455  17.712   2.277  0.0119 -0.0116  0.1492
26344W        W45878   9.644   8.901  13.159  0.0317 -0.4548 -0.2827
26345W        W45879  16.677   8.714  11.329  0.3592 -0.1332  0.2195
26346W        W45880   6.052   7.928  14.355 -0.1157 -0.3693  0.0547
26347W        W45881   1.208   6.365  13.621 -0.2252 -0.0004  0.1686
26348W        W45882   7.669   3.393  13.483  0.0151  0.0734  0.0060
26349W        W45883   3.873  18.622   3.474 -0.0473 -0.1369  0.1237
26350W        W45884  18.327  18.952   1.431  0.1912 -0.4311  0.0885
26351W        W45885   1.162   5.781  11.132  0.1860 -0.0793  0.2768
26352W        W45886  13.109  17.858   2.821 -0.2805  0.0452 -0.3943
26353W        W45887   8.777  10.479  12.403 -0.1765  0.1132 -0.3490
26354W        W45888  12.442   6.988  13.759 -0.0078  0.3909 -0.1607
26355W        W45889   4.133  15.042   4.142  0.0526 -0.3147  0.2213
26356W        W45890  14.274  16.571  10.629  0.1662 -0.1442  0.1527
26357W        W45891  14.007  15.342   1.143  0.1051  0.0206  0.0608
26358W        W45892  12.651   5.636   2.715  0.0001 -0.1319 -0.2193
26359W        W45893   8.208   2.141   2.686  0.0682  0.4745 -0.3112
26360W        W45894  13.585  15.236  12.071 -0.0760  0.2410 -0.0394
26361W        W45895   5.308  12.763   2.674 -0.1412 -0.0199 -0.1612
26362W        W45896  11.004   5.295  10.766  0.1011 -0.0854  0.1832
26363W        W45897   6.981   9.422  13.970 -0.0066 -0.1190  0.3361
26364W        W45898   1.360  10.734   0.705  0.2065 -0.1671  0.2772
26365W        W45899  10.716   6.162  11.137 -0.1498 -0.0343  0.3857
26366W        W45900  15.560  16.079   0.378 -0.1532 -0.2579 -0.0508
26367W        W45901  17.319  19.175   9.922  0.1112  0.4401 -0.0160
26368W        W45902  13.793  19.432   1.656 -0.2088  0.1957 -0.3178
26369W        W45903   7.755  15.459  11.828  0.2295 -0.1896 -0.2893
26370W        W45904   3.698   1.391   0.154 -0.0530 -0.2045 -0.0286
26371W        W45905   7.419  11.592   0.379 -0.3670 -0.0167 -0.1626
26372W        W45906   4.947  13.591  12.418  0.0422  0.1354  0.3641
26373W        W45907   3.044  17.807  13.355  0.0632 -0.0254  0.0100
26374W        W45908  16.904  15.098  10.391  0.3283  0.3591 -0.0227
26375W        W45909  14.916   2.207  14.258 -0.0983 -0.0871  0.1468
26376W        W45910  10.859  19.247   0.032 -0.1820  0.2427  0.1057
26377W        W45911   6.186  15.959  11.077 -0.0295  0.1215 -0.1185
26378W        W45912  10.576  15.484  11.305 -0.0433  0.0223 -0.2100
26379W        W45913   9.725   6.525  12.201 -0.1540 -0.1597 -0.1157
26380W        W45914   6.748  13.016   2.135 -0.2496 -0.2570 -0.1204
26381W        W45915   2.411   1.175  13.624 -0.0879 -0.1038 -0.1053
26382W        W45916   2.092   7.706  14.370  0.2276 -0.1575  0.0253
26383W        W45917  12.195   4.579  11.277  0.0851 -0.1833  0.1645
26384W        W45918   1.643   4.234   2.835  0.1225 -0.1663 -0.1166
26385W        W45919  12.105  14.511  11.733 -0.1159 -0.0075  0.1711
26386W        W45920   0.813   0.011   0.715 -0.0212  0.1250  0.0855
26387W        W45921   5.565  14.989   2.314 -0.1863  0.0406 -0.1906
26388W        W45922   6.902   3.534  10.968  0.0119  0.0712 -0.0620
26389W        W45923  17.832   2.336  14.104  0.3425 -0.1104 -0.1618
26390W        W45924   2.943   9.223   1.438 -0.1775 -0.0121  0.1430
26391W        W45925   2.277   7.012  12.073  0.0208 -0.3249 -0.0112
26392W        W45926   9.600  11.825  11.755  0.0928 -0.0753 -0.1820
26393W        W45927  17.240   1.132  12.191  0.0086  0.2156 -0.0073
26394W        W45928   4.497  15.254   4.955  0.1693 -0.4081  0.1719
26395W        W45929   8.009   0.306   3.045 -0.0081  0.2236 -0.0464
26396W        W45930  11.136   9.138   0.870 -0.0153  0.0064  0.0736
26397W        W45931   2.759  15.170   0.357 -0.1280 -0.3332  0.1296
26398W        W45932   5.745  18.991   0.115  0.4767 -0.2973 -0.2024
26399W        W45933   0.059   6.985   1.280 -0.3633 -0.0445  0.0842
26400W        W45934   3.269  18.876  12.394  0.1644 -0.2295 -0.1416
26401W        W45935  10.019  10.328   1.041  0.1300  0.3309 -0.3361
26402W        W45936   7.412   7.542   0.681 -0.0343 -0.2752  0.1506
26403W        W45937   2.243   1.073   2.629 -0.2201  0.0328  0.0081
26404W        W45938   2.632  17.696   0.446 -0.1690 -0.1086  0.1692
26405W        W45939   4.189   0.956  13.077  0.0470  0.1557  0.1267
26406W        W45940  13.597  16.667  10.083 -0.1218  0.0963  0.1550
26407W        W45941  11.055  12.604  10.093 -0.3870 -0.1575  0.0398
26408W        W45942  15.657   7.477   2.552  0.2549 -0.2562  0.7026
26409W        W45943   5.126   3.630   9.583  0.1533  0.2542 -0.2305
26410W        W45944  18.103   8.913  13.250  0.4273  0.3547  0.0178
26411W        W45945  16.896  12.729   2.024 -0.2005  0.1109  0.0760
26412W        W45946  13.692  17.298  11.421 -0.0297 -0.0482 -0.0756
26413W        W45947  15.940   7.059   1.244 -0.1155 -0.3142  0.1331
26414W        W45948  10.772  12.765   2.143  0.0008  0.1961  0.1354
26415W        W45949  17.989  12.386  10.513  0.2430 -0.1728  0.3754
26416W        W45950   4.035   4.228  13.751 -0.0996 -0.3203 -0.0484
26417W        W45951   5.981   9.647   1.843 -0.0134  0.4479  0.0520
26418W        W45952   3.069  10.263  10.953 -0.0991  0.0268 -0.3307
26419W        W45953   3.714  13.042   0.542 -0.0624 -0.0115  0.1830
26420W        W45954   6.400  13.823  14.109  0.0417 -0.0785  0.0848
26421W        W45955  17.788  12.987   1.972 -0.0900 -0.1278  0.2129
26422W        W45956  18.285  14.474   3.990 -0.0308 -0.4147  0.1068
26423W        W45957   8.546  19.333   0.782 -0.0575  0.0106 -0.0764
26424W        W45958   7.928  13.970  11.294 -0.0299 -0.0793 -0.0723
26425W        W45959  18.138   5.073   1.633  0.2877  0.1826  0.0344
26426W        W45960  13.610  16.028   0.828  0.4974  0.1402 -0.0302
26427W        W45961  10.692   9.609  13.802 -0.2239  0.0105 -0.0479
26428W        W45962  14.938   6.357   3.257 -0.0852  0.0535  0.1145
26429W        W45963  18.312  10.894  10.450  0.0860  0.0262  0.1068
26430W        W45964   3.662   4.604   1.667 -0.3051 -0.0730 -0.2262
26431W        W45965  11.639  18.857  11.122 -0.3323  0.2904 -0.0753
26432W        W45966  15.031  13.711  12.073 -0.3894  0.0013 -0.1741
26433W        W45967  18.092  16.800  12.919  0.4102  0.2308 -0.2359
26434W        W45968   7.239  13.528   3.208 -0.0526  0.0273  0.1177
26435W        W45969  15.455  18.030  10.055  0.0566 -0.1591  0.1525
26436W        W45970   0.829   5.852   0.621 -0.0045  0.1620  0.1680
26437W        W45971  18.095  17.722  13.731 -0.3624 -0.0123  0.0127
26438W        W45972  11.030  12.020  11.727 -0.2828 -0.1682  0.0879
26439W        W45973  18.614  17.251  12.608  0.0572 -0.0258  0.2465
26440W        W45974  17.554  15.542  12.447  0.0296 -0.1069  0.1351
26441W        W45975   7.281  18.193   1.073 -0.1221 -0.0331  0.0242
26442W        W45976  13.794   7.864  10.228  0.2307 -0.1755  0.0342
26443W        W45977   3.960   9.404  10.084 -0.0834  0.0662 -0.0116
26444W        W45978   7.708  14.947  13.432  0.0105  0.4069 -0.3491
26445W        W45979   9.403   5.723   1.690  0.0212  0.1951  0.1849
26446W        W45980   4.526  18.308  12.684  0.0467  0.3787  0.1245
26447W        W45981   7.773  18.993   3.431  0.1438  0.1126  0.2361
26448W        W45982   0.595  19.321   4.815 -0.3919 -0.2441  0.1597
26449W        W45983   3.219   8.550  10.737 -0.1745 -0.0583  0.1635
26450W        W45984   1.436   6.353   1.166 -0.0881 -0.1938 -0.1339
26451W        W45985  12.237  19.513  14.186 -0.2166  0.2111 -0.1860
26452W        W45986  19.410   8.702   2.097  0.2022 -0.0890 -0.1359
26453W        W45987  15.550   5.518  11.640 -0.0834  0.0455 -0.1730
26454W        W45988  13.097  16.066   1.548 -0.1994 -0.1415  0.0310
26455W        W45989   8.906   8.104   1.211  0.0580  0.2269  0.2125
26456W        W45990   5.228   1.782   2.552  0.1440  0.0055 -0.2204
26457W        W45991   0.679  17.218   2.162  0.2320 -0.0493 -0.1955
26458W        W45992   6.491  12.974   1.169 -0.1235 -0.0671 -0.0548
26459W        W45993   3.097   2.626  10.154 -0.2680 -0.0458  0.3476
26460W        W45994   3.708   8.430   1.476 -0.1440 -0.2485 -0.0491
26461W        W45995   5.219   8.377  13.118 -0.2710 -0.1683 -0.1587
26462W        W45996   1.592   8.297  14.207 -0.1151  0.0833 -0.2244
26463W        W45997  12.622   4.500   0.986  0.4793  0.1806 -0.0133
26464W        W45998   5.561  19.151  13.161 -0.3250 -0.1260 -0.2886
26465W        W45999   0.347   6.847   5.174 -0.3384 -0.0786  0.0378
26466W        W46000  12.396   1.424  10.416 -0.0346 -0.0400  0.2850
26467W        W46001  14.133   5.743   3.011 -0.0071 -0.0350  0.2693
26468W        W46002  19.413  10.430   4.276  0.1919  0.2087 -0.0908
26469W        W46003   4.730  14.374   2.492  0.0922 -0.2572 -0.1674
26470W        W46004  15.009  12.360  12.429 -0.2700 -0.3122 -0.0890
26471W        W46005   4.237   8.584   2.848 -0.1081  0.0095  0.1244
26472W        W46006  18.970  10.733  13.025 -0.0300  0.0876 -0.0645
26473W        W46007  11.671  11.188  12.060 -0.1002  0.4290 -0.0726
26474W        W46008   7.856   7.068   1.933 -0.1625 -0.2225  0.2000
26475W        W46009   2.694  16.236   1.190  0.1690 -0.0293 -0.0417
26476W        W46010   5.927  12.134  13.393 -0.2870 -0.0486 -0.0161
26477W        W46011   8.199  17.691   2.083 -0.0379  0.2035  0.1037
26478W        W46012  15.734  17.208   1.041  0.0584  0.2072  0.1466
26479W        W46013  17.995   7.186  11.458  0.2792 -0.2093 -0.2247
26480W        W46014  12.272  14.242   2.911 -0.1228 -0.1104 -0.0223
26481W        W46015   8.947  13.628   1.334  0.2373  0.1479 -0.1784
26482W        W46016   5.041  11.481  13.223 -0.1272 -0.2760 -0.1146
26483W        W46017  11.318   1.406   1.311  0.1027 -0.1078  0.1659
26484W        W46018   8.227   6.571   3.161 -0.0841  0.1160  0.0108
26485W        W46019   1.650   5.877   3.966 -0.1570 -0.2668 -0.3972
26486W        W46020  18.584   4.712   1.951  0.1556  0.1240  0.2924
26487W        W46021   9.519  10.987  11.551 -0.0756 -0.2967  0.2144
26488W        W46022   9.784  11.801   4.345  0.2279 -0.0171  0.0276
26489W        W46023  16.856   4.099  14.289 -0.2353 -0.0568 -0.1343
26490W        W46024  16.354   0.753   1.528  0.3115  0.1509  0.0891
26491W        W46025   1.514   0.875  13.204  0.0643 -0.0907 -0.4111
26492W        W46026   2.811   7.750   1.362 -0.0999 -0.1860 -0.1626
26493W        W46027   5.741   6.409   1.548  0.1795 -0.1039 -0.1106
26494W        W46028  13.940   8.949   4.175  0.1372 -0.1233  0.1187
26495W        W46029  19.158   1.652  13.620  0.3114  0.1263  0.0258
26496W        W46030   3.255  17.139  13.818 -0.0509 -0.0353  0.2717
26497W        W46031   7.486   0.254   3.296 -0.0901 -0.1110 -0.0865
26498W        W46032   8.755   5.316  12.273  0.1929 -0.0058  0.3015
26499W        W46033  15.098  15.193   3.538 -0.1275  0.0926 -0.0346
26500W        W46034   2.860  16.728   1.228 -0.0260 -0.2642 -0.0899
26501W        W46035  14.160  15.225   3.726  0.0414  0.1486  0.3978
26502W        W46036  18.113   2.958   2.700  0.1090  0.1579  0.4172
26503W        W46037   7.348   5.860  13.691 -0.1689  0.2123  0.1449
26504W        W46038   0.315  12.227   0.465 -0.1729  0.2324 -0.0879
26505W        W46039   3.317   1.925   2.003 -0.2982 -0.1641  0.2914
26506W        W46040  15.746   5.989  13.527 -0.1999  0.2971  0.1694
26507W        W46041  17.839  12.663   0.975  0.0485  0.1778  0.0993
26508W        W46042   5.739  11.262  13.814  0.1268 -0.0311  0.0376
26509W        W46043  18.358  10.261   2.275  0.1121 -0.0807  0.1106
26510W        W46044   3.258   5.488   3.656 -0.0492  0.2960 -0.3628
26511W        W46045  18.742  10.124  13.904 -0.0829  0.1220  0.2065
26512W        W46046   7.371  10.457   0.668 -0.3246 -0.2463  0.0424
26513W        W46047  16.067   2.790   0.165 -0.2254  0.1582  0.0827
26514W        W46048   8.621  15.695  13.623  0.0918 -0.1502  0.0546
26515W        W46049   8.886   5.669  11.958  0.1075  0.0272  0.0552
26516W        W46050   3.552   1.620   2.888 -0.2129 -0.0102 -0.1257
26517W        W46051  12.137  11.071   3.939  0.0268  0.1822  0.2063
26518W        W46052   5.704   2.673  10.175 -0.0084 -0.4892  0.0196
26519W        W46053   5.677   4.221   0.253  0.3442  0.0254  0.1737
26520W        W46054  16.717  13.888  13.445 -0.1118  0.0130  0.0810
26521W        W46055   0.692   8.657  12.841  0.0690 -0.4018 -0.4045
26522W        W46056  11.222   0.163   0.806  0.3552  0.2518  0.0314
26523W        W46057  13.933   8.843   1.019  0.2513  0.1679  0.1969
26524W        W46058   2.144  14.908   2.983 -0.1464 -0.2667  0.0975
26525W        W46059  19.058   1.377   0.023  0.2668 -0.1194  0.0792
26526W        W46060   4.620  13.508  11.916  0.0792 -0.0470 -0.1093
26527W        W46061   2.872   8.272  13.711 -0.0247 -0.2271  0.0627
26528W        W46062   2.556  15.148  12.182 -0.1900  0.2384 -0.1717
26529W        W46063  12.645   5.287  12.925 -0.0207  0.1840  0.1900
26530W        W46064  14.609   3.603  10.153  0.0901 -0.3586  0.3946
26531W        W46065  10.537   8.715   1.200 -0.2174  0.0229  0.0346
26532W        W46066   7.055   7.762   9.541  0.0525  0.2637  0.1168
26533W        W46067   8.445  15.874  13.149 -0.4021 -0.2280 -0.0547
26534W        W46068  13.030   6.005  10.425 -0.3618 -0.2589 -0.3218
26535W        W46069   4.468   3.133  10.366  0.0810 -0.1252  0.2050
26536W        W46070  12.405  11.888   2.919  0.0344  0.1203  0.0816
26537W        W46071   2.421  10.753  10.829 -0.0701  0.0215  0.2955
26538W        W46072   5.526   6.897   3.298 -0.0573 -0.0310  0.0265
26539W        W46073   2.787   0.851   1.774 -0.1089 -0.0824 -0.1168
26540W        W46074  17.035   5.369  12.009 -0.0127 -0.2164  0.0385
26541W        W46075  11.906  14.572   4.369  0.0599 -0.0767  0.4395
26542W        W46076  15.482   4.128   3.797  0.0104  0.0940 -0.0660
26543W        W46077   0.379  19.018  12.299  0.1255 -0.0010  0.4515
26544W        W46078  16.411   9.413  12.456  0.1947 -0.0301  0.3169
26545W        W46079  16.439  15.071   2.493 -0.0552 -0.1190  0.1928
26546W        W46080   6.827   9.799  10.683  0.1727  0.4748  0.1957
26547W        W46081  12.343   0.566   1.592  0.0191  0.1682 -0.0167
26548W        W46082   6.058  13.894   0.271  0.1416  0.2335 -0.4436
26549W        W46083  14.312   8.900  11.065 -0.5748 -0.2872 -0.2798
26550W        W46084   4.528  17.565  12.128 -0.2720  0.3245 -0.2048
26551W        W46085   0.788   6.820   3.916  0.1688  0.2941 -0.3671
26552W        W46086   4.691  14.235  10.981 -0.1740  0.1860 -0.0317
26553W        W46087  13.855   8.163  11.694  0.0684  0.0245 -0.0323
26554W        W46088  10.190   8.737   1.572 -0.0517  0.0173  0.0656
26555W        W46089   8.004  14.096   1.098 -0.1565 -0.0695 -0.0498
26556W        W46090  12.656   3.118   4.077 -0.2609  0.2340  0.0929
26557W        W46091  11.469  16.776  13.592 -0.2030  0.2160  0.2156
26558W        W46092  16.341  10.803   0.114 -0.1064 -0.3505 -0.1755
26559W        W46093  15.251   5.880  10.235 -0.2992  0.1685 -0.1432
26560W        W46094  13.172  19.442   1.454 -0.0151  0.1536  0.1017
26561W        W46095   1.721   4.168   1.052 -0.1986  0.1790  0.1005
26562W        W46096  16.514   0.729   3.511 -0.0870  0.0808  0.2992
26563W        W46097  12.634   1.813   2.608 -0.1302 -0.1551 -0.4307
26564W        W46098  17.120  11.466   2.981 -0.3028  0.0869  0.1008
26565W        W46099   7.674   0.553  10.897 -0.1733 -0.0259  0.0669
26566W        W46100  17.408  11.998  12.756  0.1710  0.3453 -0.2734
26567W        W46101   3.036   3.097   2.123  0.2871  0.0657 -0.0973
26568W        W46102   0.201  17.427   3.160  0.0365  0.2527  0.2771
26569W        W46103  17.149  16.204  11.906  0.3405  0.3616 -0.3519
26570W        W46104   6.020  16.180   2.305  0.0725 -0.4021 -0.1254
26571W        W46105  15.944   8.445   1.926  0.0344  0.3149  0.1210
26572W        W46106  11.817   9.676   3.663 -0.0105  0.1775 -0.1722
26573W        W46107  10.821  13.460   1.383 -0.0731  0.1719  0.1238
26574W        W46108  11.977   9.558  11.115 -0.4875  0.1134  0.3238
26575W        W46109   7.269   1.968  13.959  0.0385 -0.0992  0.2414
26576W        W46110   8.681   6.285   2.758  0.0676  0.2121 -0.0567
26577W        W46111   5.574  14.455   2.269  0.4811 -0.0655 -0.0656
26578W        W46112   3.037  10.379  12.654 -0.1627  0.1288 -0.2051
26579W        W46113   8.786   5.166  10.726  0.1316 -0.0610 -0.4048
26580W        W46114   4.246  16.822   0.825  0.0025 -0.0341  0.1417
26581W        W46115  11.181   1.249  10.385  0.0072 -0.1212  0.0683
26582W        W46116  10.777  12.733  12.362 -0.0696  0.0386 -0.0845
26583W        W46117  18.167   0.722   2.289  0.0421 -0.0340 -0.0996
26584W        W46118  13.457  14.206  13.695 -0.3249 -0.0041 -0.1513
26585W        W46119  16.089   1.146   1.872 -0.3140  0.2264 -0.2302
26586W        W46120   3.978  12.574   0.758  0.0629 -0.0401 -0.0319
26587W        W46121  15.774   1.987   3.176 -0.3252  0.3317  0.0690
26588W        W46122  15.570  13.509  14.159  0.1298  0.1031  0.1991
26589W        W46123   5.216  10.618   4.038  0.0610  0.0150  0.2476
26590W        W46124  17.871   4.006  10.398 -0.3961 -0.2026 -0.2075
26591W        W46125   9.000   7.039   3.138  0.1868 -0.3192 -0.0851
26592W        W46126   3.540  19.294   2.819  0.2073  0.0831 -0.4384
26593W        W46127  19.459  10.356   3.648  0.1572 -0.2264  0.1769
26594W        W46128  16.334  12.740  12.402 -0.1487  0.2249 -0.2194
26595W        W46129   7.429  11.399  13.407 -0.0144  0.0477 -0.1535
26596W        W46130   3.008  16.174   2.660  0.1013  0.3024 -0.0803
26597W        W46131  15.442   0.457   3.401  0.0965  0.1314  0.0403
26598W        W46132   9.183   9.386   4.684  0.0409  0.1589  0.2605
26599W        W46133  12.784   7.939  10.783  0.0261  0.0247 -0.3050
26600W        W46134   6.951  10.095  14.160 -0.3151 -0.3632  0.2448
26601W        W46135  16.432  19.177   1.846  0.1150 -0.0355 -0.0655
26602W        W46136  17.452   3.929   2.632  0.0918 -0.3412 -0.1071
26603W        W46137   9.087   5.977   0.413  0.1407  0.0014  0.0501
26604W        W46138  15.906   6.946   0.762  0.1778  0.1050 -0.1856
26605W        W46139   7.805  13.230   5.285  0.1165 -0.4362 -0.1078
26606W        W46140  16.716   1.692   3.779  0.2790  0.1447  0.1273
26607W        W46141   3.971   7.472   3.750 -0.0466  0.1132  0.0545
26608W        W46142   5.760   3.672  13.337 -0.1197  0.2608 -0.0594
26609W        W46143  18.121  11.129  13.921 -0.3001 -0.1579 -0.0776
26610W        W46144   9.489  13.074   3.619  0.2609 -0.1236 -0.0187
26611W        W46145   9.900   2.274  12.987 -0.3860  0.4331 -0.1963
26612W        W46146   3.352  13.338   0.489  0.0979 -0.2677  0.3462
26613W        W46147  17.466   4.702  10.437 -0.0867  0.3247  0.1276
26614W        W46148  16.112  13.970   3.894 -0.0528  0.0170 -0.0417
26615W        W46149  15.042  11.901  13.086 -0.2227 -0.2143  0.1450
26616W        W46150   9.425   3.552   0.808  0.3104  0.0523  0.1858
26617W        W46151   7.089   7.391  11.863 -0.0464  0.2322 -0.0796
26618W        W46152   0.427  15.349  11.435  0.0435 -0.3469 -0.1645
26619W        W46153  10.954   7.932  11.108  0.1370 -0.4163  0.0036
26620W        W46154  11.945   8.561   3.478 -0.1102  0.2202  0.2293
26621W        W46155  19.027   4.066  13.055 -0.0784 -0.1747  0.0431
26622W        W46156  13.739   8.949  11.847  0.2842 -0.0016  0.2327
26623W        W46157  13.119   1.877  11.340 -0.0672 -0.3242  0.1831
26624W        W46158  18.441   1.180   1.386  0.0634  0.2511  0.0437
26625W        W46159   4.449   4.298   0.975  0.1601 -0.0991  0.2718
26626W        W46160   9.203   4.069  11.751  0.2636 -0.2471 -0.0331
26627W        W46161   9.416   8.848   3.395 -0.3267 -0.2727 -0.0870
26628W        W46162   5.570   6.205  10.898  0.1710 -0.1855 -0.1167
26629W        W46163   2.752  11.530   0.712  0.1795  0.1974  0.0592
26630W        W46164  18.828  13.511  10.041  0.0178 -0.0847 -0.1225
26631W        W46165  16.109   4.249   1.580  0.2443 -0.2027  0.1808
26632W        W46166   6.823  19.509  13.458 -0.1087  0.0263 -0.0631
26633W        W46167  14.059   5.513  11.532  0.3942 -0.0700  0.2554
26634W        W46168   3.913  16.708  12.767 -0.0260  0.0721  0.2825
26635W        W46169   0.210   4.511   2.524  0.0568  0.1784  0.2276
26636W        W46170   0.172   8.116   4.086 -0.3684  0.0547 -0.3683
26637W        W46171   8.537   7.910   2.794 -0.0253 -0.1283  0.3941
26638W        W46172  18.666   5.048  14.289 -0.2401 -0.1220  0.4115
26639W        W46173  10.190   6.183   9.476  0.0432 -0.1074  0.1346
26640W        W46174   9.306   2.095  13.179  0.2473 -0.2064  0.3032
26641W        W46175  13.276   9.366   0.758 -0.3957 -0.2326 -0.2915
26642W        W46176  14.371  13.242   0.256 -0.2803  0.3395 -0.2552
26643W        W46177   4.434   3.477  12.797 -0.0339 -0.0501 -0.2256
26644W        W46178  12.860  16.723  12.348  0.0608 -0.0968  0.0762
26645W        W46179  17.775   5.693  11.406  0.0721  0.1820  0.1761
26646W        W46180  13.914   2.330  11.580  0.1209 -0.2790  0.3146
26647W        W46181   0.451  19.354  10.668  0.1534 -0.0513  0.0120
26648W        W46182  16.586   7.702   1.431  0.2754 -0.0687 -0.0387
26649W        W46183   0.177   4.558  12.094  0.3116  0.0351 -0.1483
26650W        W46184   1.387   0.330   1.372  0.2697 -0.1601 -0.0059
26651W        W46185   4.661   2.056  13.740 -0.2792 -0.1435  0.0139
26652W        W46186   9.218   6.753   0.061 -0.3674 -0.0705 -0.4447
26653W        W46187   5.160  16.381   3.057  0.0126 -0.2242  0.0841
26654W        W46188   4.008  17.131  11.034  0.1997  0.0388 -0.1466
26655W        W46189   2.016   8.161   9.923  0.1545  0.0017  0.0806
26656W        W46190   4.887   3.176  12.785 -0.0992  0.1012  0.2085
26657W        W46191  18.239  12.736  10.955  0.0836 -0.0088  0.4397
26658W        W46192   5.936   0.555   2.152  0.3308  0.0971 -0.4985
26659W        W46193   8.909   2.467  10.693  0.2060  0.0331 -0.1632
26660W        W46194  10.546  15.189  10.817  0.1372 -0.2948 -0.1307
26661W        W46195   5.107  11.884   2.224 -0.0826 -0.1937 -0.1013
26662W        W46196   0.484  11.678  12.548 -0.0448  0.0605  0.1497
26663W        W46197  19.267  13.222  12.871 -0.2729 -0.0180 -0.1384
26664W        W46198  18.425   1.439  10.051 -0.1170  0.0819  0.0149
26665W        W46199  16.442   8.617   3.944  0.0287 -0.1532  0.0797
26666W        W46200   0.418   8.123  11.463 -0.0298 -0.0296 -0.0767
26667W        W46201  15.320   2.138   2.994 -0.1933  0.0580 -0.3818
26668W        W46202  17.845   9.522   4.333 -0.0244  0.2432 -0.1632
26669W        W46203   7.926  12.001   2.138  0.0763  0.3356  0.0433
26670W        W46204   9.754   3.318  13.237 -0.2548 -0.0974  0.0015
26671W        W46205   7.737   7.969  12.267  0.3113 -0.1280 -0.1813
26672W        W46206   7.567   8.067   2.078 -0.0398  0.2633 -0.0542
26673W        W46207  18.882   3.515  11.724 -0.2045  0.1504 -0.1315
26674W        W46208   1.251   9.105   0.764  0.3609  0.1863 -0.0563
26675W        W46209   6.048   2.737   4.454 -0.1263  0.1651 -0.4017
26676W        W46210   5.987   7.060  12.200  0.0334  0.2423 -0.1419
26677W        W46211   2.896  14.463   4.006  0.0281  0.1039  0.3272
26678W        W46212   6.295  16.635  12.878  0.0039  0.0542 -0.0389
26679W        W46213  15.958   7.634   9.797 -0.1304  0.2014  0.1425
26680W        W46214   0.642  11.673  11.518 -0.1984  0.0771 -0.2222
26681W        W46215  17.651  15.235   1.425 -0.3740  0.0002 -0.1323
26682W        W46216   2.443   3.773   0.911  0.1401  0.1622 -0.1764
26683W        W46217   9.650   7.270  12.917  0.1237 -0.3373  0.0330
26684W        W46218   8.593  16.358   0.088  0.1053 -0.0818 -0.0095
26685W        W46219   5.171   8.449  14.178  0.0073  0.0393  0.1193
26686W        W46220   6.883   4.926   4.993 -0.1903 -0.1419 -0.0437
26687W        W46221  18.371  17.525  13.346 -0.3222 -0.1718 -0.1640
26688W        W46222   0.083  14.413  12.016  0.1800  0.0872  0.1355
26689W        W46223  13.318   2.635   0.512 -0.0768  0.0560 -0.0509
26690W        W46224   7.148  13.531  11.523 -0.0172  0.0727 -0.4061
26691W        W46225   6.812  15.536   3.779  0.0597  0.0828  0.1251
26692W        W46226   7.482  19.430  10.518 -0.0471 -0.3228 -0.4521
26693W        W46227   4.025   0.989   4.483 -0.2423  0.1607  0.0915
26694W        W46228   3.278  16.568   2.563  0.2958 -0.1528 -0.1843
26695W        W46229  11.296  12.339   3.356  0.1062 -0.2029 -0.1448
26696W        W46230   3.888   8.722   3.182  0.0482  0.0536  0.1920
26697W        W46231  13.293   6.353  11.174 -0.0389 -0.2246 -0.0536
26698W        W46232   1.610  14.397   9.285  0.0610  0.0874 -0.0820
26699W        W46233   6.847  17.755   3.554  0.1227  0.3281 -0.4697
26700W        W46234   3.863  11.457   3.038  0.2745  0.2188 -0.1694
26701W        W46235  12.241  11.429  11.311  0.0665  0.3334 -0.0313
26702W        W46236  15.695   6.233   2.937  0.0396  0.0470 -0.1584
26703W        W46237   2.356   3.551   2.976 -0.1932 -0.2401 -0.0478
26704W        W46238  19.500   1.063   3.759  0.0096 -0.1309  0.3330
26705W        W46239   9.342  12.516   1.145  0.0677 -0.1716 -0.0802
26706W        W46240   2.710   6.954  11.930  0.0693 -0.0804  0.3805
26707W        W46241  13.907   0.529   2.584  0.0332  0.2768 -0.2186
26708W        W46242   7.262   5.369  13.685 -0.3462  0.0903  0.0198
26709W        W46243   6.774   0.451   1.418  0.1825  0.1058  0.2485
26710W        W46244   7.491  13.594  12.743  0.0411  0.1583 -0.1333
26711W        W46245   4.242   6.675  13.845  0.0009 -0.1664  0.0665
26712W        W46246  14.824  13.909  11.322  0.3551  0.0128  0.3157
26713W        W46247   9.455   7.044   3.617 -0.1043  0.0761 -0.2388
26714W        W46248  12.025  16.510   0.602 -0.1089 -0.0302  0.0450
26715W        W46249   6.760  13.523   2.309 -0.3006 -0.2264  0.4175
26716W        W46250   8.406  18.004   0.460  0.1773  0.1857  0.1005
26717W        W46251   8.923  17.080   1.678  0.0449 -0.0110 -0.0669
26718W        W46252  16.152   8.165   0.385  0.2529  0.1140  0.0171
26719W        W46253   1.779   6.361   2.982 -0.2898  0.1903 -0.2293
26720W        W46254  14.678  15.500   3.561  0.0253 -0.2149 -0.3177
26721W        W46255  14.593   0.236  14.096 -0.2200  0.0641  0.3564
26722W        W46256   0.277   7.366   3.534 -0.0866 -0.2005  0.2850
26723W        W46257   1.506  13.106   0.321 -0.2020 -0.0859  0.0584
26724W        W46258  19.162  13.326   3.883  0.5483 -0.1710  0.0247
26725W        W46259   9.844   0.172   2.761  0.2071  0.0425  0.0742
26726W        W46260   4.854  10.869  12.332  0.0758  0.2871  0.3346
26727W        W46261   8.819  10.572   0.332  0.0832  0.2671  0.1626
26728W        W46262  11.457  17.065  12.813 -0.1302  0.1411  0.0847
26729W        W46263  16.771  12.523   9.647 -0.0756 -0.0852  0.2125
26730W        W46264  10.700   6.580  12.626  0.1782  0.0330  0.1565
26731W        W46265  18.558  17.095  13.547  0.1827  0.0526  0.0043
26732W        W46266   4.909   4.074   0.100  0.0678 -0.1665 -0.0815
26733W        W46267   1.307   0.326   2.402  0.1034  0.4364 -0.1319
26734W        W46268  17.793  11.444  14.168 -0.1481  0.1391  0.4363
26735W        W46269  13.207   1.308  13.216 -0.2905  0.0752 -0.1966
26736W        W46270  10.917  13.192  12.245 -0.0533  0.0264 -0.1831
26737W        W46271   8.822   0.670   1.805  0.0957  0.3671 -0.2822
26738W        W46272  15.383   7.974  10.985  0.1602 -0.4960 -0.1152
26739W        W46273  17.436  12.011  13.384 -0.1747  0.0964  0.1261
26740W        W46274  15.321   0.178   0.522 -0.0243  0.0739 -0.0964
26741W        W46275   3.562   4.182   3.204 -0.0872 -0.1978 -0.1639
26742W        W46276  15.842   0.075  12.306 -0.3037 -0.1230 -0.0445
26743W        W46277   4.904   9.195   1.999  0.1479  0.3008 -0.1332
26744W        W46278   9.871  11.070  11.109 -0.0723  0.0673  0.2219
26745W        W46279   8.530   3.485   1.981  0.1665 -0.2343 -0.0357
26746W        W46280  11.549  13.084   2.786 -0.0565  0.0832 -0.2611
26747W        W46281   6.365  12.437   0.968 -0.0305 -0.2495  0.0484
26748W        W46282  14.108   9.519  13.370 -0.2493  0.0845 -0.2757
26749W        W46283  10.611   6.004  11.965 -0.3606 -0.0561  0.0466
26750W        W46284  11.998   8.119   0.426 -0.1932  0.1423  0.0556
26751W        W46285   1.001   2.849   3.294 -0.1802  0.2162 -0.0801
26752W        W46286  17.841  13.873   1.511  0.0080  0.1443 -0.1590
26753W        W46287   6.030   6.585   2.443 -0.2479 -0.4187  0.0196
26754W        W46288  14.431   3.359  12.813  0.1038 -0.1245 -0.2082
26755W        W46289  14.208   3.904   2.239 -0.0256  0.0453  0.1315
26756W        W46290  16.394  11.102  12.912  0.1096  0.0048 -0.0508
26757W        W46291   6.705  12.043   1.160 -0.4004  0.2657 -0.3829
26758W        W46292  10.272  10.409  11.750  0.0450  0.0935  0.1407
26759W        W46293   7.456   5.532  14.112  0.1216  0.3175 -0.0646
26760W        W46294  16.730  13.117  10.893  0.0714  0.0982 -0.0725
26761W        W46295  12.605   4.556  10.868 -0.0866  0.3483  0.1061
26762W        W46296   9.392  19.288  11.220  0.3528  0.2291  0.2099
26763W        W46297  12.658  10.316   2.076 -0.1852  0.1437  0.0745
26764W        W46298  16.532  15.432  12.584  0.0427 -0.3147 -0.2598
26765W        W46299  16.040   9.484   3.354 -0.1166  0.1119 -0.1186
26766W        W46300  14.807  14.097   2.553  0.0090 -0.0093  0.0861
26767W        W46301   7.630  11.145   0.543  0.0110 -0.1567  0.0775
26768W        W46302  16.698   3.425   1.521  0.0904 -0.0006 -0.0555
26769W        W46303   8.443   0.223  12.988 -0.1442  0.3358  0.1347
26770W        W46304   5.220  11.110  10.688 -0.1394  0.3349 -0.2364
26771W        W46305   8.194   4.476   1.292  0.4049 -0.2271 -0.0984
26772W        W46306   4.260   6.772   0.027  0.3009  0.2186  0.2909
26773W        W46307   2.371  19.090   3.496  0.0394 -0.1435 -0.0468
26774W        W46308  16.617   8.266  11.563  0.0178  0.0158  0.3480
26775W        W46309  10.858   3.759  13.318  0.1854  0.0886  0.0421
26776W        W46310  12.224  17.496  12.812 -0.3171  0.0615 -0.1463
26777W        W46311   0.954  11.793  12.445  0.0747 -0.0016  0.2720
26778W        W46312   5.118  17.627   2.609 -0.1497 -0.1606 -0.1358
26779W        W46313   8.231   5.468  12.295 -0.2446 -0.3597  0.1405
26780W        W46314   0.800  18.968   3.293  0.3164 -0.3321 -0.1860
26781W        W46315   1.076  11.844  11.846  0.0150  0.0813  0.0079
26782W        W46316  12.709  17.210  13.991 -0.1279 -0.1475  0.2845
26783W        W46317   2.637   0.891  12.709 -0.2663  0.0181 -0.1632
26784W        W46318  11.467   6.278  12.332 -0.0439  0.0363  0.0098
26785W        W46319  15.092   7.797  14.087  0.4822 -0.1507 -0.1129
26786W        W46320   2.979   5.834   3.440 -0.2437 -0.1494 -0.1314
26787W        W46321  15.875   2.206  11.796  0.2174  0.3031 -0.0878
26788W        W46322  13.731   4.603  11.009  0.2570  0.0302 -0.2142
26789W        W46323  18.254   6.640  14.202  0.1119  0.3240  0.0930
26790W        W46324   9.477  11.046   3.260  0.2242 -0.2842 -0.0060
26791W        W46325  12.352  17.810   2.064  0.0730  0.0438 -0.2492
26792W        W46326   7.424   1.468  11.077  0.1380  0.3155  0.1124
26793W        W46327  14.123   7.278   2.064  0.2543  0.2106 -0.1824
26794W        W46328   3.195   6.019   3.033 -0.1157 -0.4732  0.3287
26795W        W46329  17.376   6.616  12.948 -0.1517  0.2188 -0.0451
26796W        W46330  17.656  14.892  13.265 -0.0687  0.1039  0.3262
26797W        W46331   6.776  17.282   2.699 -0.0353  0.0599  0.2547
26798W        W46332  16.967  17.073   2.338 -0.0598 -0.0502  0.4419
26799W        W46333  15.264   3.630   1.034  0.1857 -0.1394 -0.3612
26800W        W46334   6.635  18.545  14.210 -0.0497  0.0792 -0.0390
26801W        W46335   5.850   4.546  11.130 -0.0720  0.1204 -0.0543
26802W        W46336  16.953  19.173   2.716  0.5063 -0.1606  0.1272
26803W        W46337  13.154   2.304  12.988 -0.1667 -0.1275  0.1355
26804W        W46338   8.307   9.088   3.740 -0.1042  0.1820 -0.1062
26805W        W46339   7.156   8.605  10.897  0.1098  0.0355  0.1197
26806W        W46340  12.248   4.658   3.875  0.1629 -0.2014  0.2369
26807W        W46341   8.180   6.160  14.023  0.3696  0.3995 -0.3156
26808W        W46342  14.314  14.704   3.836  0.0137 -0.0719 -0.0318
26809W        W46343  13.139   8.325  13.501 -0.5073  0.0959  0.2026
26810W        W46344  16.793   5.392   3.688 -0.1383  0.0807  0.2201
26811W        W46345   3.525   0.979  14.327  0.2430  0.0547 -0.1311
26812W        W46346  19.074   5.082  13.089 -0.2269  0.3011  0.0906
26813W        W46347   3.053  17.318   3.285  0.0564 -0.2126 -0.2026
26814W        W46348   7.912  12.354   0.007  0.1757 -0.0514  0.2171
26815W        W46349   5.022   4.755  11.565  0.2656  0.2896  0.0181
26816W        W46350  16.909   0.703  14.006  0.0774 -0.1040  0.0807
26817W        W46351  15.255   3.829  10.764  0.2335 -0.1220 -0.0649
26818W        W46352  17.774  14.621   3.944 -0.2012 -0.1134 -0.1101
26819W        W46353  10.044   2.999  14.284 -0.1692 -0.2058  0.1586
26820W        W46354  19.272  15.352  13.935 -0.2974  0.1551 -0.0321
26821W        W46355  13.892   5.033  11.788  0.4225 -0.1641  0.0383
26822W        W46356   7.920  11.062  10.763  0.0444  0.1372 -0.0558
26823W        W46357  19.407   3.605   2.449  0.3613 -0.0426 -0.0822
26824W        W46358   8.476   8.452  10.452  0.0268  0.3003 -0.3264
26825W        W46359  11.293  11.058   0.976  0.2976 -0.1200  0.0866
26826W        W46360  12.189  10.777  12.772  0.1347  0.0097  0.0717
26827W        W46361  14.778  16.942  14.056 -0.0421 -0.1671  0.0275
26828W        W46362  14.104  11.710  13.071  0.0662 -0.3459  0.0408
26829W        W46363   1.288   1.141   3.818  0.0941  0.3526 -0.0857
26830W        W46364  17.823  16.585  13.316  0.1214 -0.1853 -0.0935
26831W        W46365   6.737   0.001   1.767 -0.1292 -0.2055 -0.0496
26832W        W46366   1.035  15.714   0.774 -0.3123  0.0761  0.0638
26833W        W46367   5.595   9.886  11.126 -0.0477 -0.1440  0.1120
26834W        W46368   3.574  18.324  11.173 -0.2801 -0.0382 -0.1390
26835W        W46369  10.023  15.964  13.463  0.0701  0.0026 -0.1954
26836W        W46370  17.340   8.813  13.815 -0.1274  0.3541  0.0797
26837W        W46371   6.079  13.494  14.377  0.2931  0.2470  0.0596
26838W        W46372  15.766  17.688   0.253  0.2588  0.0295 -0.1111
26839W        W46373   1.476  17.096  12.482 -0.0694  0.0523  0.0704
26840W        W46374  13.732  12.200  13.804  0.1607  0.0514  0.0834
26841W        W46375   7.777  18.081  13.093 -0.3287  0.1109  0.0434
26842W        W46376   2.716   4.495   0.829 -0.1875  0.1711 -0.1701
26843W        W46377  11.963  17.896   2.437  0.0429 -0.1045  0.1246
26844W        W46378  14.849  17.560   1.211 -0.0139  0.1331 -0.3347
26845W        W46379   5.529   1.175   2.671  0.1155  0.1135  0.2745
26846W        W46380   4.010   1.707   3.110 -0.3048  0.0995  0.0148
26847W        W46381   3.961   5.100  11.621 -0.0835 -0.1897 -0.2782
26848W        W46382  16.454   5.492  12.311  0.4258  0.0317  0.0386
26849W        W46383   9.516   8.196   1.921  0.0219 -0.0562  0.2989
26850W        W46384  16.616  17.356   9.903 -0.0623  0.3836  0.2924
26851W        W46385   6.598  18.405   1.789  0.1036 -0.1119 -0.2280
26852W        W46386   0.793   1.171  11.477 -0.3266 -0.4837  0.0701
26853W        W46387   4.904   2.956   1.925  0.1984  0.1192  0.0437
26854W        W46388   1.427  17.726   4.598 -0.0724  0.0436 -0.0722
26855W        W46389  18.744   8.963  13.364  0.2441 -0.1235  0.2501
26856W        W46390   1.474   5.067  11.534 -0.1711 -0.1737  0.2987
26857W        W46391  19.169  17.412  12.645  0.1483 -0.1429  0.2058
26858W        W46392   0.381  12.450  11.402 -0.1232 -0.1280  0.3090
26859W        W46393   8.085  17.960  11.085  0.1349  0.2139 -0.2263
26860W        W46394   7.424  13.099  14.025  0.0156  0.0841  0.4425
26861W        W46395  17.991  10.372  11.861  0.1980  0.2496  0.1392
26862W        W46396  18.817   3.903   0.931 -0.1810  0.0396 -0.0944
26863W        W46397   7.409   0.245   0.242 -0.2948 -0.2034  0.0438
26864W        W46398   5.640   2.830  13.391  0.2653  0.0452  0.1444
26865W        W46399  11.306  10.278   0.989 -0.2477  0.0286 -0.0085
26866W        W46400   3.019   5.914  13.826 -0.2338 -0.1893  0.0215
26867W        W46401   2.111   6.237   0.431 -0.0075 -0.1443 -0.0912
26868W        W46402   7.032   3.265   1.550  0.2751  0.4075 -0.0599
26869W        W46403   5.291   6.933  12.916 -0.0230 -0.0294 -0.0838
26870W        W46404  14.892   0.728   1.268 -0.1265 -0.5309  0.1557
26871W        W46405   3.778  14.915  14.364  0.0925 -0.2349  0.0434
26872W        W46406  11.814   1.373   1.582  0.3600  0.0653 -0.1297
26873W        W46407  10.852  15.916   3.843  0.1869  0.1781  0.0543
26874W        W46408   2.811  17.046   2.974 -0.1566  0.1829 -0.1291
26875W        W46409   6.623  13.020  12.527  0.3299 -0.1292 -0.1337
26876W        W46410  12.466  11.489   1.050  0.1447 -0.0318 -0.2246
26877W        W46411  13.079  15.200   4.852 -0.1675 -0.3327  0.0001
26878W        W46412   5.507  15.374   4.397 -0.1179 -0.0453  0.2252
26879W        W46413   6.073  17.039   0.246 -0.0972 -0.1336 -0.2968
26880W        W46414  14.861   0.436  11.443 -0.1347  0.0912  0.1586
26881W        W46415   9.849   7.222   4.098 -0.0436 -0.1874 -0.1613
26882W        W46416   6.122  12.116   0.045  0.0008  0.0166 -0.1237
26883W        W46417  12.422  12.195  13.853 -0.0611  0.1841  0.3552
26884W        W46418  11.001  13.747   9.923  0.0776  0.0918 -0.1543
26885W        W46419  18.103   8.731  11.331  0.0525 -0.2367 -0.1597
26886W        W46420  12.089  11.473   9.431  0.0647 -0.0501 -0.0464
26887W        W46421   5.825   1.493   1.212 -0.2041  0.0637 -0.1970
26888W        W46422  12.929  14.940  13.303 -0.2774  0.0032 -0.1415
26889W        W46423  17.643  12.007  11.705  0.3870 -0.2430 -0.1949
26890W        W46424  17.512  15.107   0.171  0.1599 -0.0804  0.2350
26891W        W46425  10.318  13.670   3.881  0.0748  0.1390  0.0425
26892W        W46426   6.174  13.314   3.980  0.0143  0.0306  0.1995
26893W        W46427   2.018   2.514  11.758  0.0429  0.0819 -0.1989
26894W        W46428   1.387   6.658  10.750 -0.1173  0.1964  0.4947
26895W        W46429   9.082   2.801  13.474  0.0855  0.0408  0.0628
26896W        W46430   8.276   3.664   4.126  0.1613  0.0757  0.0812
26897W        W46431   1.054   0.197  12.201 -0.2770 -0.0576 -0.2447
26898W        W46432  15.535  15.540  12.987  0.1007  0.0398 -0.2067
26899W        W46433  17.175   9.566   2.087  0.2092 -0.0340  0.1524
26900W        W46434   8.143   7.626  10.960 -0.3176 -0.0036  0.1268
26901W        W46435   0.392   4.967  12.994  0.0731  0.0419 -0.0696
26902W        W46436   9.014   9.644   1.199  0.2878  0.0506  0.2658
26903W        W46437  11.479  12.162   2.680 -0.3445 -0.0930  0.0520
26904W        W46438  18.194  16.368   0.006  0.1170 -0.1400 -0.1821
26905W        W46439  14.722   0.545   0.290 -0.0691 -0.0971 -0.1282
26906W        W46440   1.346   5.514  10.606 -0.0868 -0.1511 -0.1342
26907W        W46441   8.815  18.899   4.344 -0.0699 -0.2094  0.0324
26908W        W46442  13.153  10.508  11.056 -0.0113  0.0802  0.0819
26909W        W46443  18.232  12.133   1.065  0.1220  0.1710 -0.3848
26910W        W46444  16.648   3.729  12.495 -0.2699  0.4284  0.0481
26911W        W46445  14.616  15.605  11.766 -0.2546  0.1206  0.1669
26912W        W46446   6.966  16.665  14.216 -0.2018  0.0204  0.3597
26913W        W46447   8.801   3.889  12.004 -0.0299  0.0472 -0.4074
26914W        W46448   1.328   5.596  12.071  0.1477 -0.1902 -0.0553
26915W        W46449   1.140  16.880   2.519 -0.0901 -0.0130 -0.0361
26916W        W46450  18.572   8.329  13.979 -0.3077 -0.1439  0.0633
26917W        W46451  11.247  19.436  11.844 -0.1691 -0.2534  0.1602
26918W        W46452   8.981   8.794   2.661  0.4090 -0.0260 -0.0163
26919W        W46453   8.432   3.851   2.350 -0.2998  0.0238 -0.2363
26920W        W46454  17.491   9.189  10.837  0.1177 -0.0676  0.3651
26921W        W46455  16.456  11.558   3.722 -0.4369 -0.0508 -0.2560
26922W        W46456   0.719   4.011  12.774 -0.3834 -0.4290 -0.0748
26923W        W46457   7.619  13.049   2.628 -0.0842  0.0380 -0.1874
26924W        W46458  14.959   0.803  14.228  0.3056 -0.1282 -0.0271
26925W        W46459   8.462  17.181   3.867 -0.0354 -0.0001 -0.0814
26926W        W46460  11.910   5.222   2.071  0.2600  0.1180 -0.2657
26927W        W46461   1.727  13.981  10.995  0.0064  0.1309 -0.0940
26928W        W46462  13.600   5.463  12.177 -0.3769 -0.1301 -0.0163
26929W        W46463   6.591   4.173   2.160 -0.4773 -0.0763 -0.0200
26930W        W46464   8.254   4.692   3.981 -0.1383 -0.0564 -0.0151
26931W        W46465  12.201  13.558  10.738  0.3105 -0.1781 -0.2922
26932W        W46466   3.028  18.275  10.941  0.0543 -0.2305 -0.2317
26933W        W46467   4.749  13.174  11.068  0.0571  0.0427 -0.1025
26934W        W46468  14.459  16.947  12.855 -0.4573  0.0584 -0.1460
26935W        W46469  14.074   0.261  10.902  0.0656  0.1484  0.0386
26936W        W46470   1.639  16.490   9.163  0.1175  0.1343 -0.0854
26937W        W46471   0.464  16.328  13.449 -0.2244  0.0886  0.0382
26938W        W46472  19.286  16.494   0.100  0.0089  0.0015  0.1554
26939W        W46473  12.123   2.209   0.452 -0.0540  0.1947 -0.3786
26940W        W46474   5.487   7.882  12.938  0.1150 -0.1627  0.0504
26941W        W46475  14.484  12.984  10.994 -0.0794  0.0452 -0.1439
26942W        W46476  13.735  17.273  11.912  0.0598  0.0924 -0.0261
26943W        W46477  18.464   4.732   0.302  0.1708 -0.3514 -0.1637
26944W        W46478  12.388   6.808  12.153  0.1534  0.0096 -0.0849
26945W        W46479  10.497   0.876  10.322  0.0878  0.2288 -0.2815
26946W        W46480  10.392  12.280   1.141 -0.2473 -0.2915  0.0108
26947W        W46481  10.033   6.955  14.023 -0.0029 -0.0610 -0.2270
26948W        W46482   0.773   2.520   0.534  0.0837 -0.1854  0.0541
26949W        W46483  15.190  14.659   3.426  0.0260 -0.1997  0.1548
26950W        W46484  17.818  18.597  12.713  0.0802  0.1913 -0.1212
26951W        W46485   0.924  12.943  13.449  0.2678 -0.0310 -0.3415
26952W        W46486   6.049  18.681  14.134  0.0479  0.1036  0.0924
26953W        W46487   4.488   3.496   3.482 -0.5300  0.1857 -0.0121
26954W        W46488  13.242  17.320  11.189 -0.1748  0.1535 -0.1151
26955W        W46489   9.020  17.206  13.451  0.1716 -0.1520 -0.0357
26956W        W46490   8.460   9.506  14.300 -0.0853  0.2393  0.1937
26957W        W46491   4.257  13.467   0.769  0.1633 -0.2574  0.0630
26958W        W46492   0.060  15.958  12.797  0.2637 -0.8439  0.1786
26959W        W46493   8.035   4.036   0.256  0.1376  0.3651  0.3372
26960W        W46494  11.579  10.865  13.872  0.3886  0.1132  0.0060
26961W        W46495  10.023  14.776   3.379 -0.0477  0.2818 -0.1742
26962W        W46496  16.781   1.151  11.907 -0.2096  0.0883 -0.0091
26963W        W46497  17.983   5.087  11.197 -0.1825 -0.2649 -0.2090
26964W        W46498   3.613  15.311   1.495  0.0134 -0.0154 -0.0908
26965W        W46499   7.080  16.853   2.941 -0.4516 -0.2584 -0.1531
26966W        W46500  11.351  12.412  14.299  0.0328  0.0130 -0.1573
26967W        W46501   6.953  10.894  10.834 -0.1038  0.1194 -0.1821
26968W        W46502  14.281  14.549   0.204  0.0251 -0.1793  0.0001
26969W        W46503  14.040  16.412  12.148  0.2454 -0.1325  0.1779
26970W        W46504  12.871  15.754   2.959 -0.2319  0.1750  0.2401
26971W        W46505   5.210   4.338   0.469  0.1253  0.0437 -0.1026
26972W        W46506  16.762  16.949  12.660  0.0742  0.0914  0.0593
26973W        W46507  14.432  12.562  11.585  0.3533 -0.1860 -0.3527
26974W        W46508  13.508  13.196   1.563 -0.0566  0.1506  0.0782
26975W        W46509   7.329  16.445   1.123 -0.1435 -0.1996 -0.1889
26976W        W46510  14.159  11.325  13.415  0.1872 -0.0064 -0.0030
26977W        W46511   1.208   6.311  14.216 -0.0710 -0.2467 -0.1758
26978W        W46512   7.268  15.892   0.233 -0.2115  0.1722  0.1326
26979W        W46513  12.779  10.270   1.436 -0.0454  0.0257  0.0193
26980W        W46514  18.637  11.438   4.638  0.2189  0.2832  0.0829
26981W        W46515   2.729   8.358  14.243  0.1753 -0.0719 -0.2399
26982W        W46516   5.584   5.971   1.546 -0.0588  0.0512  0.1059
26983W        W46517  12.479  14.432   3.367 -0.1292  0.2138 -0.4911
26984W        W46518  17.447   8.187   2.200  0.0376 -0.0735 -0.0433
26985W        W46519   7.814  11.480   2.087  0.0313 -0.1695 -0.0952
26986W        W46520  15.926  11.404   2.485  0.1106 -0.0611 -0.0632
26987W        W46521  12.942  13.918  11.764  0.1712 -0.1119 -0.5348
26988W        W46522   0.142   5.792  11.118 -0.4159  0.0457  0.0215
26989W        W46523   5.298   4.468   3.885 -0.1042 -0.0655  0.3340
26990W        W46524   7.143  18.414   0.088  0.1748 -0.0163  0.0675
26991W        W46525  14.000   3.849  13.640  0.0155  0.0569 -0.1204
26992W        W46526  16.054  10.809   0.638 -0.1218 -0.3522 -0.1583
26993W        W46527   2.165   4.799   0.944 -0.0962  0.2498 -0.1354
26994W        W46528  14.556   7.344   0.237  0.1140  0.0915  0.0540
26995W        W46529   4.094  11.125   0.212 -0.0657 -0.1309 -0.1783
26996W        W46530   7.325   9.063  11.169  0.3014 -0.0504 -0.1075
26997W        W46531   5.316  17.225   0.313 -0.1883 -0.3137 -0.1456
26998W        W46532  17.642  14.027  13.637  0.3814  0.3598  0.2809
26999W        W46533   8.957  18.263  10.725 -0.0425 -0.2066  0.1544
27000W        W46534  13.324   4.487  11.294  0.2544  0.2377 -0.1728
27001W        W46535   4.471  16.018  14.089  0.0208  0.4187  0.0870
27002W        W46536  16.321  17.368  13.540  0.1054  0.0660 -0.1684
27003W        W46537   7.842   4.484   4.128 -0.1483  0.0132  0.2399
27004W        W46538   5.428   7.417   2.462 -0.2495 -0.1188 -0.1421
27005W        W46539   8.304  12.559   4.215 -0.1960  0.2320  0.1313
27006W        W46540   3.978  13.465  12.436 -0.0569  0.1318  0.2524
27007W        W46541  15.150   8.404   1.418 -0.4103  0.3291  0.1569
27008W        W46542  12.278  15.455   1.236  0.2027  0.1549  0.1266
27009W        W46543  19.341  17.992  10.716 -0.0449 -0.2325  0.1813
27010W        W46544  12.609  11.534   0.548 -0.0033 -0.0583  0.0349
27011W        W46545   4.111   9.718   2.077  0.2188 -0.0201  0.1454
27012W        W46546   1.462  11.635   2.663 -0.1150  0.2352  0.0229
27013W        W46547  15.893   3.280   1.938  0.0049 -0.0539  0.1846
27014W        W46548  12.075   8.670   2.446 -0.1092  0.0490 -0.2754
27015W        W46549  19.440  13.188   3.145  0.1326 -0.1847 -0.0639
27016W        W46550  16.907   3.516  11.189 -0.1501 -0.5704  0.5475
27017W        W46551   0.857   7.089  11.633 -0.0011  0.2571  0.0805
27018W        W46552   7.996  17.532   9.479  0.0209  0.1836  0.2766
27019W        W46553   4.214  10.347   0.900  0.1760  0.1106 -0.1473
27020W        W46554  14.665  17.028  11.834 -0.1069  0.1117 -0.2803
27021W        W46555  16.443  18.887   0.699  0.2525 -0.1601 -0.3542
27022W        W46556  17.959   1.480  11.967  0.0511  0.3041 -0.0897
27023W        W46557  10.396  16.077  12.917 -0.0358  0.2498 -0.2324
27024W        W46558   0.010   6.861   2.701 -0.3209 -0.2328 -0.2081
27025W        W46559  19.342  13.171  11.349  0.1193 -0.5239 -0.0419
27026W        W46560  16.112   3.192  12.641  0.0535  0.2303 -0.0258
27027W        W46561   3.849   7.290  11.588  0.1610 -0.0215  0.3558
27028W        W46562   9.290   7.400   3.947  0.1162  0.0697 -0.0796
27029W        W46563   0.934   6.081   2.362 -0.0236 -0.4036 -0.0672
27030W        W46564  11.379   2.456   2.983  0.2098 -0.0228  0.1634
27031W        W46565  11.392   6.957  11.038  0.0287 -0.1369 -0.2014
27032W        W46566   1.580  12.555  14.268 -0.3209  0.4489  0.2313
27033W        W46567  15.909   2.420   0.467  0.1154 -0.0240  0.0478
27034W        W46568  16.117  17.750   9.976 -0.2338 -0.2885 -0.1033
27035W        W46569   5.033   5.064   1.932  0.1182  0.0343 -0.0226
27036W        W46570   5.785  11.638   4.861  0.1073 -0.3080 -0.2346
27037W        W46571  15.522   5.781  12.110 -0.0604  0.0481  0.2415
27038W        W46572   3.882  18.631  10.899  0.1847  0.0860 -0.4079
27039W        W46573   1.151  13.761  12.441 -0.3558 -0.2655 -0.0315
27040W        W46574   3.656  18.867  14.161 -0.0335  0.0398 -0.1004
27041W        W46575  14.030  13.442  12.647  0.0759  0.5125 -0.2087
27042W        W46576  16.643   1.135  13.749  0.1994  0.0627  0.0544
27043W        W46577  10.547   4.489  12.795  0.2476  0.1654 -0.0897
27044W        W46578  17.881   7.336  13.366  0.1996 -0.1088 -0.1374
27045W        W46579   5.663   9.773  12.042 -0.2807  0.0280  0.3606
27046W        W46580  13.754  18.456  11.063  0.1513  0.1013 -0.0661
27047W        W46581  18.142   3.598  10.582  0.2270 -0.0348  0.0149
27048W        W46582   3.340  10.907   0.311  0.2688 -0.0811 -0.0029
27049W        W46583   8.268   2.764  11.556  0.1807 -0.1981  0.0772
27050W        W46584  13.407  13.967   2.185 -0.1934 -0.1881 -0.0223
27051W        W46585   8.006  11.806   4.071 -0.0240 -0.3017  0.0406
27052W        W46586   2.222  15.229  11.285 -0.2380  0.1629  0.1467
27053W        W46587  10.414   8.100   3.364  0.2718  0.2556  0.0376
27054W        W46588  13.623  11.299  13.395  0.0206  0.1981 -0.0697
27055W        W46589   3.506   6.918  11.676 -0.2410  0.1588 -0.0007
27056W        W46590   5.253  10.116  13.649  0.2291  0.2204  0.1653
27057W        W46591  12.540  17.683   1.253  0.1228  0.1108 -0.0931
27058W        W46592  19.096  12.176   1.663  0.1408  0.1253  0.1495
27059W        W46593   9.692   5.176  12.058  0.1872 -0.1106 -0.0072
27060W        W46594   6.309  11.358   2.092 -0.1667 -0.0465 -0.2163
27061W        W46595   5.941  17.968  11.875 -0.2580  0.3195  0.2063
27062W        W46596  14.764   0.146   3.199  0.1108  0.0735 -0.1167
27063W        W46597  10.448   0.167   2.035 -0.0547  0.0462 -0.2426
27064W        W46598   4.451   1.357   3.955  0.2739  0.0939 -0.0655
27065W        W46599  12.760  12.010  14.181 -0.3016  0.0165  0.0330
27066W        W46600  12.406  10.446  11.416 -0.2754  0.0824 -0.1623
27067W        W46601  13.750   7.347   2.390 -0.0426 -0.2938  0.0128
27068W        W46602  13.570   8.764  13.371 -0.0674 -0.4074  0.1158
27069W        W46603  14.917  11.148   2.968  0.0918  0.1991 -0.0490
27070W        W46604  12.043   5.755   2.380  0.0556 -0.3655  0.0136
27071W        W46605  10.678  18.228  11.816 -0.2130 -0.4914  0.1314
27072W        W46606   9.587  19.003  12.742  0.1058  0.0347  0.0988
27073W        W46607   7.191   3.761   1.432 -0.0587  0.0212  0.3331
27074W        W46608  11.809   8.609  14.132 -0.0230 -0.0890 -0.0404
27075W        W46609   5.032   1.327  13.470  0.0293  0.4036 -0.0153
27076W        W46610   4.163  11.852   4.203  0.0254  0.0226 -0.4209
27077W        W46611   5.700   7.007  13.206  0.0045  0.0500 -0.2438
27078W        W46612   7.338   5.470  12.807 -0.2984  0.3340 -0.1828
27079W        W46613   3.100   8.757   2.407 -0.1946 -0.3398  0.1868
27080W        W46614   1.204  12.060  11.000  0.2889  0.1475 -0.2736
27081W        W46615  15.140  16.154   1.193  0.1342  0.2931 -0.0151
27082W        W46616   0.220  18.447   2.992  0.5431 -0.1297 -0.0448
27083W        W46617   8.477  10.345   2.502  0.0157 -0.3228 -0.1047
27084W        W46618  11.664  10.079  11.831  0.1316  0.1777  0.1060
27085W        W46619   1.144   1.925  12.761  0.0440 -0.2854  0.3217
27086W        W46620  15.629  16.828  14.269 -0.1170  0.2365 -0.1893
27087W        W46621   6.277   9.401  11.484  0.2220  0.0393  0.1571
27088W        W46622  10.021   9.632   1.094 -0.1235  0.0981  0.0802
27089W        W46623  15.771   4.954   1.051  0.2334  0.2077  0.0743
27090W        W46624   9.697   4.901  10.432  0.0895  0.2386 -0.1455
27091W        W46625  13.336  13.280  10.639 -0.4311  0.0903  0.1144
27092W        W46626   4.039  13.852  13.071  0.0149 -0.0399 -0.0707
27093W        W46627   7.774   0.252  13.818  0.0779  0.1219  0.0434
27094W        W46628   7.253  14.550   0.534  0.2296 -0.0643 -0.0293
27095W        W46629   0.027   3.024   1.520 -0.0158  0.0434  0.2029
27096W        W46630   0.262  11.154   1.115 -0.1915  0.0297 -0.0309
27097W        W46631  14.131   3.803   0.633  0.0446 -0.0147  0.3384
27098W        W46632   0.147   7.210   0.765  0.2025  0.0096 -0.1544
27099W        W46633  13.071  14.483   9.256  0.0102 -0.3252  0.2262
27100W        W46634   2.574  16.355  13.790  0.1514  0.0651  0.1551
27101W        W46635   7.638  19.396  11.970 -0.1667 -0.1927 -0.0899
27102W        W46636  14.321  10.529   1.182  0.1693 -0.0742  0.1746
27103W        W46637  10.615  17.623   3.973  0.1769 -0.1894 -0.0141
27104W        W46638   0.139  13.246   0.546  0.1591  0.4336 -0.0024
27105W        W46639  17.124  10.995  10.335 -0.1297 -0.1193 -0.0792
27106W        W46640  17.104  10.853   3.955  0.0917  0.0964  0.5507
27107W        W46641   6.518   7.076  13.805 -0.2063  0.1366  0.1463
27108W        W46642   7.569   7.700   1.129 -0.0491 -0.0649  0.3714
27109W        W46643  13.656  14.482   4.427  0.0171 -0.2383  0.0471
27110W        W46644   2.347   0.067  13.177 -0.1905 -0.0259 -0.0746
27111W        W46645   2.807   5.306   3.172  0.2496  0.2644  0.1991
27112W        W46646  12.834  11.965  11.898  0.1478  0.1160  0.0722
27113W        W46647   2.534  11.934   1.496 -0.0556 -0.0392  0.0520
27114W        W46648   2.860   2.202  13.420  0.2142  0.3398 -0.0718
27115W        W46649   0.685  13.452   2.983 -0.0667 -0.1975 -0.1928
27116W        W46650   4.764  13.234   0.601 -0.3174 -0.1181 -0.0677
27117W        W46651   9.011  17.558  12.943 -0.2161  0.1195 -0.0475
27118W        W46652  10.553  14.862   3.251  0.0809  0.1496 -0.0566
27119W        W46653   9.230   7.469   2.943  0.0244  0.0756 -0.0595
27120W        W46654   7.006  12.232   5.275 -0.1636 -0.2739  0.0092
27121W        W46655  11.138   3.362   0.281  0.0618 -0.0147 -0.0369
27122W        W46656   7.166  11.146   0.673 -0.2816  0.1783 -0.1106
27123W        W46657   3.545   3.008   0.555 -0.4952 -0.0210  0.0850
27124W        W46658   9.641   1.557  11.087 -0.1103 -0.0587  0.0701
27125W        W46659  11.342   9.747  11.061  0.0805 -0.0979 -0.0216
27126W        W46660  17.125  18.536   1.468  0.0783 -0.1256  0.2261
27127W        W46661  14.930   1.815   0.198  0.2268 -0.0688  0.0005
27128W        W46662  15.287  14.011   2.788  0.0734  0.1528 -0.0618
27129W        W46663   2.470   8.078  13.943  0.1938  0.1088  0.0882
27130W        W46664  10.927  14.472  12.675 -0.1142  0.1851 -0.2457
27131W        W46665  10.837  18.120  10.795 -0.2733 -0.0980 -0.0952
27132W        W46666   9.288   1.105   0.109  0.1695  0.2548  0.2094
27133W        W46667   3.086   1.191   1.640  0.2611 -0.0327  0.0026
27134W        W46668  15.129  14.360   0.020  0.3246 -0.0987 -0.0176
27135W        W46669   1.915  18.559  13.180 -0.0372 -0.2016 -0.3984
27136W        W46670  12.866   5.857   9.972 -0.1479  0.0239 -0.0544
27137W        W46671   8.898  15.909  12.535  0.1169  0.1026 -0.1157
27138W        W46672  12.447   0.538   2.121  0.0420 -0.1326  0.0263
27139W        W46673   1.714   2.814   1.700  0.1192 -0.2608 -0.1310
27140W        W46674   9.226   1.191  10.007  0.0890  0.2854  0.0803
27141W        W46675   1.450  15.026  10.073 -0.0566  0.4186 -0.3180
27142W        W46676  11.735   0.629  13.022 -0.1443  0.0059  0.1358
27143W        W46677  15.542   9.668  12.209  0.0874 -0.0221  0.1225
27144W        W46678   8.374  16.448  13.079 -0.1652 -0.0617  0.0461
27145W        W46679  11.429   9.298   1.477  0.6365  0.0865  0.4929
27146W        W46680  16.702   1.718   0.704  0.0483 -0.0374  0.4046
27147W        W46681   3.750  17.571  13.181 -0.0512  0.1999  0.0025
27148W        W46682  12.666  15.690   0.996  0.3790 -0.2105  0.0470
27149W        W46683   8.831   0.712   3.099  0.2064  0.2566 -0.0687
27150W        W46684   1.753   0.979  10.849  0.2747  0.2076 -0.2001
27151W        W46685   3.264  14.943  10.429  0.2287  0.5318 -0.1205
27152W        W46686   0.435   1.153   3.422  0.0602 -0.1131  0.1118
27153W        W46687   7.110   1.379   0.870 -0.3056  0.2535  0.0908
27154W        W46688   5.919   8.471   0.565 -0.2919  0.1907 -0.1489
27155W        W46689  13.883  17.807   2.283  0.0980 -0.0580  0.2566
27156W        W46690   6.690   1.385   1.137  0.1403 -0.2473 -0.1301
27157W        W46691  15.541  15.366  14.202  0.3618 -0.2867  0.0650
27158W        W46692  16.823  12.846   3.478 -0.1058 -0.2244  0.0430
27159W        W46693  13.535   6.995   3.233 -0.1187  0.3181 -0.1998
27160W        W46694  12.305  12.294  10.076 -0.0746 -0.3301 -0.1413
27161W        W46695  14.857   7.227   3.816  0.2437 -0.0236  0.1093
27162W        W46696   8.437   3.384  10.894 -0.3768 -0.0464 -0.1453
27163W        W46697  12.403   2.731   1.626  0.0625  0.5109 -0.1482
27164W        W46698  12.356  13.526   3.620 -0.1474  0.1658  0.6200
27165W        W46699   8.981   2.480   3.946  0.0110  0.3917 -0.1058
27166W        W46700   5.351  17.555  14.307  0.1722  0.0875  0.1249
27167W        W46701  11.306  18.441  13.563 -0.0240 -0.0945 -0.1009
27168W        W46702   8.616   5.214   3.073  0.1091  0.2685 -0.0010
27169W        W46703   4.038   5.895  13.575  0.0200  0.2470  0.2558
27170W        W46704   1.227   5.457  13.531 -0.3496  0.0102  0.4164
27171W        W46705   1.063   8.345  13.301  0.0433 -0.0100 -0.3890
27172W        W46706  16.506   9.959  13.682  0.3532 -0.3105  0.1181
27173W        W46707   1.770   5.634  13.700 -0.3953 -0.3588 -0.0206
27174W        W46708   7.088   7.583   1.082  0.1141  0.1833  0.1187
27175W        W46709   7.913   4.590  11.672  0.1147  0.0580  0.2175
27176W        W46710   7.412  19.365  11.112  0.0520  0.0539  0.2570
27177W        W46711  10.407   9.982   2.469  0.1006  0.1862  0.0111
27178W        W46712  17.899   7.806   1.083 -0.0594  0.0266  0.1638
27179W        W46713  17.582   3.728  10.663  0.2260 -0.0687 -0.2256
27180W        W46714  18.504  15.832   2.254  0.2393  0.3170  0.2590
27181W        W46715   9.819  18.414  13.366  0.0250 -0.2368  0.1068
27182W        W46716  10.231   6.513  14.322  0.3409 -0.0108 -0.0643
27183W        W46717  11.709   2.088   0.224  0.2904 -0.1868  0.0154
27184W        W46718  13.130   7.870   4.529  0.0182  0.1240 -0.1759
27185W        W46719   2.650  19.255   2.048 -0.2521  0.0006 -0.1959
27186W        W46720  19.348   4.067  10.247 -0.1438 -0.0283 -0.1458
27187W        W46721   5.518   3.443   4.029  0.0646 -0.2368  0.1486
27188W        W46722   3.571   6.438  11.284 -0.1760  0.3807  0.0344
27189W        W46723   5.308  19.196  11.034  0.1456 -0.1512 -0.0606
27190W        W46724  14.286   8.778   0.645  0.0636  0.3341  0.0426
27191W        W46725  19.449   2.626   1.799  0.1556  0.0050 -0.2252
27192W        W46726  10.480  15.809  13.402  0.0342 -0.3176 -0.1926
27193W        W46727  13.799   5.950  14.194 -0.1475 -0.3544 -0.1238
27194W        W46728   3.572  17.402  10.953 -0.0696 -0.0383 -0.0023
27195W        W46729   0.816  15.559  12.514  0.1662  0.0040 -0.1976
27196W        W46730  15.160   4.331   4.451  0.0283 -0.3243  0.0629
27197W        W46731   0.978   3.514  12.791  0.0291 -0.3188  0.3800
27198W        W46732  18.982   8.054  12.109 -0.1900  0.2014  0.4320
27199W        W46733   2.409  13.330   2.652 -0.3558  0.0323  0.1976
27200W        W46734   2.337  12.974   0.676 -0.1348 -0.0040 -0.1613
27201W        W46735   1.012   5.598   1.015 -0.0253  0.2786 -0.1788
27202W        W46736   7.884   2.524   1.003  0.3321  0.1511 -0.1454
27203W        W46737  18.765  12.871  14.080 -0.0041 -0.0309  0.0142
27204W        W46738   1.944  12.576  13.285 -0.0877  0.1602 -0.1394
27205W        W46739  18.197   0.398   1.494  0.0348  0.2435  0.0944
27206W        W46740   3.076   9.206   3.167  0.2487  0.0940 -0.4014
27207W        W46741  15.489   4.386  11.882  0.2988 -0.2289 -0.1375
27208W        W46742  14.475  16.033  11.431 -0.0005  0.1045 -0.0969
27209W        W46743   5.218  12.132   1.437 -0.0776  0.2252  0.3335
27210W        W46744   5.704  12.326  11.880 -0.0020  0.0592 -0.2393
27211W        W46745   9.238  17.863   1.350  0.0701 -0.1492 -0.0082
27212W        W46746   6.794  10.946   0.377 -0.0574  0.0006  0.0763
27213W        W46747  13.421  10.117   4.257  0.4222 -0.1004 -0.0858
27214W        W46748   7.187  18.632  11.869 -0.6880 -0.1040 -0.0743
27215W        W46749  10.657   3.385   2.725 -0.0597  0.4775  0.2405
27216W        W46750  18.493   7.525   2.372 -0.0624  0.1155 -0.2388
27217W        W46751   3.258   2.511   2.970  0.1489  0.0155  0.2181
27218W        W46752  17.135  18.992  10.346  0.0887  0.1930  0.1331
27219W        W46753  10.977   0.777  10.256  0.2349 -0.3778  0.1661
27220W        W46754   8.226  11.535  10.807  0.0813  0.0364 -0.3108
27221W        W46755  12.794   6.590  11.335  0.0827 -0.4224  0.0333
27222W        W46756   0.432  15.190   2.047 -0.1870 -0.2905  0.0582
27223W        W46757   8.764   5.615   4.100 -0.0282 -0.0889 -0.0680
27224W        W46758  16.775   5.776   3.380  0.0858 -0.3837  0.1405
27225W        W46759  13.285   4.999   3.237 -0.0299  0.3053  0.3603
27226W        W46760   8.890   6.685  14.084  0.4618  0.4594  0.0462
27227W        W46761  16.345   2.735  12.475 -0.4190 -0.4953 -0.1973
27228W        W46762  17.784   7.864  13.410  0.1393 -0.1733 -0.0121
27229W        W46763   7.425   7.024   4.422  0.0871  0.0113  0.2038
27230W        W46764   8.988   4.832   0.811 -0.0892  0.0706  0.1604
27231W        W46765  16.621  12.260  12.498  0.0969  0.4261  0.2372
27232W        W46766   1.995  10.148   3.794 -0.1636  0.1049  0.1418
27233W        W46767   4.172   1.541   3.638 -0.0323 -0.1975 -0.1461
27234W        W46768   1.639   0.876   2.164 -0.2224 -0.0289 -0.0996
27235W        W46769  12.063   2.249   1.065  0.2402 -0.1477 -0.0321
27236W        W46770  13.574   7.204  10.929  0.2900  0.0927 -0.4978
27237W        W46771  11.652  12.174  12.581  0.1472  0.2736 -0.6601
27238W        W46772  17.555   7.599   0.843 -0.1021  0.3770  0.0341
27239W        W46773   6.348   3.876   2.437  0.0700 -0.0364 -0.0751
27240W        W46774  16.981   7.505  11.908 -0.0920  0.1524  0.2083
27241W        W46775   4.557  10.128   3.684  0.0618  0.1245 -0.0455
27242W        W46776   4.208   7.077  12.278  0.2087  0.0682  0.0378
27243W        W46777  13.907   9.833  11.306 -0.0429 -0.0045 -0.2662
27244W        W46778  14.422   5.998   0.405 -0.3482  0.1835  0.1301
27245W        W46779  18.344  16.031   1.600 -0.1191 -0.0718  0.0895
27246W        W46780  13.108  11.042   1.810  0.0533  0.1891  0.0130
27247W        W46781  10.506   2.476   3.570 -0.1937 -0.1731 -0.0285
27248W        W46782   8.305   9.070   0.135 -0.1118 -0.1375 -0.3761
27249W        W46783  18.232  10.356  13.265  0.2259 -0.1931 -0.3769
27250W        W46784  18.948  10.490   2.244  0.1869  0.1380 -0.0028
27251W        W46785  14.163   2.356   2.903 -0.1334  0.0708  0.2297
27252W        W46786  17.311   3.947   2.126 -0.1602 -0.2022 -0.1121
27253W        W46787  17.159  10.674   2.165  0.0185 -0.4009 -0.1620
27254W        W46788  10.961  16.893   0.653 -0.1523 -0.1599 -0.2493
27255W        W46789  16.254   9.197   9.077 -0.0882  0.0359 -0.0427
27256W        W46790  18.186  13.204  10.622  0.0306  0.0693  0.1576
27257W        W46791  11.381   4.395   2.752  0.1866 -0.0096  0.2797
27258W        W46792  10.225  18.037   2.543 -0.0557 -0.0538 -0.1299
27259W        W46793  13.350  17.040   2.078  0.1817  0.1171 -0.1362
27260W        W46794  17.854  18.616   0.367  0.0210 -0.3001 -0.0563
27261W        W46795  13.887  18.515   2.790 -0.1746  0.0270  0.2522
27262W        W46796  16.845  14.811   2.223 -0.4040 -0.2583 -0.0911
27263W        W46797  18.664   7.954   4.127  0.0765 -0.1377 -0.0369
27264W        W46798   5.597   2.982  12.107  0.1009  0.0548 -0.1710
27265W        W46799   1.407  19.482  14.160 -0.1777 -0.0000  0.0406
27266W        W46800   2.258   6.146   3.085 -0.0562  0.0944  0.2410
27267W        W46801   4.824   3.078   3.799  0.3734  0.0460 -0.1447
27268W        W46802  19.208   7.864   1.908 -0.3668 -0.0356 -0.3528
27269W        W46803   0.593   2.716   4.182  0.3687  0.0314 -0.3061
27270W        W46804  13.605   2.587   2.929 -0.1017  0.0234  0.0204
27271W        W46805   8.401  15.188   9.413 -0.0493 -0.0700  0.0307
27272W        W46806   9.390   3.152  12.221 -0.0577  0.0421 -0.0800
27273W        W46807  12.448   7.772  14.139 -0.1232  0.1099 -0.0360
27274W        W46808  13.067  13.533  12.963  0.0816 -0.2065 -0.0961
27275W        W46809   9.877   0.607  11.402 -0.6552 -0.2187  0.0685
27276W        W46810   3.627  10.408   3.939 -0.2636  0.0245 -0.3741
27277W        W46811   9.485   7.350  13.583 -0.1778 -0.1823  0.2025
27278W        W46812   8.361  18.685   0.975  0.2036 -0.1359 -0.2052
27279W        W46813  16.571   7.352  12.257  0.0915 -0.1159  0.4512
27280W        W46814  17.974  10.299   3.853  0.0001  0.2844 -0.1818
27281W        W46815   2.601   5.514  12.939  0.2036 -0.2891  0.0406
27282W        W46816  14.299   3.995  10.391 -0.0256  0.1311  0.0320
27283W        W46817   0.452   0.825   1.398  0.1204 -0.2342  0.3031
27284W        W46818   3.661   0.886   2.041  0.1728  0.2787 -0.2856
27285W        W46819   9.424  16.747   3.850 -0.2566  0.0354  0.3692
27286W        W46820  12.996   7.261  11.408  0.3090  0.0657  0.0633
27287W        W46821  10.865  16.617   0.263  0.2245 -0.2458 -0.3541
27288W        W46822  10.539   4.764  13.997  0.2675  0.1242 -0.0085
27289W        W46823  18.114  13.390   0.820  0.0968 -0.1897 -0.1323
27290W        W46824  19.368  18.485  10.497 -0.1909  0.1485 -0.1140
27291W        W46825  17.581  17.760   0.078 -0.0584 -0.1245  0.2205
27292W        W46826  17.426  12.161   1.658  0.2551  0.0496  0.1615
27293W        W46827  11.738   9.930   2.193  0.0438  0.2984  0.1217
27294W        W46828  18.897   0.247   1.545  0.1816 -0.0242  0.1758
27295W        W46829  19.012  14.296  11.714  0.2165  0.1311  0.3179
27296W        W46830  11.993   7.639   3.390 -0.0929 -0.0313  0.1181
27297W        W46831   5.160   7.909  14.152 -0.1042 -0.3975  0.1668
27298W        W46832   3.216   2.147   4.111 -0.0278  0.2177  0.2516
27299W        W46833   2.404   9.250   2.148  0.1115  0.0664  0.0212
27300W        W46834  16.392   2.759   0.564  0.0344 -0.2622 -0.4030
27301W        W46835   8.621  13.443   0.496  0.3373 -0.2710  0.0596
27302W        W46836  16.275   4.028  11.730  0.4969 -0.2698 -0.1920
27303W        W46837   8.952   5.815   3.644 -0.1898 -0.1843 -0.0105
27304W        W46838  14.108   9.353   0.099  0.1024 -0.2144 -0.0282
27305W        W46839   5.475  13.089   9.567  0.2769  0.0490  0.1493
27306W        W46840  10.255  18.730  13.403 -0.0414 -0.1109 -0.1687
27307W        W46841  18.686   3.060  11.878 -0.0248 -0.0289 -0.0541
27308W        W46842  17.769   2.248  10.517 -0.0534 -0.0501  0.1566
27309W        W46843  18.271   1.025  10.960  0.2501 -0.1255 -0.5666
27310W        W46844  16.550   3.395  10.613  0.1608 -0.0962  0.2284
27311W        W46845   6.983  10.965   1.816 -0.1756  0.1027 -0.1756
27312W        W46846   6.443  18.086   2.731 -0.0900 -0.1819  0.2723
27313W        W46847   6.277   6.256   3.635  0.1739  0.0754  0.2434
27314W        W46848   8.825   7.692   0.140 -0.4507 -0.2407 -0.4129
27315W        W46849   7.039   8.790   4.211 -0.0415 -0.1160  0.1025
27316W        W46850  14.277   3.381  11.138  0.2800  0.2347  0.3499
27317W        W46851  12.647   8.613  11.092  0.2888 -0.1328  0.0623
27318W        W46852  14.334   2.023  10.874 -0.1047  0.1424 -0.3343
27319W        W46853  18.649  17.973   2.396  0.2307 -0.0871  0.2422
27320W        W46854  13.665   6.700  11.905  0.4263  0.0457  0.1703
27321W        W46855   4.433   3.008  12.648 -0.0617  0.0925  0.1581
27322W        W46856  16.455   1.062   3.140  0.0522 -0.0113  0.1143
27323W        W46857   9.767  12.575   1.368 -0.1132  0.1839 -0.0640
27324W        W46858   3.722  10.982  13.019 -0.1351  0.1455  0.0521
27325W        W46859  12.492  13.753  10.353  0.2119 -0.3259 -0.1955
27326W        W46860   2.201   2.490   3.877 -0.0227 -0.0616  0.2451
27327W        W46861  16.537   9.335   2.207 -0.0090  0.3199  0.1893
27328W        W46862   0.050   8.173  14.144 -0.0946  0.2600 -0.0806
27329W        W46863  10.793  10.137  13.575  0.1298  0.3642  0.2339
27330W        W46864   9.723  16.516  10.752 -0.0134  0.0390 -0.1051
27331W        W46865   5.208  18.955   2.552 -0.0719 -0.1322 -0.1610
27332W        W46866   2.626   4.026  13.840 -0.1433  0.1914 -0.2127
27333W        W46867   7.058  16.020   3.737 -0.3104 -0.2788 -0.1479
27334W        W46868   9.994   7.777   3.980 -0.0177 -0.0402 -0.1332
27335W        W46869   0.740  17.310  14.073 -0.4038  0.1701 -0.1483
27336W        W46870   5.747  16.891  12.654  0.1993  0.2650  0.0071
27337W        W46871  10.065   8.723   1.003 -0.1010  0.0469  0.0449
27338W        W46872  19.202   9.595   4.401  0.2448 -0.0921 -0.3229
27339W        W46873  10.606  19.036  12.505 -0.1309 -0.0238  0.1829
27340W        W46874   8.940   0.310  13.324  0.0628  0.3451  0.0238
27341W        W46875   1.116   1.671   1.835  0.1360 -0.0896  0.0586
27342W        W46876   0.534  13.583  13.119 -0.2188  0.2274  0.2152
27343W        W46877   8.329   6.626  14.084  0.0230 -0.2040  0.1880
27344W        W46878   1.074   6.873   2.274 -0.1725 -0.0090  0.0057
27345W        W46879   2.827  14.742  10.301 -0.0936  0.0199 -0.3999
27346W        W46880   3.462   8.901   1.610 -0.0685 -0.1292 -0.3424
27347W        W46881   9.191  16.449  10.071 -0.0158 -0.0546  0.0937
27348W        W46882  17.261   3.398   0.390 -0.0436 -0.0295 -0.1943
27349W        W46883   2.475   0.681  11.184  0.0530  0.0935  0.0092
27350W        W46884   2.547  13.389  12.378  0.3593 -0.2057 -0.0837
27351W        W46885   7.680  17.190  11.963  0.0598 -0.1082 -0.0884
27352W        W46886   2.684  17.510   3.761 -0.0758 -0.0507  0.0791
27353W        W46887   6.942  14.619  13.107  0.0008 -0.2374  0.3201
27354W        W46888   5.886  14.897  14.050  0.0683 -0.1352  0.0244
27355W        W46889   1.807   9.431   0.601  0.0386  0.3062 -0.2007
27356W        W46890  16.987   1.256   1.837 -0.1192 -0.1725  0.2641
27357W        W46891   1.762   5.027   1.115 -0.2258  0.1694  0.1811
27358W        W46892   9.315   1.541   3.040 -0.2548 -0.2077  0.1957
27359W        W46893  17.213   1.058   0.558  0.0930 -0.1808 -0.0172
27360W        W46894  13.918   6.479  13.417 -0.3800  0.1436  0.1530
27361W        W46895  11.814  17.784  12.097 -0.2239 -0.2971  0.0535
27362W        W46896  17.620   4.417  13.174  0.0518  0.1587 -0.0874
27363W        W46897   5.589  17.673   1.521 -0.1566 -0.0911 -0.0820
27364W        W46898  11.699   1.366   1.004  0.2613  0.2716 -0.4250
27365W        W46899  14.697   2.592  11.127  0.2303  0.0681  0.0365
27366W        W46900  19.467   3.157   2.854  0.3069  0.0806 -0.3153
27367W        W46901  14.215  18.685   2.326 -0.1646 -0.0033 -0.0802
27368W        W46902   0.066   3.697  14.134 -0.0150 -0.1490 -0.0116
27369W        W46903  16.745   0.432   2.256 -0.0307 -0.2048 -0.1690
27370W        W46904  13.909  12.637  13.884  0.3342 -0.0342 -0.2106
27371W        W46905   2.357  11.759   0.897 -0.1352  0.2256 -0.0288
27372W        W46906   3.668   5.438   2.044  0.2299 -0.2170 -0.3567
27373W        W46907   2.597  16.568   2.494 -0.1123  0.1465 -0.0686
27374W        W46908   9.330  14.489   1.261 -0.0327 -0.1386 -0.1406
27375W        W46909   2.272  10.675   3.420  0.2273  0.2125 -0.1438
27376W        W46910   2.025   7.889  13.500  0.0800 -0.0978 -0.0709
27377W        W46911  10.541  11.198   0.250  0.1881  0.0289 -0.2777
27378W        W46912   6.703   2.340  13.151 -0.4718 -0.2247  0.2710
27379W        W46913  11.985   6.907  14.002  0.0009 -0.1482  0.0102
27380W        W46914   1.603   1.784   1.869  0.0977  0.1101 -0.0120
27381W        W46915  13.578   5.997   3.871 -0.1804  0.0514  0.0531
27382W        W46916  16.303   7.506   0.201 -0.2515  0.4422 -0.0289
27383W        W46917  17.844   8.379   4.062 -0.2076 -0.0865  0.1622
27384W        W46918   9.820  19.127  12.262 -0.2641 -0.0859  0.1979
27385W        W46919   6.540   6.350  12.743  0.1095  0.0715 -0.1296
27386W        W46920   8.820  10.988   0.787  0.2748 -0.1126  0.0257
27387W        W46921  14.394   1.911   2.195  0.0138 -0.0477  0.4499
27388W        W46922   1.650   6.388   4.026  0.1279  0.0176  0.0564
27389W        W46923   7.963  14.152   1.586  0.2016 -0.0096  0.2049
27390W        W46924   4.613   9.524   0.639 -0.0403 -0.0602  0.3511
27391W        W46925   9.459  10.121  11.086  0.1034 -0.1815  0.1446
27392W        W46926   3.128   3.874  14.003 -0.2043  0.1336 -0.2417
27393W        W46927   1.697  11.105  13.797 -0.3493 -0.0783 -0.0802
27394W        W46928   9.443  12.241   0.582 -0.0767 -0.1290  0.1762
27395W        W46929  19.516  14.413  13.651  0.1894 -0.0802 -0.0650
27396W        W46930   5.197   6.619  11.835 -0.1861 -0.1576 -0.0356
27397W        W46931  17.317  18.057  10.987  0.0156  0.0555 -0.1248
27398W        W46932  15.692   6.634  10.411 -0.1552  0.4050  0.1839
27399W        W46933   4.592  16.419   2.544 -0.0343  0.0037 -0.0745
27400W        W46934   3.259  15.454  10.430  0.3083  0.2012 -0.2389
27401W        W46935  11.528  10.127  11.371 -0.0111  0.0303 -0.0558
27402W        W46936   0.931   9.768  12.267  0.1965  0.0085 -0.1759
27403W        W46937  15.457   5.781  12.593  0.2119  0.1041 -0.0315
27404W        W46938  18.039  15.022   8.611  0.0941  0.0852 -0.2222
27405W        W46939  12.874  12.555   3.939 -0.1719 -0.0051 -0.1883
27406W        W46940  18.180  16.300  13.885  0.3253 -0.0029  0.1580
27407W        W46941  11.724   3.752  12.880 -0.0560  0.3600  0.2423
27408W        W46942  12.825  14.692   3.860 -0.1811 -0.0173  0.2547
27409W        W46943  11.321  11.086   3.369  0.0156  0.1403 -0.1584
27410W        W46944   6.944   2.209  12.321  0.0097 -0.2095  0.1491
27411W        W46945   0.441   9.695  11.263  0.0512  0.0050  0.0851
27412W        W46946  11.757   0.796  10.812  0.1351 -0.3880  0.4293
27413W        W46947   1.950   6.175   3.553  0.2780  0.0183  0.3922
27414W        W46948  13.801   2.556   4.354 -0.0605  0.0871  0.0194
27415W        W46949   7.196  16.597  11.516 -0.0185  0.1331  0.1071
27416W        W46950   3.092   4.606  12.745  0.2056  0.0867  0.0920
27417W        W46951   5.147  15.497   1.558  0.1604 -0.0762  0.1013
27418W        W46952   4.602   1.005   5.123 -0.1946  0.0004 -0.3043
27419W        W46953  19.419   9.459   0.869 -0.0361  0.0592  0.0496
27420W        W46954  15.876   0.433   3.176  0.0245  0.1062 -0.1253
27421W        W46955  19.341   2.473   1.230 -0.0230 -0.0749 -0.0884
27422W        W46956   4.646   2.576   9.356 -0.2702  0.3056  0.0858
27423W        W46957  14.537  10.111  12.578 -0.1689  0.3249 -0.1255
27424W        W46958  19.470   3.657  11.714 -0.0263 -0.1074  0.3108
27425W        W46959   7.692  17.258  14.242  0.0178  0.3152  0.0341
27426W        W46960  12.871  10.572   4.027  0.5384 -0.0974  0.0737
27427W        W46961   8.260   5.689   4.178  0.1075 -0.0982 -0.1751
27428W        W46962   0.050   1.803  11.229  0.0187 -0.1141  0.2914
27429W        W46963   3.917   6.557   2.957  0.0888  0.0628  0.2114
27430W        W46964  15.369   3.163   1.828  0.1270  0.0489  0.1446
27431W        W46965   2.504  11.050  12.873 -0.0733  0.0339  0.1647
27432W        W46966   1.320   3.134  12.107  0.0024 -0.2104  0.4646
27433W        W46967  12.092   2.430  14.332  0.0838  0.0255  0.1048
27434W        W46968   1.217  15.852  12.231 -0.0370  0.2237  0.4960
27435W        W46969  14.515  14.485   3.340  0.2357 -0.0846 -0.6454
27436W        W46970   5.855   3.213   3.669 -0.0910 -0.1661  0.1876
27437W        W46971  11.517  11.622   4.411 -0.1636 -0.0504  0.0553
27438W        W46972   4.606   8.643   3.552  0.0559  0.1487  0.1765
27439W        W46973  13.272  15.220   1.838  0.0662  0.2878  0.1782
27440W        W46974   1.654   5.060  10.716 -0.0895 -0.0698 -0.1627
27441W        W46975   3.147   2.651  13.200  0.0426 -0.2577  0.0586
27442W        W46976   1.792   7.361   0.194 -0.1196  0.2679 -0.3696
27443W        W46977   7.421   2.878  14.120  0.0987  0.1102 -0.1005
27444W        W46978   3.962  15.723   3.146 -0.2280 -0.0179 -0.0854
27445W        W46979   9.709   9.174   3.565  0.0651  0.4641  0.0598
27446W        W46980   3.246   4.691   0.687  0.0862 -0.0681  0.1669
27447W        W46981  11.583  15.923   0.142  0.0772  0.2985  0.2688
27448W        W46982  14.155   7.499   0.840 -0.3969  0.0153 -0.1265
27449W        W46983   6.631   4.719  11.719 -0.5015  0.1937 -0.0447
27450W        W46984  18.395  14.551  13.127 -0.1695  0.2800  0.2618
27451W        W46985   9.138   8.505  13.876 -0.2027 -0.2538  0.0623
27452W        W46986  12.966  15.146   0.734  0.0527  0.0007  0.0138
27453W        W46987   2.728   9.803   5.353 -0.0166 -0.0100  0.1067
27454W        W46988  14.031   4.873  11.330 -0.1358 -0.1850 -0.1607
27455W        W46989   0.249  13.951  12.421  0.5551  0.2485  0.1837
27456W        W46990   4.302   7.683   4.112  0.0519  0.2078 -0.0437
27457W        W46991  12.634  18.673  10.365  0.0022  0.1077 -0.0801
27458W        W46992  13.857  15.248   2.286 -0.1091 -0.2416  0.0344
27459W        W46993  11.762  19.165   3.449  0.0092  0.1857  0.1335
27460W        W46994  15.717   0.860   1.450  0.3215  0.1500  0.3053
27461W        W46995   6.268   0.860  11.341 -0.0904  0.2588  0.1614
27462W        W46996  17.219  17.096  10.701  0.0156  0.1380 -0.1416
27463W        W46997  11.601   0.589   0.858  0.0461 -0.1954 -0.2631
27464W        W46998  18.541  13.753   1.519  0.0201  0.0921 -0.1675
27465W        W46999   5.646  14.119   3.752 -0.2443  0.2556 -0.4512
27466W        W47000  14.341   3.430  14.105 -0.1774 -0.1787 -0.0196
27467W        W47001  13.935   0.705  12.738 -0.0356  0.1184 -0.0469
27468W        W47002  14.579   0.731  12.270 -0.1169  0.5254 -0.0588
27469W        W47003   5.999  17.344   2.108 -0.1597 -0.0512  0.1339
27470W        W47004   3.113  18.577   0.984 -0.2395 -0.0841 -0.0340
27471W        W47005   0.019  14.747   3.168  0.4173  0.1501  0.0654
27472W        W47006   1.874   8.376   1.105  0.3248 -0.0184  0.0869
27473W        W47007  12.081   4.269  14.199  0.1965  0.1027 -0.3252
27474W        W47008   4.356  16.171   3.788 -0.3840  0.2327  0.0200
27475W        W47009   2.238  13.324  13.212 -0.2654  0.1938  0.2716
27476W        W47010   7.651   8.779  10.898 -0.0650 -0.1044  0.1218
27477W        W47011   2.839   2.129   1.172 -0.1976  0.1275  0.0969
27478W        W47012  17.265   2.125  13.376  0.0005 -0.3832 -0.0066
27479W        W47013  11.156   8.364  10.804  0.3033  0.2479  0.0214
27480W        W47014   2.696  10.948  10.480 -0.1207 -0.2897 -0.2438
27481W        W47015   2.773  14.574   1.578  0.1922  0.0021 -0.0755
27482W        W47016   5.118   8.169  10.568  0.0083 -0.1124  0.1108
27483W        W47017  15.273   9.315  11.894 -0.4361 -0.0729 -0.0379
27484W        W47018   2.035   4.409   2.548 -0.4619  0.3045  0.1755
27485W        W47019  13.807  13.141  14.104  0.2050 -0.3208 -0.1713
27486W        W47020  17.315  16.100  14.199 -0.2219  0.2598 -0.3169
27487W        W47021  14.563  14.664   0.607 -0.2033 -0.1565  0.1585
27488W        W47022   0.651  18.999  11.827  0.2891  0.1791 -0.2057
27489W        W47023  15.840  18.828  13.456 -0.0762  0.3031  0.2142
27490W        W47024   0.583   5.005   3.735 -0.2537 -0.1545 -0.0157
27491W        W47025  11.623  11.515  13.935 -0.2053  0.0771  0.1182
27492W        W47026  12.675   5.600   0.686 -0.1921 -0.0519 -0.0348
27493W        W47027   5.331  12.532   0.423 -0.2567  0.1477  0.1138
27494W        W47028   4.447   9.107  13.797  0.0233 -0.1180 -0.1502
27495W        W47029   5.384  18.736   4.521 -0.2208 -0.2187 -0.3883
27496W        W47030   0.484   9.051   3.397 -0.1434 -0.1862 -0.1099
27497W        W47031  17.041  12.017   2.468 -0.2221 -0.0070  0.2171
27498W        W47032   7.689  15.641  13.858  0.2146 -0.2908 -0.3054
27499W        W47033   7.502   6.428   0.003 -0.1531 -0.0981 -0.1125
27500W        W47034  10.666  19.458   1.647 -0.0612 -0.0429 -0.2682
27501W        W47035   5.918   8.836  11.072  0.0633 -0.0420 -0.1947
27502W        W47036  17.075  16.486  12.804 -0.1658  0.2306  0.1203
27503W        W47037  10.248  10.050  13.468 -0.0029 -0.1995 -0.0016
27504W        W47038  12.746  15.241   1.209  0.3682  0.0114 -0.0049
27505W        W47039  11.472   5.274  11.275 -0.0665 -0.1373  0.0819
27506W        W47040  16.330   5.066   1.196  0.0721 -0.1096  0.1877
27507W        W47041  10.773   3.303  13.119 -0.0872  0.1873  0.0230
27508W        W47042  16.064   3.267  14.269  0.0574 -0.0353  0.3178
27509W        W47043   7.670   0.597  13.532 -0.0340  0.0332  0.5245
27510W        W47044   3.525  12.652   0.224 -0.3391 -0.1149 -0.0121
27511W        W47045   1.031   3.431   0.026 -0.2605  0.2060 -0.1234
27512W        W47046  10.694  16.353   1.306 -0.0253 -0.0039 -0.1060
27513W        W47047   6.896  18.488   3.562 -0.0159 -0.1095  0.3930
27514W        W47048  14.666  13.631  10.833 -0.1806  0.1814 -0.0400
27515W        W47049  10.752  15.242  11.734 -0.2208  0.2131  0.0586
27516W        W47050   1.228  18.728   3.178 -0.1810  0.2725 -0.3043
27517W        W47051  18.685  16.501   0.794  0.1319  0.1170  0.1202
27518W        W47052  17.929  10.761  13.574  0.3035 -0.1412 -0.1975
27519W        W47053   1.967   5.363   1.925 -0.0092  0.1830 -0.1620
27520W        W47054  14.399   5.098  10.891  0.0101 -0.0099 -0.0317
27521W        W47055   6.050  15.448  13.970  0.0524 -0.2042  0.2933
27522W        W47056   6.822  12.565   2.359  0.2720  0.4932 -0.2881
27523W        W47057  18.187   7.284  12.991 -0.2263  0.1213 -0.2834
27524W        W47058   8.970   4.366   3.993  0.2671 -0.1576 -0.0635
27525W        W47059  11.422   1.987  12.307 -0.2340 -0.0292 -0.0817
27526W        W47060   3.962   9.511   1.498 -0.1933  0.1013 -0.0949
27527W        W47061  18.774   8.333  12.698  0.5026 -0.2744 -0.2049
27528W        W47062  14.134   9.940  10.598 -0.1821 -0.1137  0.3321
27529W        W47063  15.008  10.980  11.965 -0.0139 -0.1287  0.1754
27530W        W47064   2.789  14.309  12.616 -0.0541  0.1560 -0.3913
27531W        W47065  16.366  15.580   3.715 -0.0907 -0.1800 -0.1058
27532W        W47066  10.609   8.696   0.716 -0.1305  0.0189  0.4381
27533W        W47067  13.827   0.781   3.163 -0.2601 -0.1637 -0.1403
27534W        W47068   6.359  15.735   4.126  0.0166  0.1598 -0.3208
27535W        W47069  13.963  13.756   2.325  0.0798 -0.0146  0.0057
27536W        W47070  15.248   3.411   2.682 -0.2446  0.0653 -0.1005
27537W        W47071   4.876  19.426   4.115  0.3155 -0.3568 -0.0121
27538W        W47072   0.625  11.927   0.183 -0.2008 -0.2282  0.2343
27539W        W47073  18.804  15.938   1.831  0.0871 -0.1238  0.1219
27540W        W47074   5.507   8.304  12.150  0.1883 -0.2978  0.1639
27541W        W47075   9.335  17.784   0.036 -0.0611  0.0364 -0.0859
27542W        W47076  14.624  15.097   3.943  0.2041 -0.2202 -0.0987
27543W        W47077  13.299  16.202   3.876 -0.0410 -0.0975  0.2860
27544W        W47078  13.158   2.613  10.799  0.2417 -0.0593 -0.0335
27545W        W47079  11.237   7.019   1.399  0.0951  0.2131  0.1500
27546W        W47080   5.709   3.509  12.254 -0.1069  0.0460 -0.0609
27547W        W47081  12.429   7.214   2.666  0.1998 -0.1022  0.2255
27548W        W47082  13.685  15.601  10.764 -0.1844  0.1355  0.1876
27549W        W47083   3.718   0.510   1.247 -0.1939  0.1045 -0.2127
27550W        W47084  12.559  10.906  13.571 -0.0676  0.3645  0.2714
27551W        W47085   6.089  14.115  13.375 -0.0752  0.1323  0.1265
27552W        W47086   3.000  16.822   3.409 -0.0078  0.1655  0.0906
27553W        W47087   3.917  16.774  11.475 -0.0582  0.1101  0.2027
27554W        W47088   6.714   0.060  12.500  0.1431  0.2466  0.1081
27555W        W47089  10.452   8.190   2.811 -0.4162 -0.2340 -0.1625
27556W        W47090   9.179  18.552   3.682 -0.2434  0.2215  0.1900
27557W        W47091   5.464   2.192   9.907  0.0848 -0.0616  0.0420
27558W        W47092   3.568  10.788  13.961  0.1794 -0.0566 -0.0291
27559W        W47093  10.784  13.525   0.867 -0.3148  0.1730  0.1116
27560W        W47094  13.971   7.034  11.231  0.0422 -0.2140  0.1851
27561W        W47095   8.772   0.945   4.060 -0.2350  0.0008  0.0300
27562W        W47096  13.105  17.577  14.277 -0.0339  0.1116  0.0688
27563W        W47097   5.949   4.207  11.628 -0.4046 -0.0312  0.2628
27564W        W47098  12.991   3.998  10.258  0.3133  0.3154  0.3035
27565W        W47099  18.633  15.162  10.711  0.0255 -0.0907 -0.0273
27566W        W47100   4.517   6.044   3.742  0.1483  0.0098  0.0841
27567W        W47101   0.408   4.415  12.962 -0.4415 -0.0748  0.2892
27568W        W47102   0.460  17.235  10.407 -0.1187  0.2477 -0.1112
27569W        W47103  15.433  16.172  12.494 -0.0525  0.1183 -0.1198
27570W        W47104   6.979  15.463   9.826  0.0305  0.0936 -0.1261
27571W        W47105   8.696  18.072   3.117  0.0943  0.1982 -0.1203
27572W        W47106  18.977  16.519  13.058 -0.2125 -0.1253  0.1093
27573W        W47107   1.708   9.996   3.322  0.0062 -0.2902  0.0721
27574W        W47108  19.196   6.675   3.012 -0.1036 -0.0073  0.1143
27575W        W47109   3.360  14.969  14.116 -0.0090  0.1475 -0.0023
27576W        W47110   2.888   6.858   3.986  0.0092 -0.1329 -0.2386
27577W        W47111   1.774   7.526   3.426  0.2267 -0.0821  0.2377
27578W        W47112  10.723  13.835   2.301  0.1186  0.0523  0.0196
27579W        W47113   5.261  18.551  12.742 -0.0137 -0.2961  0.0749
27580W        W47114  12.834  15.773   0.016  0.0239  0.1040  0.0351
27581W        W47115   3.166  12.953   0.083  0.1593  0.1864 -0.0905
27582W        W47116  11.388   5.423   2.843  0.0504 -0.1488  0.0649
27583W        W47117   2.897  18.709   1.884 -0.0728  0.1615  0.4126
27584W        W47118   2.166   1.578  10.300 -0.2007 -0.1148  0.0253
27585W        W47119  10.457   3.109  13.938 -0.0709  0.0673  0.3789
27586W        W47120   6.653  19.464   3.853  0.2727 -0.1178 -0.0321
27587W        W47121   3.169  18.802  10.166  0.2272  0.2117 -0.0563
27588W        W47122   1.203   6.678   3.587  0.2034  0.1522  0.0207
27589W        W47123  12.089   7.057  12.960 -0.0037 -0.1362  0.1743
27590W        W47124   3.259   7.434  13.247  0.2404 -0.1199  0.0601
27591W        W47125  10.860  13.283   4.023  0.3589  0.3348  0.2580
27592W        W47126  13.672  18.243   3.676  0.1298  0.1108  0.2410
27593W        W47127   6.495   8.650   1.116 -0.1385 -0.2750 -0.1549
27594W        W47128   3.475  12.129  12.537  0.0611  0.2554  0.0491
27595W        W47129  12.699   5.253  11.390  0.0902  0.1849 -0.0390
27596W        W47130   0.363  12.934  13.562  0.3970  0.0736 -0.2193
27597W        W47131   1.229  14.270   2.612 -0.2071  0.0157  0.0843
27598W        W47132   4.929   3.754   2.436 -0.4510 -0.1319  0.1149
27599W        W47133  17.648   5.907  13.466 -0.3919  0.1902  0.0496
27600W        W47134  15.168   7.647  10.684 -0.0274  0.1479  0.1710
27601W        W47135  17.808   4.626   4.743 -0.0449  0.1865 -0.0898
27602W        W47136  11.417   3.900   2.491  0.0501 -0.0064  0.2362
27603W        W47137   5.098   9.301   0.580 -0.0257  0.0086 -0.2426
27604W        W47138   1.500  18.270   3.256  0.1406 -0.2178 -0.1481
27605W        W47139   0.075   9.171  12.605  0.0581  0.3946  0.1877
27606W        W47140   7.419   5.405   0.954  0.0331  0.0755  0.0391
27607W        W47141   1.952   2.981  13.014  0.0072  0.2103  0.1842
27608W        W47142   7.456  11.194   9.754 -0.0481  0.0600 -0.0515
27609W        W47143  17.242   6.198   3.515 -0.2442  0.2765 -0.0994
27610W        W47144  14.808   4.544   1.974  0.4618 -0.0732 -0.2149
27611W        W47145  16.050  12.421  10.337 -0.3015  0.0202  0.0294
27612W        W47146   4.939   2.596   3.541 -0.0166  0.0554 -0.3105
27613W        W47147   1.984   5.531  10.837 -0.1994 -0.1861  0.1125
27614W        W47148  13.181   1.328   3.374 -0.2342  0.0095 -0.1733
27615W        W47149  13.802  14.328   2.212  0.0516 -0.0469  0.2416
27616W        W47150  16.959   5.416  13.970  0.1492  0.3810 -0.2659
27617W        W47151  12.090   8.259   1.970 -0.1832  0.4127  0.1275
27618W        W47152   8.361  12.970   1.482  0.2073 -0.1028  0.2679
27619W        W47153  12.462   8.362  11.514  0.1185  0.0322 -0.1970
27620W        W47154  10.032  10.652   1.437  0.0456  0.2148 -0.1535
27621W        W47155  14.107  18.933  12.059  0.1178 -0.4745  0.0815
27622W        W47156   8.075  11.288   4.020 -0.0947  0.0978  0.3801
27623W        W47157  17.269   0.540  12.298 -0.0927 -0.0873 -0.1158
27624W        W47158  18.794   1.193   4.042  0.0506 -0.2340 -0.2415
27625W        W47159   7.031   7.160  10.799  0.1483  0.1071 -0.2921
27626W        W47160   8.846   7.538  13.250  0.0214 -0.3936 -0.0693
27627W        W47161  16.199   9.903   3.207 -0.0831  0.1281 -0.0087
27628W        W47162  12.080  18.995  12.641  0.1444  0.5031 -0.4892
27629W        W47163  11.979   0.080  10.649 -0.2539 -0.0530  0.1055
27630W        W47164   9.542   4.048   1.796 -0.0168 -0.1045 -0.0936
27631W        W47165  15.656   7.646  12.798 -0.0620 -0.2786 -0.2411
27632W        W47166   8.827   7.053  11.836 -0.0002 -0.2109  0.2101
27633W        W47167  18.611   7.066  10.240  0.2607 -0.0874  0.1838
27634W        W47168  15.471  13.114   3.247  0.1380  0.2109  0.0101
27635W        W47169  17.099   1.171  10.650 -0.1706  0.4199 -0.1078
27636W        W47170  10.098  14.982  11.034  0.1489 -0.2712 -0.0004
27637W        W47171  15.884  11.624  12.023  0.0061  0.0949 -0.0650
27638W        W47172   5.626  14.485  12.347 -0.1537 -0.3344  0.1338
27639W        W47173  17.414   5.845  10.745 -0.3255 -0.3063  0.1496
27640W        W47174  18.774  18.520   0.468 -0.0423  0.1490  0.3505
27641W        W47175   5.726   9.060  11.487  0.0694  0.1149  0.1356
27642W        W47176   5.291  13.289  12.698 -0.1904 -0.1482  0.2263
27643W        W47177   1.471  11.432   3.700  0.3202 -0.0905  0.0881
27644W        W47178  14.617  19.065   4.076 -0.3414 -0.0077  0.1464
27645W        W47179  15.949  17.976   0.639 -0.0331 -0.0945  0.4742
27646W        W47180   0.521   1.357   1.375 -0.0734  0.2817 -0.0071
27647W        W47181   8.342   5.895   2.901  0.4800  0.0433 -0.0643
27648W        W47182  17.581  16.552  12.803  0.2973 -0.0659 -0.0433
27649W        W47183   9.123  11.031  14.377  0.0887 -0.2724 -0.0332
27650W        W47184  12.946   2.423  12.535  0.0494  0.0469 -0.1098
27651W        W47185  11.010   9.025  14.367  0.1967  0.0785 -0.0142
27652W        W47186  18.551  12.636   3.699 -0.1691  0.0456 -0.0888
27653W        W47187  14.352  18.016  12.323  0.0063 -0.0514 -0.2496
27654W        W47188   1.550   3.135   3.439  0.1474  0.2387 -0.0969
27655W        W47189   1.225   5.598  12.997  0.1946  0.0120 -0.0778
27656W        W47190  13.089  15.681   1.963  0.1613 -0.1169  0.0483
27657W        W47191   3.013  17.456  10.629 -0.0013  0.1856 -0.0650
27658W        W47192  15.909  15.214   1.751 -0.3071 -0.1647 -0.3462
27659W        W47193  12.614  13.126  12.761  0.2212  0.0743 -0.0457
27660W        W47194  12.338   3.572   3.100 -0.1276  0.2145  0.1654
27661W        W47195   4.996  10.465   0.472  0.2392 -0.0775  0.1331
27662W        W47196  17.878  10.419   2.983  0.0128 -0.1351 -0.2733
27663W        W47197   0.690  17.586   1.009  0.0634  0.2443 -0.3719
27664W        W47198   2.381  19.209  10.107  0.2293 -0.1585  0.0828
27665W        W47199   3.993   6.756  11.877  0.0400  0.3289  0.1648
27666W        W47200  12.083   9.448  11.838 -0.1093 -0.0921 -0.0870
27667W        W47201   3.209   0.505  11.042 -0.0514  0.3728 -0.1547
27668W        W47202   9.527   1.926   2.773  0.1373 -0.2084 -0.2255
27669W        W47203  12.968  15.272   2.229  0.0049 -0.0270 -0.3559
27670W        W47204   1.564  16.744  11.835  0.0384 -0.3406  0.0194
27671W        W47205   3.199   7.004   0.841  0.0347 -0.0558  0.1524
27672W        W47206  18.720   4.614  13.638  0.2761  0.1605  0.0542
27673W        W47207   6.198   9.345   0.100  0.1381  0.0424  0.0637
27674W        W47208   0.076   9.055   3.707 -0.2670  0.0079 -0.1485
27675W        W47209   9.323   4.625  13.289 -0.3094  0.1486 -0.2935
27676W        W47210   2.580   9.630   0.195  0.1406 -0.4358  0.0702
27677W        W47211   3.000  14.935   2.418 -0.0352  0.2149 -0.0793
27678W        W47212  13.362   4.148  11.715  0.1203  0.0331 -0.2394
27679W        W47213   0.169   6.704   0.861  0.0362  0.0841  0.1002
27680W        W47214  14.687   0.422  12.734  0.0046 -0.4625  0.0051
27681W        W47215  16.146   6.618   1.981 -0.0202 -0.2611  0.1252
27682W        W47216  12.865   8.043   0.749 -0.0683  0.0128 -0.1324
27683W        W47217  17.252   7.252  13.967 -0.0625 -0.1351  0.1328
27684W        W47218  17.984  18.175  10.379  0.1622 -0.0667  0.2114
27685W        W47219   9.948  19.425  11.230  0.2172  0.1141  0.1365
27686W        W47220  12.366  13.585   1.638 -0.1080  0.0620  0.1144
27687W        W47221  14.619  12.205  11.202  0.1516  0.1584 -0.3354
27688W        W47222  15.550  18.936  12.067 -0.0880 -0.3037  0.0322
27689W        W47223  12.703   6.727  10.839 -0.0069  0.1815 -0.2110
27690W        W47224   7.945  10.985   1.289 -0.0617  0.3509 -0.4588
27691W        W47225  18.419   1.622   2.287 -0.1246 -0.0201 -0.0823
27692W        W47226  18.110  18.279   3.011 -0.2326 -0.2456  0.0372
27693W        W47227  11.281  19.479  10.085  0.0755  0.2750 -0.1470
27694W        W47228   3.420   5.842   1.906 -0.0218 -0.0686  0.3418
27695W        W47229  19.140  18.401   3.845 -0.2446 -0.0031  0.3333
27696W        W47230   5.684  11.008   2.680  0.1133 -0.0998 -0.1150
27697W        W47231  15.701   8.883   2.183  0.1765 -0.0775  0.2227
27698W        W47232   0.621  10.338   0.082 -0.0781 -0.0623 -0.2711
27699W        W47233   3.369  19.024   0.203  0.2244 -0.0673  0.2089
27700W        W47234   2.962   6.964   3.089  0.1034  0.2262  0.0019
27701W        W47235  16.217   1.047   3.851 -0.1139 -0.1281 -0.0509
27702W        W47236  14.634  11.409   1.443 -0.1058 -0.0101 -0.1490
27703W        W47237  13.219  17.039  10.015 -0.2387  0.0338  0.2165
27704W        W47238  14.292   3.549   2.573  0.0242  0.1614  0.1794
27705W        W47239  12.245  15.749   3.850 -0.1413 -0.0605 -0.3372
27706W        W47240  14.229   4.373   0.383  0.2256  0.1956 -0.1016
27707W        W47241   1.539  10.034  13.470  0.2787 -0.1537  0.2415
27708W        W47242   5.191  17.908   1.436  0.0056 -0.0612 -0.1442
27709W        W47243   3.967   8.360  10.510  0.0778 -0.1845  0.0726
27710W        W47244   7.297  15.967   1.999  0.1702 -0.0733 -0.0339
27711W        W47245  16.163   5.189   0.687 -0.0777 -0.2058  0.1725
27712W        W47246   1.534  10.019  13.962 -0.0764 -0.0164 -0.1763
27713W        W47247   7.241  14.765   2.216  0.2610  0.1702  0.1756
27714W        W47248  10.951   5.581   2.021  0.1601 -0.0643 -0.1762
27715W        W47249  13.668   8.545  14.176  0.0861  0.0857 -0.1596
27716W        W47250   4.926  12.141   4.365 -0.1274 -0.1231 -0.4124
27717W        W47251  16.697  17.355   3.573  0.3806 -0.3670 -0.0776
27718W        W47252   5.351  11.531  11.018 -0.3323 -0.4689 -0.0762
27719W        W47253  10.665   2.773  11.292 -0.2410  0.0394  0.0135
27720W        W47254  15.656  12.192  10.575 -0.0489 -0.1461 -0.2434
27721W        W47255  10.982  13.502  10.863  0.0091 -0.2006 -0.4216
27722W        W47256  14.630  17.646  10.194  0.0147 -0.0588  0.1227
27723W        W47257   4.876  13.140   1.409  0.0244 -0.0118  0.2538
27724W        W47258   5.818   3.017   2.879  0.4437 -0.1417 -0.0647
27725W        W47259  13.050  14.497   1.213  0.2169  0.3994  0.0373
27726W        W47260   9.682  11.529   1.962  0.4066  0.0683 -0.1225
27727W        W47261  10.351   7.403  12.283  0.0694  0.3136  0.2118
27728W        W47262   7.846   4.114  11.253  0.1312  0.1841  0.3126
27729W        W47263   4.647  10.368   0.109  0.0695  0.1537 -0.0884
27730W        W47264   6.354  17.395   2.994 -0.1234  0.0171  0.1062
27731W        W47265   0.965  12.360  10.695 -0.0159  0.1761 -0.0004
27732W        W47266  10.787  11.867  14.349  0.1148  0.0549  0.3839
27733W        W47267   3.478   7.265  11.276  0.0686 -0.0927  0.1272
27734W        W47268  15.740  13.085  14.256 -0.0766  0.1316  0.2466
27735W        W47269  13.319  14.600  14.079 -0.0243  0.2877  0.1687
27736W        W47270  12.198  11.622   1.668  0.1319  0.2265  0.0881
27737W        W47271   9.458  14.147   2.576 -0.0056 -0.1018 -0.0345
27738W        W47272   4.406   8.055   1.939 -0.0471 -0.1164  0.3041
27739W        W47273  12.160   0.674   0.897 -0.1899  0.0674 -0.0544
27740W        W47274  17.172   1.444  11.769 -0.0627  0.0347  0.0041
27741W        W47275  10.659  18.165  12.315  0.0519 -0.1605  0.0338
27742W        W47276   6.275   8.111   3.386 -0.2228  0.2086  0.2259
27743W        W47277   5.805   2.962   4.074 -0.3054  0.1554  0.0785
27744W        W47278  19.328   8.782   5.502 -0.0075  0.0893 -0.0572
27745W        W47279   3.468  19.337  12.789 -0.0632 -0.0830  0.3699
27746W        W47280   9.870   4.431   1.651 -0.0622 -0.1260 -0.1202
27747W        W47281   6.591  17.091   0.794 -0.0903 -0.0045  0.0919
27748W        W47282  14.830   9.299  10.383  0.2264 -0.2364  0.2547
27749W        W47283   0.320   1.939   4.268  0.1903  0.1664 -0.0086
27750W        W47284   8.079   1.927  10.454  0.0359  0.0866 -0.0901
27751W        W47285  12.576   6.567   2.328  0.0995  0.2924  0.0084
27752W        W47286  17.563   5.802   4.061  0.2010  0.0713 -0.2687
27753W        W47287  16.727  12.671   0.692  0.1031 -0.0631 -0.0793
27754W        W47288  11.209   0.688  12.044  0.0906 -0.0902 -0.2332
27755W        W47289  19.138  11.855  11.428 -0.1170 -0.0187 -0.0085
27756W        W47290   8.749   3.449   3.348 -0.1858  0.2601 -0.0934
27757W        W47291  15.697  15.136  13.779  0.0499 -0.0796 -0.1399
27758W        W47292  11.194  16.428   1.743 -0.1920 -0.3409  0.2662
27759W        W47293  14.105  11.814  10.453 -0.1159  0.2454 -0.1984
27760W        W47294   3.080   0.786   1.332 -0.0031 -0.3776  0.2207
27761W        W47295  19.386   2.851   3.681  0.2402 -0.0487 -0.0052
27762W        W47296  19.195  11.590   2.400  0.1551 -0.0645 -0.1756
27763W        W47297   9.644  12.976  13.262  0.3680 -0.1135  0.4056
27764W        W47298   9.817  14.711  14.042 -0.0823  0.0821 -0.2173
27765W        W47299   9.458  17.009   1.723 -0.1758 -0.1390  0.0562
27766W        W47300  19.119   7.796   2.838 -0.0138 -0.0057 -0.1995
27767W        W47301  14.295   6.606  13.959  0.0311 -0.0218 -0.2083
27768W        W47302  18.761  14.073  10.300  0.3943  0.4038  0.0406
27769W        W47303   2.239  17.961   1.876 -0.2040 -0.1639  0.1008
27770W        W47304   2.044  15.348   4.595 -0.0574  0.4390 -0.0474
27771W        W47305   2.791  17.214  14.165  0.3001 -0.0104 -0.2750
27772W        W47306   1.021  11.159  10.772 -0.0147 -0.0990 -0.0585
27773W        W47307  15.943   4.209  12.048  0.0042  0.0152  0.1654
27774W        W47308  15.805   2.688  12.195  0.2589  0.3480 -0.1300
27775W        W47309  16.714   0.278  11.830 -0.0842  0.0641 -0.1946
27776W        W47310   1.905  13.201  12.189  0.1808 -0.2548  0.1144
27777W        W47311   2.478  18.814   2.273 -0.0966  0.2533 -0.0135
27778W        W47312  10.592  15.756   0.527  0.2304  0.2944 -0.2112
27779W        W47313  13.519   6.148  10.558 -0.0423  0.0356  0.0637
27780W        W47314   0.264  13.893  13.455 -0.0169  0.1040  0.2734
27781W        W47315   2.322   3.461  10.633 -0.1482  0.1663  0.0364
27782W        W47316   5.534   4.812  12.311 -0.2154 -0.3470  0.0694
27783W        W47317  11.565  18.345   0.484  0.1479 -0.0283 -0.0363
27784W        W47318   7.784   5.817  12.339 -0.0811  0.0656 -0.1518
27785W        W47319  15.212  17.621   3.475  0.1044 -0.4205 -0.1652
27786W        W47320   6.460   8.814   2.191  0.1860  0.1022  0.0564
27787W        W47321   9.578   8.626  12.048 -0.3254 -0.4482  0.0776
27788W        W47322   3.132   8.076   0.055 -0.1919  0.2824  0.1594
27789W        W47323  10.719   6.364   2.602 -0.3063  0.0073  0.0126
27790W        W47324  18.306   3.585   9.499 -0.1520  0.2076 -0.0022
27791W        W47325  14.736  15.884  11.060 -0.0614 -0.0726  0.2152
27792W        W47326   7.297   1.200   3.678 -0.0023 -0.1989 -0.0419
27793W        W47327  15.684  17.587  10.257 -0.5501 -0.2238 -0.0131
27794W        W47328  15.715   2.019   0.745 -0.0752 -0.0118 -0.0019
27795W        W47329  14.376   0.676   2.407  0.1031 -0.2029  0.0431
27796W        W47330   1.818   8.479   3.751  0.1453  0.0908  0.0202
27797W        W47331   8.461  18.697  11.552  0.4418  0.2178  0.0663
27798W        W47332   8.885   6.475  12.527  0.4189  0.1030  0.1171
27799W        W47333   1.124  12.031  13.338  0.0470  0.2469  0.1059
27800W        W47334  18.668   8.845   4.005  0.1093 -0.0230 -0.0204
27801W        W47335   0.049   7.703   3.858 -0.0280 -0.4543 -0.0782
27802W        W47336   6.952   9.976  12.410 -0.1994 -0.1251 -0.2956
27803W        W47337   9.014  14.521   0.478  0.3313  0.0821 -0.0625
27804W        W47338  17.183   7.369  12.838  0.1308  0.1399  0.1605
27805W        W47339   2.123  10.849  13.445  0.0721 -0.2436  0.1234
27806W        W47340   8.469  15.887   2.284 -0.4317 -0.0176 -0.1303
27807W        W47341  13.328  16.409   0.519  0.0376 -0.1546 -0.0039
27808W        W47342   8.873  15.632   0.432  0.1367  0.0920  0.0495
27809W        W47343  16.009  12.318   2.741 -0.0862 -0.0854 -0.2341
27810W        W47344   2.663  14.890   3.850  0.1140 -0.2935  0.1533
27811W        W47345   7.336  11.321  12.878 -0.1315  0.2695 -0.1211
27812W        W47346   8.908   3.087  13.874  0.0550  0.0636  0.0738
27813W        W47347  18.797   3.059   2.115 -0.3118 -0.0344  0.0370
27814W        W47348   4.779  12.615  13.705 -0.0616  0.1000 -0.2742
27815W        W47349  18.932   9.401   0.634 -0.1976  0.2162  0.0680
27816W        W47350   5.417  10.348   2.110 -0.3137 -0.1668 -0.4021
27817W        W47351  12.240   6.282   4.301  0.0928  0.2097 -0.0175
27818W        W47352   4.875  12.702  11.005  0.1156 -0.3848  0.0476
27819W        W47353  18.669   0.840  12.054 -0.1600 -0.3097  0.1901
27820W        W47354   3.115   8.831  13.054 -0.7282  0.2786 -0.2841
27821W        W47355   5.278  11.759  12.776 -0.1790 -0.3977  0.0387
27822W        W47356  11.844  12.326   2.235 -0.2640  0.3046  0.0338
27823W        W47357   0.019  15.004  13.090 -0.0157  0.0640 -0.0649
27824W        W47358   9.547  14.361  13.085  0.0774 -0.1034  0.1652
27825W        W47359   7.412  15.324  10.907  0.0617 -0.4637  0.0338
27826W        W47360   5.898   1.395  12.981 -0.0785  0.0989 -0.0375
27827W        W47361  10.686  12.979  11.822  0.1903  0.1772 -0.2783
27828W        W47362   0.791   3.202  11.980 -0.0366  0.1729  0.0132
27829W        W47363   6.430  11.934  13.575  0.0102 -0.0291  0.0023
27830W        W47364  16.737   2.184  11.696  0.3437 -0.2376 -0.1969
27831W        W47365   7.549  14.447   0.923  0.2415  0.0535  0.1026
27832W        W47366  10.054  14.480  10.813  0.0471  0.0305  0.2224
27833W        W47367  11.722   2.102  10.108  0.0174  0.0045  0.0361
27834W        W47368   9.381  13.489   3.956  0.1322  0.0060  0.1364
27835W        W47369   1.756  17.069  10.594 -0.1660 -0.0305  0.1296
27836W        W47370  15.068  13.895   1.186  0.0724  0.1891 -0.1622
27837W        W47371  11.406   0.304  12.337  0.3378 -0.0458 -0.0908
27838W        W47372  11.980   3.851  12.431 -0.2625  0.1040 -0.0913
27839W        W47373  14.751   2.310   0.888  0.2455  0.1293  0.0607
27840W        W47374  16.302   1.940   3.907 -0.0126  0.2960 -0.0018
27841W        W47375  19.281   6.092   3.269  0.0288  0.0340 -0.1265
27842W        W47376   9.072   8.774   4.199 -0.0758 -0.2899  0.0794
27843W        W47377  16.426  10.359   0.002  0.0902 -0.0040 -0.0774
27844W        W47378   4.503   5.914   0.881 -0.0608  0.0460  0.0926
27845W        W47379   8.447  11.871   4.393  0.0960  0.0391 -0.0687
27846W        W47380  11.457  14.430  10.908 -0.0954 -0.2093  0.1612
27847W        W47381  13.614   4.879  10.570 -0.1015  0.0113 -0.0174
27848W        W47382  12.380   9.247  11.241  0.0328  0.0476  0.0320
27849W        W47383   4.877   5.893  13.513  0.0167  0.0711  0.0742
27850W        W47384   9.534   2.622  12.791 -0.2954  0.0199 -0.1697
27851W        W47385   5.507  13.857  11.518 -0.2201  0.2476 -0.0955
27852W        W47386   6.007  19.160  11.367  0.2188  0.2318  0.0838
27853W        W47387  15.126   8.704   4.138 -0.0062 -0.2916  0.1255
27854W        W47388   2.802  14.010  13.027 -0.1616  0.0637  0.0458
27855W        W47389   9.401  10.724   2.803 -0.1283  0.0777  0.1876
27856W        W47390   9.150   8.070   2.918  0.3807  0.1172 -0.0349
27857W        W47391  17.897   5.457  13.344  0.1672  0.2493 -0.1842
27858W        W47392   3.342   9.834   0.661 -0.0729  0.0611  0.2195
27859W        W47393   8.317   3.747  12.018 -0.1786 -0.0623  0.1518
27860W        W47394  15.294  11.605   3.311  0.1463  0.2291  0.0947
27861W        W47395  15.720   1.462   2.015 -0.0417  0.0359 -0.4268
27862W        W47396   1.201   2.161   1.674 -0.1324  0.0908  0.2520
27863W        W47397   0.506   5.927   0.028  0.0862  0.0656 -0.0332
27864W        W47398  15.634  18.732   0.732 -0.3950 -0.1649 -0.3477
27865W        W47399   7.297  13.968   4.099  0.0148 -0.1162  0.1523
27866W        W47400   4.949   5.426  12.640  0.0505 -0.1337 -0.2019
27867W        W47401  15.459   8.417   3.307  0.0787 -0.1667 -0.0551
27868W        W47402  17.648  16.031  13.198  0.0525  0.2779  0.1149
27869W        W47403  17.923   6.762   3.464 -0.2007  0.0883  0.0682
27870W        W47404   4.276  19.355   0.148  0.1066  0.0006  0.0223
27871W        W47405  12.409   1.947   1.289 -0.3022 -0.1296  0.2724
27872W        W47406   9.167   3.581   0.289 -0.1210 -0.1004  0.0588
27873W        W47407  19.136   8.384   1.816  0.2301  0.1026 -0.4339
27874W        W47408   0.386  18.087  11.561  0.1101 -0.1144  0.1599
27875W        W47409   4.840  17.108   1.925 -0.1135 -0.0775  0.4007
27876W        W47410  19.409   4.311   1.521 -0.2713 -0.1975  0.0484
27877W        W47411  18.095  16.254   2.823  0.0962 -0.1460  0.1143
27878W        W47412   7.251  15.390   0.356  0.4108 -0.1837  0.2562
27879W        W47413   0.623  11.280   1.431 -0.0726 -0.2327  0.0449
27880W        W47414  14.677   8.404   1.261  0.2422  0.2485  0.2199
27881W        W47415  11.678  10.382   2.845 -0.2824  0.0338  0.2533
27882W        W47416   0.211   4.188   3.869 -0.0599  0.0380  0.0333
27883W        W47417   0.475  18.086   2.187 -0.0189  0.0430 -0.1909
27884W        W47418   4.062   2.384   4.048  0.0188  0.1345  0.0619
27885W        W47419  15.578   8.054   3.614  0.0728  0.1494 -0.1304
27886W        W47420  11.258  11.374  13.122  0.3842 -0.0169  0.2161
27887W        W47421  17.344  12.459   0.175 -0.3653  0.0974 -0.1300
27888W        W47422   8.076  17.615  12.053  0.1769  0.0897  0.2354
27889W        W47423  13.105   3.954  13.176  0.2188  0.0795  0.1251
27890W        W47424  15.359   4.499  11.319 -0.3577  0.1590 -0.0304
27891W        W47425  11.113   2.883  12.577 -0.1015 -0.3698  0.3561
27892W        W47426   5.600   5.011  10.710 -0.1068 -0.4161  0.2063
27893W        W47427   6.990  11.612   0.739 -0.2600 -0.2305  0.0055
27894W        W47428  17.707   0.504   2.882  0.0331 -0.0665 -0.1251
27895W        W47429  13.737   0.245   0.308 -0.0357  0.3083 -0.0950
27896W        W47430   1.000  14.385  13.505 -0.0648  0.3221 -0.2602
27897W        W47431  16.526   2.393   0.892 -0.1948 -0.0922  0.0467
27898W        W47432  18.201  18.849  13.911 -0.0964 -0.0400 -0.0077
27899W        W47433  14.606  14.147   1.115 -0.0143  0.2524 -0.0183
27900W        W47434   4.414  13.561   3.289 -0.0264  0.1859 -0.1943
27901W        W47435   4.090  18.512   3.984 -0.2566  0.1974 -0.0346
27902W        W47436   7.392   6.547   2.197  0.0381  0.0657 -0.2903
27903W        W47437   6.292   1.033   0.388 -0.0202 -0.2992  0.2458
27904W        W47438  18.485  11.189   4.235 -0.1051  0.2553  0.1425
27905W        W47439   9.109   2.055   0.452  0.3216  0.0736 -0.0016
27906W        W47440   5.245   9.598  12.235 -0.0876 -0.1895  0.1539
27907W        W47441   9.530   4.035   0.632 -0.3647 -0.0800 -0.0526
27908W        W47442  13.482   8.739   0.506  0.1341  0.1181 -0.1531
27909W        W47443  18.222   1.812  12.899  0.0763  0.0503  0.1495
27910W        W47444   8.649   2.159   0.762  0.0374 -0.2228 -0.1404
27911W        W47445  17.788  16.981  11.640  0.0587 -0.2790  0.0023
27912W        W47446  11.240   4.655  13.065  0.1633 -0.0191  0.1703
27913W        W47447  11.656  17.584  14.034 -0.2490  0.0986  0.0032
27914W        W47448   4.092   2.569   3.524 -0.1860 -0.0212  0.2790
27915W        W47449  12.127   3.271   3.512  0.1613 -0.0713  0.0270
27916W        W47450   8.274   8.794   4.637 -0.1224 -0.1840  0.0961
27917W        W47451   8.766  13.734   0.898 -0.2565 -0.1213  0.3638
27918W        W47452  19.484  15.913   0.801 -0.2390 -0.0433 -0.0463
27919W        W47453  15.165   6.544   1.043 -0.1757 -0.2382  0.1719
27920W        W47454   7.786   9.156  11.440  0.3541  0.0834 -0.0657
27921W        W47455   4.567   9.027  11.636  0.0237  0.1595 -0.1855
27922W        W47456  13.323  15.572   0.079  0.2148 -0.2743 -0.0148
27923W        W47457   2.605  17.198  12.357 -0.0083 -0.3139  0.3066
27924W        W47458   7.813   5.807   2.702 -0.2642  0.0887 -0.3283
27925W        W47459  18.920   2.138  10.621  0.1317  0.0988  0.0547
27926W        W47460  12.432   8.466   1.312 -0.0564  0.0203 -0.0905
27927W        W47461  15.927  13.177  12.014 -0.1497 -0.2854  0.0794
27928W        W47462  10.540   2.811  12.731  0.2439  0.2910  0.1167
27929W        W47463  18.654  18.804   2.922  0.2516  0.2360  0.0307
27930W        W47464   3.146  18.223   1.939  0.0348 -0.0409 -0.0596
27931W        W47465   7.382  16.264   2.410  0.1710 -0.0853  0.1587
27932W        W47466   4.359   9.600  12.269 -0.1462  0.0218 -0.1913
27933W        W47467   7.612   8.723   4.089  0.1352  0.0579 -0.3452
27934W        W47468   8.146  14.981   1.500  0.0278  0.0019 -0.0825
27935W        W47469   3.765   4.631   3.061 -0.0294 -0.0977  0.3668
27936W        W47470  10.278  19.376  12.655 -0.1103  0.0303 -0.0776
27937W        W47471  13.501   5.054   1.765 -0.1907  0.1913  0.0303
27938W        W47472   3.875   9.036   1.272  0.1540  0.1215 -0.0477
27939W        W47473  10.983   0.640   1.411 -0.1737 -0.0039  0.2628
27940W        W47474   6.083  19.310   1.644  0.1323  0.0701 -0.0510
27941W        W47475   4.287  18.456  13.117  0.1453  0.1960 -0.0615
27942W        W47476   6.442  14.520   3.186 -0.0475  0.1456  0.1040
27943W        W47477  13.482   0.522  13.460 -0.1298 -0.1462  0.1537
27944W        W47478   6.543  14.891  12.118 -0.3519 -0.1056  0.1333
27945W        W47479  11.605   2.176  13.122 -0.0046  0.2931  0.1192
27946W        W47480  13.997  15.981  11.351 -0.1255  0.2393 -0.1068
27947W        W47481   1.116  11.400  12.169 -0.1870  0.0048 -0.2216
27948W        W47482  14.788  14.935   2.205 -0.0416  0.0356 -0.1576
27949W        W47483   2.761   2.248  13.907 -0.2567  0.0429  0.0058
27950W        W47484  12.440   9.278  12.153  0.2521 -0.0905 -0.2293
27951W        W47485   7.924   9.508  12.307 -0.3161  0.0253 -0.4804
27952W        W47486  13.855   1.450   4.726  0.0476  0.2291  0.0133
27953W        W47487   8.333  11.609   2.094 -0.0067  0.1804 -0.0957
27954W        W47488  12.621  14.208   0.813  0.1432  0.0952 -0.0465
27955W        W47489   4.826  18.141   1.984 -0.0221  0.0557 -0.0705
27956W        W47490   5.914   1.010   4.478  0.2225 -0.2979 -0.0520
27957W        W47491   0.015  10.005  13.194 -0.0727 -0.1377 -0.0762
27958W        W47492  16.913   0.758   3.209  0.1863 -0.0575  0.3711
27959W        W47493  13.952  12.862   3.505 -0.1416 -0.2541  0.0742
27960W        W47494  14.701   5.781  13.730 -0.0299 -0.0563 -0.1146
27961W        W47495   5.344  12.025   0.190  0.0221 -0.1445 -0.0895
27962W        W47496  13.668  15.201  11.593  0.0066  0.0965  0.0263
27963W        W47497  15.699   0.604   9.794  0.0961  0.1253 -0.2199
27964W        W47498  13.789  10.552   9.813 -0.0457  0.1406  0.0203
27965W        W47499   5.884  11.684  11.394 -0.0303 -0.1337  0.1541
27966W        W47500   3.562  14.908  12.379 -0.0649 -0.0175 -0.0545
27967W        W47501   0.642  14.247   2.355  0.1245 -0.0808  0.2554
27968W        W47502  14.475   6.052   0.890  0.3195  0.1485 -0.0696
27969W        W47503   7.353   9.498  11.452  0.1204 -0.0782  0.1922
27970W        W47504   8.814  17.903   0.974 -0.1417 -0.1439  0.0007
27971W        W47505  16.335   1.469  14.198  0.1967 -0.1164 -0.2568
27972W        W47506  17.269   1.410   0.056  0.0316 -0.1064 -0.1066
27973W        W47507  10.193   2.013  10.658 -0.0257 -0.0926  0.0026
27974W        W47508   6.423   4.830  13.680  0.2547 -0.1325  0.0465
27975W        W47509  15.306  14.414   1.834 -0.1353 -0.1214  0.0787
27976W        W47510  10.799  11.818  11.279  0.1014  0.2209 -0.0639
27977W        W47511   3.418   7.434   3.858  0.2055  0.1608  0.2738
27978W        W47512  16.157   9.644   1.954  0.0562 -0.0265 -0.0637
27979W        W47513  19.348  15.878   1.378 -0.0288 -0.1738  0.2913
27980W        W47514   9.088   8.042   1.715 -0.0994 -0.1812 -0.1717
27981W        W47515   8.889   2.145   1.288 -0.0689 -0.3386  0.2717
27982W        W47516  19.395   4.351  12.853  0.1309 -0.1843  0.1376
27983W        W47517   4.457   0.104  13.197  0.2447  0.0864  0.1040
27984W        W47518  15.189  10.184   4.404 -0.0306  0.5350  0.2539
27985W        W47519   2.834  11.621   4.250  0.0179 -0.0017 -0.1285
27986W        W47520  11.573   6.973   1.799 -0.1723 -0.0042 -0.3808
27987W        W47521  12.954   1.620  12.217 -0.1792  0.2137  0.1692
27988W        W47522  15.198   3.206  14.190 -0.0567 -0.0639 -0.1410
27989W        W47523   8.542   2.137  10.486  0.0907 -0.1488 -0.3236
27990W        W47524   7.221  19.051   0.763  0.0181 -0.1224  0.2110
27991W        W47525  17.118   3.459  12.567  0.0313  0.2327  0.2879
27992W        W47526  10.092   5.759  12.776  0.0246  0.4505 -0.2865
27993W        W47527   6.816   7.027  12.386 -0.1877 -0.2057  0.1476
27994W        W47528  16.473  18.626   0.238 -0.1379  0.1035 -0.1811
27995W        W47529   2.916  15.964   3.106 -0.2274 -0.1912  0.1164
27996W        W47530   7.038  12.899   2.690  0.0241 -0.1147 -0.1450
27997W        W47531  16.094   5.022  13.952 -0.4088 -0.1704 -0.3162
27998W        W47532   7.899  10.392   4.235  0.1959 -0.0106 -0.0628
27999W        W47533   5.473   9.085  12.422 -0.0404  0.3761  0.1187
28000W        W47534   5.446   6.653   2.232 -0.1505 -0.0811  0.0018
28001W        W47535  11.062   6.538  11.098  0.1567  0.2995 -0.1008
28002W        W47536   4.338   8.378  11.266 -0.2125  0.2306 -0.3122
28003W        W47537   6.255   5.121  11.263  0.2620  0.0900  0.3693
28004W        W47538  12.088   7.442   9.888 -0.1802 -0.3227  0.1320
28005W        W47539   7.923   5.026   3.721 -0.1911 -0.0608  0.2241
28006W        W47540   2.498  16.125  10.463  0.1312 -0.0145  0.1439
28007W        W47541  10.041   5.351   2.192  0.0830  0.2774  0.3554
28008W        W47542   0.194   7.581  11.436 -0.0333 -0.2641 -0.3131
28009W        W47543   4.606   4.125  12.461  0.0315  0.1091  0.0198
28010W        W47544   4.207  15.040  12.238 -0.2587  0.0003 -0.0360
28011W        W47545   9.791   5.412   3.050  0.3224  0.0616 -0.0138
28012W        W47546   0.488   6.676  12.213  0.3402  0.2530  0.0151
28013W        W47547  17.750  11.585  12.762 -0.0381 -0.2420  0.2348
28014W        W47548  14.412   7.840  11.057 -0.0753  0.2090  0.2365
28015W        W47549  13.178   3.885   0.418  0.2024  0.0466 -0.0412
28016W        W47550  10.870   0.099  13.984  0.1687 -0.0923  0.2167
28017W        W47551   2.378  13.396   5.131 -0.0006  0.0256 -0.4555
28018W        W47552  16.901  14.438  12.632 -0.1109 -0.1257  0.1055
28019W        W47553   9.362  17.555  11.667  0.1984 -0.1059 -0.3731
28020W        W47554  10.309   5.735  12.305 -0.0941  0.0530 -0.1908
28021W        W47555  16.419   6.640  14.074  0.0586  0.3267  0.2748
28022W        W47556   7.337  11.606  14.215 -0.0351  0.0082 -0.2679
28023W        W47557  16.540   2.561   2.200  0.0095  0.0510  0.0299
28024W        W47558  13.361  12.751   4.009 -0.0586  0.0117  0.1225
28025W        W47559  15.940   2.919   2.713 -0.1422 -0.2236 -0.2449
28026W        W47560   5.353   7.282   1.338  0.3141 -0.2125 -0.1518
28027W        W47561  14.408   1.903   1.046 -0.1774 -0.1927  0.2691
28028W        W47562  16.927  15.061  14.032 -0.2779 -0.0382 -0.1942
28029W        W47563   0.246   9.140   4.428  0.3775  0.1266  0.0395
28030W        W47564  17.660   1.806  14.275  0.0880  0.1285 -0.0762
28031W        W47565  12.371   1.708   3.078 -0.0265  0.4008 -0.2253
28032W        W47566   3.844  19.015   1.488  0.4228  0.0318 -0.2328
28033W        W47567   4.095   7.127   4.325 -0.1289 -0.0175  0.2883
28034W        W47568   8.914   5.642  10.541  0.1512 -0.1279  0.0923
28035W        W47569   8.061   3.543   1.606  0.0302  0.3455 -0.3155
28036W        W47570   5.379   4.994  10.117  0.0627 -0.1597 -0.1057
28037W        W47571   5.652  15.316  13.725 -0.1600  0.1486 -0.1029
28038W        W47572  19.448  17.779   3.515  0.3245  0.2005  0.3621
28039W        W47573  18.067   3.071   2.136 -0.0521 -0.0685  0.2932
28040W        W47574  13.750  12.927   1.878  0.0055  0.1636 -0.1214
28041W        W47575  12.186   9.415   4.111  0.0335  0.1289 -0.0789
28042W        W47576  18.431  17.763  12.818 -0.1614 -0.2172 -0.0573
28043W        W47577  16.972   2.631   2.605 -0.0111 -0.2603 -0.0404
28044W        W47578  11.765  11.943   0.130 -0.3448  0.0816  0.0462
28045W        W47579   6.053   6.241   2.832  0.2109 -0.1357  0.2574
28046W        W47580  14.462  15.233  14.364 -0.2628  0.2094  0.1539
28047W        W47581  12.065   5.943  11.776  0.1071  0.0257  0.3847
28048W        W47582  10.261   6.903   3.933  0.1083  0.0019 -0.0700
28049W        W47583   2.122   5.005   0.049 -0.1293  0.1367 -0.1476
28050W        W47584   3.346  11.708   4.342  0.1073 -0.1735 -0.1048
28051W        W47585   8.348  18.178   0.940 -0.0018  0.2190  0.0240
28052W        W47586   9.847   5.801   2.631 -0.0445 -0.0335 -0.0273
28053W        W47587   9.686   9.074  14.146  0.0094  0.0679  0.3319
28054W        W47588  16.575   5.923   2.411  0.1484  0.1174 -0.0208
28055W        W47589   2.697   7.410   0.839 -0.0620 -0.0895  0.2255
28056W        W47590  19.511   7.238  11.063  0.2396 -0.5659  0.1317
28057W        W47591   3.357   5.665   4.154  0.0748  0.0463  0.0747
28058W        W47592   6.708  19.347   3.370  0.2150 -0.2673  0.1439
28059W        W47593  16.408  18.495  11.009 -0.3842 -0.3978 -0.1595
28060W        W47594   2.319  18.547   0.901  0.0328 -0.2885 -0.0394
28061W        W47595   9.771  14.570  12.132  0.2328 -0.2203 -0.0712
28062W        W47596  19.397   9.504  11.123  0.1035  0.1474  0.3653
28063W        W47597   9.498   0.052  12.035  0.1825 -0.4731 -0.3274
28064W        W47598  15.741  16.981  11.970  0.4229  0.1394  0.0025
28065W        W47599   0.772   2.886  12.876  0.0766 -0.0814 -0.0338
28066W        W47600   4.564   0.999  12.587 -0.1030 -0.0292  0.0614
28067W        W47601   9.665  10.553   1.837  0.1691  0.2583 -0.3342
28068W        W47602  10.132  13.726   2.777 -0.0274 -0.1436 -0.0735
28069W        W47603   4.058   5.715   2.588  0.0816 -0.0810 -0.1021
28070W        W47604   6.410   2.341   1.323  0.2348 -0.2010 -0.0301
28071W        W47605   8.588   7.884   1.574  0.0629 -0.1010 -0.0539
28072W        W47606   3.587  18.541  10.084 -0.2992 -0.1869 -0.1099
28073W        W47607  19.221  14.008  12.782 -0.0032 -0.1299  0.0969
28074W        W47608   9.818  12.923   3.283 -0.1350 -0.1286 -0.1341
28075W        W47609  16.956  13.007   4.005  0.0158  0.1034  0.1269
28076W        W47610   3.724  11.469  13.252 -0.2810  0.0012 -0.0022
28077W        W47611  12.017   6.363   2.892  0.1093 -0.2908 -0.0762
28078W        W47612   7.299   6.710   0.556 -0.1789 -0.0267 -0.1405
28079W        W47613   5.583  18.617   2.663  0.0648 -0.0685 -0.0490
28080W        W47614  13.145  15.513  10.314  0.2070 -0.1381  0.1685
28081W        W47615  14.218   7.155  13.654  0.0719  0.1122 -0.0714
28082W        W47616  12.031   8.315  10.429  0.2583 -0.0004  0.1970
28083W        W47617  11.932   3.663   1.771 -0.0445 -0.2212 -0.1722
28084W        W47618   3.275  12.868  12.262  0.1359  0.0683 -0.4025
28085W        W47619  11.462   6.558   2.094 -0.1645 -0.1400 -0.0758
28086W        W47620  17.623   7.105   2.285 -0.0196 -0.0795  0.3223
28087W        W47621  14.749   4.939   1.199 -0.2564  0.3920  0.0618
28088W        W47622  18.147   1.372   3.681 -0.1923 -0.1695  0.3498
28089W        W47623   6.961   8.348   3.518  0.0969  0.1415 -0.0931
28090W        W47624  16.539  16.346   0.078  0.2801  0.0815  0.3417
28091W        W47625  15.927   2.879   0.690  0.2667  0.1723 -0.0899
28092W        W47626   8.777   3.907   0.084 -0.0933 -0.0266  0.0664
28093W        W47627   3.711  14.386   3.397  0.3334  0.0891 -0.5092
28094W        W47628   1.807   0.211  12.736 -0.0917 -0.1344  0.0689
28095W        W47629   0.517  10.726   3.115 -0.1044 -0.1370  0.2484
28096W        W47630  14.905  12.502   0.429 -0.0030  0.0430 -0.0628
28097W        W47631   0.176   7.155   2.331  0.0475  0.0766 -0.1157
28098W        W47632  12.800   5.737  12.207  0.2136 -0.0527  0.3256
28099W        W47633   5.049  13.566  11.514 -0.2490  0.2941 -0.1498
28100W        W47634  16.223   6.021  13.490  0.0224  0.0711  0.0834
28101W        W47635   6.888  10.581   4.279  0.0193 -0.0381  0.0580
28102W        W47636   9.163  18.993   2.725 -0.2146  0.0527 -0.0266
28103W        W47637  10.687   8.760   1.790  0.1982 -0.3059 -0.0781
28104W        W47638  11.496  19.175  13.647  0.1881  0.1699 -0.0551
28105W        W47639   9.274   4.047  10.743 -0.0312 -0.0063 -0.1286
28106W        W47640   0.863   1.254  10.958  0.0348 -0.0673 -0.0535
28107W        W47641  10.151   0.295  13.826  0.1234 -0.1371  0.1601
28108W        W47642   2.899  18.545  11.668  0.1003 -0.1338 -0.0233
28109W        W47643  17.689   9.040  11.255  0.3451  0.0458 -0.0358
28110W        W47644  15.839   3.702  14.151  0.0488 -0.3090 -0.2195
28111W        W47645   8.925   4.096   2.973 -0.0372  0.0438 -0.1083
28112W        W47646   6.450   4.561  11.248 -0.1879 -0.0502 -0.2134
28113W        W47647  18.065  16.130   2.361  0.0191  0.2977  0.1080
28114W        W47648   8.915  11.998  14.200 -0.1960  0.1244  0.2218
28115W        W47649   4.665  15.823  12.532 -0.0432  0.0151 -0.0808
28116W        W47650   5.276  14.990  10.809  0.3101 -0.0498  0.0283
28117W        W47651  10.957  12.684  13.891  0.1147 -0.1925 -0.1293
28118W        W47652   9.937   6.007   0.294  0.0864 -0.1569  0.1742
28119W        W47653   0.175   1.505   3.972  0.2482  0.2015 -0.1476
28120W        W47654  16.880   4.828  12.897  0.0715 -0.1434  0.1493
28121W        W47655   7.501  18.655   0.941 -0.0726 -0.0060  0.1732
28122W        W47656  11.812   1.770   1.260 -0.1879  0.0901 -0.2506
28123W        W47657   3.661   6.223   2.691 -0.1203 -0.0245 -0.1508
28124W        W47658  10.533  12.439   3.642  0.1574 -0.1215 -0.0674
28125W        W47659  17.651  15.622   0.273  0.2728  0.0867 -0.2489
28126W        W47660   6.951   8.650   1.981 -0.1161 -0.1233  0.1672
28127W        W47661  14.987  18.191   3.560 -0.1182  0.0775 -0.4714
28128W        W47662   7.051   8.710  13.269  0.2425 -0.0593 -0.0338
28129W        W47663  12.892   0.971  11.560  0.3603  0.3495 -0.0659
28130W        W47664  14.461   9.432   2.097 -0.0471  0.0623  0.0799
28131W        W47665   0.052  12.698  10.901 -0.0182 -0.1996 -0.1242
28132W        W47666  13.457  15.199  13.534  0.0419  0.0148  0.0619
28133W        W47667  10.810  14.946  14.190 -0.1005  0.2091 -0.0503
28134W        W47668  14.432   1.166  14.268  0.2614 -0.1932 -0.1198
28135W        W47669  17.960   8.825   0.483 -0.1697  0.0050 -0.0648
28136W        W47670  12.607  12.572   2.500 -0.0220 -0.0414  0.1795
28137W        W47671  18.337   0.961   3.146  0.1600  0.1048 -0.0446
28138W        W47672  18.674  14.716  13.555  0.0109 -0.1212  0.2065
28139W        W47673   5.208  17.043  13.691  0.3862  0.2109 -0.1507
28140W        W47674   0.034  12.071  11.621  0.0529 -0.4056  0.0562
28141W        W47675  19.358   7.388   1.631  0.1743  0.1975  0.0225
28142W        W47676   0.416   2.858   0.148  0.1980  0.0837  0.0475
28143W        W47677  15.615   4.066   1.480 -0.0376  0.1754  0.0445
28144W        W47678  12.542   7.557   3.014 -0.0311 -0.1668 -0.0413
28145W        W47679   2.374  10.809   3.926  0.1744 -0.5569 -0.3436
28146W        W47680  14.435   0.760   1.457 -0.0566  0.2858 -0.1431
28147W        W47681   2.155  16.303   0.333 -0.1125  0.1737 -0.0149
28148W        W47682   3.437  16.789   0.461 -0.0085 -0.3499 -0.2616
28149W        W47683   0.023   7.811  10.798 -0.3657  0.1185  0.1321
28150W        W47684   0.428  19.291  13.909 -0.2133 -0.2574  0.0589
28151W        W47685   8.309  19.144   1.998 -0.1876 -0.0000  0.0456
28152W        W47686   2.189   6.749  11.127 -0.2900  0.0753  0.2563
28153W        W47687   7.727   2.447   4.866  0.1198  0.2743  0.1939
28154W        W47688   2.570  12.587  10.940  0.0724  0.2612 -0.2896
28155W        W47689   1.924  16.382   2.918 -0.0582  0.1392  0.0162
28156W        W47690  18.112   0.141  10.206 -0.1226  0.0974  0.0223
28157W        W47691   1.700  17.079   2.272  0.5320  0.0778 -0.2207
28158W        W47692  10.555  18.333  10.389  0.2519 -0.1032  0.0248
28159W        W47693  16.719   7.399   0.872  0.0414 -0.2362  0.0208
28160W        W47694   3.390   2.974  11.915  0.0356  0.1408 -0.1347
28161W        W47695   0.447   6.141  12.346  0.1780 -0.1289  0.1031
28162W        W47696   1.097   4.356  11.017  0.2979 -0.2674  0.2365
28163W        W47697   9.115   6.516  10.457  0.1857 -0.0545 -0.1624
28164W        W47698   2.154  15.863   0.008  0.0604 -0.2103  0.3021
28165W        W47699  16.321   7.605   9.463 -0.1700  0.0252 -0.0208
28166W        W47700  17.719  12.230   2.677  0.3011 -0.2236 -0.0598
28167W        W47701   1.847  12.597   3.110 -0.0601  0.1057 -0.2157
28168W        W47702  11.970  16.242   1.107  0.0800 -0.0499  0.1383
28169W        W47703  13.899  13.991  10.087 -0.1075  0.2043  0.0728
28170W        W47704  12.878   7.698   0.085 -0.2024  0.0924 -0.0983
28171W        W47705   1.739  18.679  12.632 -0.2215 -0.1454  0.1378
28172W        W47706   1.919   4.603   1.341 -0.4305  0.2689 -0.0959
28173W        W47707  18.598   4.988   3.594 -0.0990 -0.0737  0.0315
28174W        W47708  11.989  18.200  12.377  0.3370 -0.0630 -0.0615
28175W        W47709  11.278   1.320  10.856  0.0916  0.1626  0.1240
28176W        W47710  14.491  16.465   1.908  0.0550 -0.1064 -0.3664
28177W        W47711  16.793  18.310   2.286  0.0908  0.1978 -0.1193
28178W        W47712   1.597   6.173  12.029  0.1503  0.1491  0.2724
28179W        W47713  16.507  13.197   3.967  0.2021  0.1474  0.0414
28180W        W47714   8.184  14.962  13.672 -0.4097 -0.0239  0.1260
28181W        W47715  12.277   9.673   2.491  0.0293 -0.1160 -0.0367
28182W        W47716   1.809  15.896   0.511 -0.0126  0.0653 -0.3895
28183W        W47717  10.135  15.007   0.616 -0.0825  0.1169  0.1039
28184W        W47718   3.580   3.171   2.487  0.1129 -0.3194  0.0909
28185W        W47719  18.227  10.563   0.292  0.1382 -0.0866  0.1133
28186W        W47720  10.359  12.911   2.465 -0.0080  0.2495 -0.0892
28187W        W47721  13.165   9.710   3.511 -0.0347  0.0301  0.0974
28188W        W47722   5.036   3.612   3.395  0.0703 -0.1654  0.0544
28189W        W47723   0.961  13.675  12.925 -0.1944  0.3764 -0.1191
28190W        W47724  18.259  11.318  13.426 -0.2537 -0.1499 -0.1687
28191W        W47725   8.759   8.858   3.383  0.0684 -0.2120  0.2801
28192W        W47726   1.592  19.169  10.661 -0.0068  0.1562  0.0458
28193W        W47727  13.861  14.780   2.318  0.3483 -0.1922 -0.2238
28194W        W47728   9.149  16.844   0.924 -0.1297 -0.1448  0.2553
28195W        W47729  19.352  16.620  13.515  0.2089 -0.0853  0.0050
28196W        W47730  17.884   5.289  11.689 -0.2505  0.0001 -0.2941
28197W        W47731   6.410  12.595   3.381  0.0276 -0.0883 -0.0209
28198W        W47732  14.196  12.114   3.043 -0.0942  0.1222  0.2476
28199W        W47733   4.908  10.992  13.165  0.2465  0.2410  0.2462
28200W        W47734   7.805  11.719   0.697  0.0462 -0.0303  0.0508
28201W        W47735  14.597   5.294  13.196 -0.0861  0.0610 -0.0339
28202W        W47736   3.994  17.552   4.183  0.0701  0.0798  0.0024
28203W        W47737  15.353  17.236   3.215  0.3480 -0.1253  0.2827
28204W        W47738  11.507   1.478   2.802 -0.0149  0.0886 -0.1580
28205W        W47739   9.639  19.371  10.762  0.2698 -0.0975  0.1552
28206W        W47740  11.675  13.998   3.577 -0.2658  0.2859  0.2842
28207W        W47741   0.163   2.803  13.598  0.0854 -0.0320  0.3412
28208W        W47742  16.885  17.123   0.367 -0.0850 -0.0222  0.0600
28209W        W47743  10.912   0.085   0.394 -0.3584 -0.0205  0.0344
28210W        W47744  15.208   4.766  12.777  0.2435 -0.4533  0.0350
28211W        W47745  15.057   8.186  12.194 -0.0805  0.0631 -0.0481
28212W        W47746   5.202   7.255  10.916  0.0166  0.2915 -0.1994
28213W        W47747  13.695  14.325  13.169 -0.1086 -0.2683 -0.2889
28214W        W47748  18.812   9.008   0.992 -0.0786 -0.1753  0.1278
28215W        W47749  10.074  12.039   3.989  0.0810 -0.0153 -0.3420
28216W        W47750  14.405   0.713   0.705 -0.0686 -0.2306  0.1768
28217W        W47751  14.687   6.078  10.899  0.0936 -0.1551  0.1008
28218W        W47752  12.817   3.076  12.481 -0.1028  0.3088 -0.2044
28219W        W47753  15.785   1.307   0.230 -0.0321  0.1499  0.2351
28220W        W47754   5.078   6.281  12.297 -0.2500  0.0207 -0.1215
28221W        W47755  15.339  10.912  13.789  0.1142  0.3218 -0.0302
28222W        W47756  16.784  16.868   0.782 -0.0372  0.0853  0.0760
28223W        W47757  16.904  17.668  11.198 -0.0441  0.3593  0.0702
28224W        W47758   0.657  18.513  11.644 -0.0095 -0.1443  0.0113
28225W        W47759  10.173  19.224   3.979 -0.2054  0.0812  0.0372
28226W        W47760   3.366  12.151   0.086 -0.1621 -0.1570  0.1068
28227W        W47761  13.854  13.126   0.643 -0.0742 -0.0607 -0.0761
28228W        W47762  15.899  19.155   2.695 -0.1085  0.3167 -0.2205
28229W        W47763   8.153  18.406   1.349 -0.4026 -0.3255 -0.1242
28230W        W47764  14.950  16.639  11.657 -0.0589  0.4406 -0.1737
28231W        W47765   3.726  13.526  13.478 -0.1421 -0.0491  0.1552
28232W        W47766   1.670  16.414   2.036 -0.1842  0.1579  0.1292
28233W        W47767   0.504   8.887  11.098 -0.1008 -0.0875  0.1415
28234W        W47768  14.411  16.083  13.930 -0.2060  0.1291 -0.2126
28235W        W47769   5.798  10.489   1.689  0.0537 -0.1933 -0.1028
28236W        W47770   7.839  14.066   2.056  0.2238  0.1966  0.1346
28237W        W47771   5.287   7.453  11.414  0.0530  0.0096 -0.0899
28238W        W47772   9.567   8.522  12.897 -0.0521  0.2522 -0.2904
28239W        W47773  16.274   6.132  12.473  0.1776 -0.2716 -0.1332
28240W        W47774   2.552   8.165   9.648  0.3148 -0.3007 -0.2289
28241W        W47775  11.435  13.653   1.288 -0.0431  0.1127  0.1483
28242W        W47776   9.856  15.402   0.157  0.0326 -0.1449  0.2227
28243W        W47777   0.358   2.583   1.406 -0.0289 -0.0902 -0.0912
28244W        W47778  18.256  14.496   2.320 -0.3352 -0.2174  0.0590
28245W        W47779  12.557   6.029   1.533  0.2239  0.1576 -0.1542
28246W        W47780   0.898  15.244   0.404  0.1904 -0.3188 -0.0757
28247W        W47781  16.818   1.664  12.743 -0.0320  0.1431  0.0790
28248W        W47782   6.542  12.912   2.680  0.4059  0.2158 -0.2558
28249W        W47783   5.457   5.960   9.523  0.0957 -0.0528 -0.2089
28250W        W47784   7.958   3.662  10.124 -0.1554 -0.1495 -0.2225
28251W        W47785   5.295  17.950   1.915 -0.0696 -0.0644 -0.1101
28252W        W47786  15.707   0.167   1.306 -0.2902  0.2749  0.1164
28253W        W47787  10.173   4.876  11.111 -0.0061  0.2641  0.0445
28254W        W47788  10.503  13.316   3.575 -0.1157 -0.2080  0.0047
28255W        W47789  11.000   5.895   4.276  0.1649 -0.1201  0.0129
28256W        W47790   6.588  16.320   4.055 -0.2401  0.1107 -0.0239
28257W        W47791  17.073   4.071   9.393 -0.1961 -0.1330 -0.0946
28258W        W47792  10.041  18.281  10.110  0.1455  0.1163 -0.0710
28259W        W47793   6.350   3.401   2.901  0.2010 -0.1873 -0.0981
28260W        W47794  18.408  16.609  11.109  0.0640 -0.0252  0.2704
28261W        W47795  10.688   4.119  13.878  0.0031 -0.0530  0.1134
28262W        W47796  11.414   7.075   2.990 -0.1254 -0.1669 -0.0327
28263W        W47797   7.693   6.569  11.581  0.5569 -0.0506 -0.0075
28264W        W47798   8.525   7.108   0.689 -0.1724 -0.2008  0.0686
28265W        W47799   6.589  10.182   4.391 -0.3727 -0.0235 -0.2544
28266W        W47800   1.452  11.095  10.546  0.1956  0.4632  0.1292
28267W        W47801  13.808   1.055   9.879  0.2925 -0.0860  0.1719
28268W        W47802  18.119  12.555  12.890 -0.0067 -0.2077  0.1110
28269W        W47803   2.105  18.079  11.299 -0.1501  0.1446 -0.0963
28270W        W47804   0.440   0.283   3.152 -0.1217  0.2031 -0.1540
28271W        W47805   3.687  11.080  11.396  0.3297  0.1655  0.0725
28272W        W47806   9.643  14.425   1.634 -0.0841 -0.0125  0.0594
28273W        W47807   7.676   2.852   3.386  0.3591 -0.1734  0.0892
28274W        W47808   1.860   2.996   3.060  0.2986 -0.1442 -0.2253
28275W        W47809  13.309  11.999   1.062 -0.1263  0.3148  0.2309
28276W        W47810  12.262   2.348   1.987  0.0947 -0.0823 -0.0672
28277W        W47811  14.977  19.205   0.245 -0.0067 -0.0135  0.0744
28278W        W47812   8.677   7.594   4.580 -0.1731 -0.1263 -0.0516
28279W        W47813   8.622  11.080  12.481  0.3042  0.3425 -0.1892
28280W        W47814   5.789   2.440   4.151  0.2451 -0.0321 -0.1522
28281W        W47815  10.518  11.890  11.702  0.0211  0.4242  0.2589
28282W        W47816   1.836  10.178  11.655 -0.1069 -0.2445 -0.0820
28283W        W47817  19.037   4.899   2.184  0.1366  0.1755 -0.1453
28284W        W47818  10.479   7.898  11.357 -0.0740 -0.2452  0.2503
28285W        W47819   4.265   2.302   0.922 -0.4423  0.0086  0.1915
28286W        W47820  12.223  14.684   2.999 -0.1589 -0.3900  0.3215
28287W        W47821   9.364  13.608   2.771 -0.0668  0.0955 -0.3160
28288W        W47822   5.418   0.321   5.011 -0.2695 -0.0916 -0.0296
28289W        W47823   9.052  16.795   2.659  0.0020  0.1374 -0.3227
28290W        W47824   6.759   0.490  12.731  0.0040  0.2343 -0.0861
28291W        W47825  11.843  16.380   2.391 -0.1059  0.0751 -0.0489
28292W        W47826  18.592   8.481   4.434  0.1000  0.4093  0.1789
28293W        W47827  17.003   7.941  12.760  0.1612 -0.0548 -0.4189
28294W        W47828  14.812  11.655   1.844 -0.0667 -0.0815  0.0509
28295W        W47829  13.177   9.886  12.049  0.2565 -0.0891 -0.4560
28296W        W47830  13.162  14.675   2.851 -0.1242  0.1677 -0.2192
28297W        W47831  18.125  10.654   2.490 -0.0766 -0.2141  0.0050
28298W        W47832  11.514   7.098  12.036 -0.0948 -0.5451  0.1283
28299W        W47833  14.182  16.809  13.214 -0.2978  0.0773 -0.1437
28300W        W47834  11.445  17.063   1.130 -0.2529 -0.1958  0.0596
28301W        W47835   7.514   2.333  14.247 -0.3066  0.1016  0.1073
28302W        W47836  11.503   2.307  13.717 -0.2694 -0.2424 -0.2297
28303W        W47837   9.169  14.630  14.061 -0.2565 -0.2157 -0.1893
28304W        W47838   8.973   9.744   3.518 -0.2473  0.1696  0.0106
28305W        W47839   8.373   2.709  13.908  0.0523  0.1467  0.1399
28306W        W47840   9.754  12.053   3.344  0.1687  0.0414 -0.1468
28307W        W47841   3.427  18.506  10.675 -0.1427  0.3182  0.2830
28308W        W47842  16.812   1.476  14.129 -0.0436 -0.1299  0.1169
28309W        W47843  19.273  17.408  11.737 -0.3000  0.0928  0.3098
28310W        W47844  12.274   5.072  11.503 -0.0039  0.1132 -0.0010
28311W        W47845  16.431  17.553   4.379 -0.0860  0.0204 -0.1272
28312W        W47846   6.169  14.553  11.388 -0.5121 -0.1435 -0.1613
28313W        W47847   6.291   5.404  13.138  0.1256 -0.1222 -0.0593
28314W        W47848   6.992  10.671   1.380 -0.0409 -0.0354 -0.2186
28315W        W47849  15.358   1.550   3.919  0.2387  0.1444  0.1449
28316W        W47850  17.602  14.898   2.968  0.1674  0.0646  0.2238
28317W        W47851  19.107   6.155   0.817  0.0813 -0.2144 -0.2763
28318W        W47852  13.895  14.420   1.702  0.1690  0.1648 -0.2631
28319W        W47853  16.709   2.553  12.201 -0.1250 -0.4838 -0.0278
28320W        W47854   3.106  16.968  10.741 -0.0274  0.0605  0.2031
28321W        W47855  16.370   0.790   9.165 -0.1742  0.0271  0.3278
28322W        W47856  11.315   3.642  10.759  0.0359 -0.0175 -0.1611
28323W        W47857   7.520   0.290   3.856 -0.0607  0.4142  0.1502
28324W        W47858   5.410  16.779  11.095 -0.0408 -0.2758  0.3152
28325W        W47859   0.535  10.802   1.369 -0.0295  0.0013  0.0615
28326W        W47860  18.683  19.343  12.153 -0.0395  0.2679 -0.0597
28327W        W47861   2.613   1.798  12.504 -0.1794  0.4087 -0.5426
28328W        W47862   2.708   3.966  12.202  0.0884  0.0064  0.1304
28329W        W47863   5.004   9.663  13.583 -0.3655 -0.0727 -0.0461
28330W        W47864   6.447  10.131  12.374  0.0047  0.0590  0.2190
28331W        W47865  15.467   5.062   2.987  0.0920 -0.0325  0.1606
28332W        W47866   8.938  11.650   1.360 -0.0650 -0.1584 -0.0981
28333W        W47867   3.887  14.941   0.656 -0.0318 -0.0367 -0.0089
28334W        W47868  14.632  14.189   0.354  0.1948 -0.0203  0.1311
28335W        W47869   8.485  11.975   4.881 -0.0427  0.1984  0.2917
28336W        W47870  17.718   5.821   3.538  0.3560  0.0266 -0.1880
28337W        W47871  15.656   5.421   3.242 -0.2902 -0.2813  0.1289
28338W        W47872  18.074  10.937   4.174 -0.1018 -0.1212  0.1343
28339W        W47873  15.834   1.681  10.788  0.4505 -0.1291  0.0498
28340W        W47874   7.518  19.039   3.908 -0.1735 -0.1607 -0.1481
28341W        W47875   4.181  10.304   4.037  0.0340  0.0924  0.3915
28342W        W47876   7.779   5.357  10.253 -0.1168  0.1420 -0.1258
28343W        W47877  16.208   1.620   1.989  0.2565 -0.0955  0.3157
28344W        W47878  12.559  12.433   3.579 -0.2919  0.0061  0.0372
28345W        W47879   1.477  12.763  10.682 -0.0605 -0.2895 -0.0116
28346W        W47880   2.163  13.360   1.214 -0.0054 -0.0621  0.0712
28347W        W47881  10.586  13.234   0.210 -0.2789 -0.0421  0.0781
28348W        W47882   8.343   1.356  12.274  0.2064 -0.2260 -0.2915
28349W        W47883  12.920   0.624  12.837 -0.0692 -0.2774  0.0296
28350W        W47884  19.364   3.973  10.778 -0.3171  0.0773 -0.0811
28351W        W47885  16.399  13.957   1.247 -0.2202 -0.3210 -0.2924
28352W        W47886   2.979   2.336   0.541 -0.1234  0.2194  0.0845
28353W        W47887   1.337   1.291  10.817 -0.0547 -0.1583  0.1010
28354W        W47888   7.483  15.704   0.714  0.1484  0.0973 -0.1847
28355W        W47889   9.791   7.256  10.978 -0.2626  0.2673  0.0543
28356W        W47890   3.360   1.135   9.076 -0.2308 -0.1339  0.2066
28357W        W47891  15.561   1.799  12.500  0.0500  0.0665 -0.2176
28358W        W47892   1.713   0.563  10.582 -0.1252 -0.2354  0.0336
28359W        W47893   4.383   1.902  10.668  0.1815 -0.0287  0.0473
28360W        W47894  10.093   5.288   1.301 -0.1332 -0.3459 -0.0798
28361W        W47895  16.693  16.588  12.341 -0.1156 -0.2020  0.2949
28362W        W47896  13.506   0.334   1.668  0.0502  0.0274 -0.2068
28363W        W47897  10.627  18.563   1.361  0.0957  0.2815  0.0336
28364W        W47898   0.707   1.440   4.937  0.3843  0.1572 -0.2074
28365W        W47899   7.507  10.880  11.349  0.1243  0.1268  0.1540
28366W        W47900  12.222  14.055  13.014 -0.3451  0.0786 -0.4256
28367W        W47901   0.652   2.926   2.218  0.3277  0.1809  0.0479
28368W        W47902  18.673  18.558   0.971  0.1948 -0.2490 -0.1450
28369W        W47903  13.839  19.369  10.735  0.1260  0.0470 -0.0574
28370W        W47904   0.481   0.529  13.111 -0.2575  0.1687 -0.3652
28371W        W47905  12.628  17.387   4.210  0.1203 -0.0711  0.0751
28372W        W47906   7.896  15.786  13.168 -0.3869  0.5240  0.2851
28373W        W47907  15.299   9.654  10.538  0.1362 -0.1128 -0.1776
28374W        W47908   0.619   3.443  10.468  0.2180  0.2165 -0.1019
28375W        W47909  14.924   2.228   1.845  0.3868 -0.0039  0.0364
28376W        W47910   3.597   9.680  12.722  0.0927 -0.2991  0.2998
28377W        W47911  16.146  13.557  11.247 -0.0864 -0.0731 -0.1698
28378W        W47912   4.407  17.735  11.156 -0.2827  0.0170 -0.0785
28379W        W47913   4.138   1.056   3.637 -0.0880  0.0069 -0.1247
28380W        W47914   1.979  18.333  14.288 -0.0178  0.0212  0.2555
28381W        W47915   0.124  15.262   0.773 -0.0355 -0.1547  0.1388
28382W        W47916  11.539  10.904   1.412  0.2109 -0.1575 -0.1597
28383W        W47917  19.028   9.928  12.533  0.0338 -0.3529  0.3157
28384W        W47918   4.226  15.071   0.137  0.3319  0.3353  0.2495
28385W        W47919   7.183   5.953   3.555 -0.1911 -0.0351  0.0809
28386W        W47920  18.583   2.444   2.698 -0.5260 -0.0248  0.0051
28387W        W47921  19.128  16.826   1.078  0.0149 -0.2849  0.1012
28388W        W47922   1.218  12.245  12.663 -0.1919  0.2661 -0.1905
28389W        W47923   3.571   2.273  14.134 -0.1089 -0.1410  0.0354
28390W        W47924  14.169  18.175   2.592  0.0831 -0.1310 -0.0416
28391W        W47925   1.796   0.242   1.621  0.2252 -0.3504  0.3837
28392W        W47926  10.151   6.303   1.808  0.0255 -0.0005 -0.1465
28393W        W47927  16.876   7.235   0.068 -0.0942  0.0627  0.0147
28394W        W47928  13.600   6.534   2.580 -0.1202 -0.0865  0.0344
28395W        W47929  11.891  16.198  12.070  0.0881 -0.0111  0.0961
28396W        W47930  16.021   9.142   4.037 -0.0002  0.1846 -0.0322
28397W        W47931   2.880   0.131  14.345  0.3018  0.2375 -0.2256
28398W        W47932  10.463   9.998   2.951  0.0828  0.1254 -0.0673
28399W        W47933  16.848   2.663  12.774 -0.1980 -0.0683  0.5285
28400W        W47934  16.007  12.814  12.749  0.4066  0.2133  0.1151
28401W        W47935   9.657  18.515   9.371  0.0433  0.3085  0.1142
28402W        W47936  12.200   2.659  13.075  0.0661 -0.0354 -0.1957
28403W        W47937  11.541   3.372   2.698 -0.1310 -0.2564 -0.1052
28404W        W47938   5.543  16.675   3.130 -0.2563  0.2085 -0.2161
28405W        W47939  19.425  16.882   1.793  0.1758  0.1300 -0.0421
28406W        W47940  18.075  16.930  11.181  0.0987 -0.0082  0.4828
28407W        W47941   0.705   2.596  10.875  0.0206  0.0119 -0.0650
28408W        W47942  14.066  12.776   0.967 -0.0945 -0.2713 -0.1731
28409W        W47943   6.786   9.645   3.707  0.3004  0.0626  0.1019
28410W        W47944  10.446  13.475  11.116 -0.0157  0.0735  0.2662
28411W        W47945   9.331  10.721   0.424 -0.4451  0.1927  0.0968
28412W        W47946   8.951   4.821  12.991 -0.0265 -0.2328  0.4151
28413W        W47947  11.806   9.412   3.191  0.3126  0.0614 -0.0228
28414W        W47948  12.869  19.131  12.133 -0.0135  0.2619 -0.0030
28415W        W47949  19.467   2.700   2.344 -0.1056  0.1881 -0.0144
28416W        W47950   4.786  10.493   2.263 -0.0401 -0.1952 -0.2013
28417W        W47951  17.137  15.680  13.367  0.0436 -0.0348 -0.3511
28418W        W47952   3.272   3.387   3.374 -0.0108 -0.0946  0.0841
28419W        W47953   5.925  14.112   1.920  0.1493 -0.4344 -0.0485
28420W        W47954  14.437   2.073   1.630  0.0977  0.0977  0.1997
28421W        W47955  11.282   0.758  10.700  0.1299  0.3307  0.0731
28422W        W47956   5.739   6.638   4.268  0.0261  0.0343  0.3480
28423W        W47957  11.066   4.820  10.668 -0.0281 -0.2147  0.1996
28424W        W47958  19.165   3.175  11.492  0.0873 -0.1473 -0.0199
28425W        W47959   6.428   8.658   0.667  0.4791 -0.0296  0.0236
28426W        W47960  17.247   9.031   4.037  0.2606  0.3111 -0.1940
28427W        W47961   6.626   6.214  10.745 -0.0020 -0.0915 -0.0562
28428W        W47962   7.327   5.348   2.401  0.1225 -0.0226  0.1298
28429W        W47963  11.585   3.288   1.624 -0.2154 -0.2114 -0.0512
28430W        W47964   3.334   9.751  10.718  0.0123  0.2876 -0.3156
28431W        W47965  19.357   9.582  12.444  0.0582  0.0604  0.0249
28432W        W47966  11.844  13.054  13.085  0.0196 -0.1137  0.1931
28433W        W47967   6.434  14.015  12.107  0.3308 -0.0759 -0.1707
28434W        W47968  18.633  12.614  11.277 -0.1553 -0.1737  0.0061
28435W        W47969   9.853   5.467   1.741  0.0156  0.1655 -0.0409
28436W        W47970   8.055   9.805  10.713  0.2626 -0.0597 -0.2650
28437W        W47971  10.641  10.171  13.065 -0.1645 -0.1271 -0.2132
28438W        W47972  12.491   3.058  12.096  0.0424  0.0296  0.1328
28439W        W47973  17.191   6.695   3.636  0.0457 -0.0789  0.0599
28440W        W47974   3.315  16.275   3.061 -0.1301 -0.1935  0.2099
28441W        W47975  11.737   6.632  10.289 -0.1217  0.0245  0.1147
28442W        W47976   6.469  11.783  13.124  0.0780  0.1830 -0.2248
28443W        W47977   5.365   6.578   0.795  0.1129  0.0413 -0.1611
28444W        W47978   9.827  16.476   4.339  0.3346  0.3158 -0.2935
28445W        W47979   4.440  10.182  12.930 -0.1808 -0.5302 -0.0009
28446W        W47980  16.828   8.596   0.505 -0.1210  0.1036 -0.0695
28447W        W47981   2.175   6.436  13.517  0.2687 -0.1545 -0.0663
28448W        W47982   0.176   0.390   1.313 -0.2764 -0.2947 -0.1864
28449W        W47983  11.868   0.119  12.120  0.1718 -0.3769  0.2272
28450W        W47984  13.226  13.253   3.159 -0.4889 -0.1279  0.0552
28451W        W47985  12.045  12.845   9.375  0.2667 -0.0083  0.3579
28452W        W47986  17.783  17.117   4.136 -0.1019  0.1600 -0.4941
28453W        W47987   0.464   3.373  10.980 -0.0851 -0.1364 -0.2163
28454W        W47988  12.029   2.775  12.166 -0.1565 -0.2815 -0.0080
28455W        W47989  16.829  11.942  11.709  0.1129  0.1428  0.0181
28456W        W47990  15.127   0.324  14.025 -0.2002  0.0141  0.1589
28457W        W47991  14.800  12.813  14.294  0.0986  0.2561 -0.2008
28458W        W47992  19.139   7.320   3.599 -0.0004 -0.1371 -0.0174
28459W        W47993  18.121   9.864  13.847  0.1970  0.2028 -0.2272
28460W        W47994  17.345  13.121  10.748  0.0839 -0.0685  0.0304
28461W        W47995   3.894  12.579   4.195  0.3618 -0.0351 -0.0002
28462W        W47996   9.574   6.199   0.633  0.1204 -0.2384 -0.1708
28463W        W47997   0.810   4.850   3.242  0.0356 -0.0900 -0.0524
28464W        W47998  16.245  13.517   3.646  0.2348 -0.2264  0.0234
28465W        W47999  11.230  18.247   0.078 -0.2765 -0.2368  0.0620
28466W        W48000   8.042  17.776   0.756  0.2225  0.2213  0.0194
28467W        W48001  11.381   7.811  11.413 -0.3244 -0.0523 -0.1370
28468W        W48002   6.687  13.694   4.125  0.0826  0.1116  0.2411
28469W        W48003  13.672   4.629  10.081 -0.0328  0.1923 -0.2299
28470W        W48004  13.146  14.831   0.345  0.0144  0.0503 -0.0000
28471W        W48005  15.636   5.158   1.577  0.0044 -0.1095 -0.0294
28472W        W48006   7.801   2.061  13.813 -0.0773  0.0849  0.0173
28473W        W48007  14.343   6.708  13.463 -0.0585 -0.3326  0.1512
28474W        W48008   1.617  16.604  13.290  0.2129  0.1193 -0.2572
28475W        W48009  11.841   4.221  12.775  0.1029  0.1015  0.0837
28476W        W48010  12.263   7.312  12.462 -0.0591  0.1010  0.1212
28477W        W48011   0.156  16.765   0.047  0.0643  0.0305  0.4407
28478W        W48012   9.542   3.861   5.363  0.1529 -0.3552  0.1435
28479W        W48013  18.725   1.221  12.400 -0.2736  0.2141  0.1363
28480W        W48014  14.554   7.858  12.002 -0.3484 -0.2818  0.2180
28481W        W48015  11.676   2.777  11.805  0.1646 -0.0439 -0.3659
28482W        W48016  11.188   3.983  11.079  0.0755 -0.3594 -0.2069
28483W        W48017  12.486  14.123  12.600 -0.0839  0.1197 -0.2080
28484W        W48018   0.449   7.837  13.071  0.1110  0.0701 -0.0566
28485W        W48019   9.843  14.313  12.551  0.1759  0.3065 -0.1183
28486W        W48020   2.841  10.091  11.389 -0.2036 -0.1121 -0.0625
28487W        W48021   4.240   8.629   1.306  0.0512 -0.2566 -0.1088
28488W        W48022   7.422   8.488  12.990  0.0920  0.2701  0.1462
28489W        W48023   3.227  13.690  13.582 -0.0031 -0.0023  0.1312
28490ION     NA48024  17.819   2.694   9.827 -0.0174  0.1418  0.0224
28491ION     NA48025  12.607  12.022  10.639 -0.1669  0.0369 -0.0464
28492ION     NA48026   5.338  10.188  10.247  0.2358  0.2360  0.0122
28493ION     NA48027  18.207   9.534   4.856 -0.0718  0.1318  0.1830
28494ION     NA48028   6.387   2.862   4.804 -0.2261 -0.0286 -0.0877
28495ION     NA48029  15.029   9.551   4.649 -0.0868 -0.1105 -0.1013
28496ION     NA48030  13.481  15.863   9.458 -0.1384 -0.1874  0.0894
28497ION     NA48031   2.230   8.424  10.301  0.2272  0.0653 -0.0554
28498ION     NA48032   8.787  11.182   5.161  0.1220  0.1342 -0.1128
28499ION     NA48033  13.134  16.562   4.155  0.3949 -0.0447  0.0629
28500ION     NA48034   2.182  16.352   4.777  0.2382  0.1081 -0.0199
28501ION     NA48035  10.877  10.873   3.338 -0.0216 -0.0700 -0.0126
28502ION     NA48036  17.680  13.070   4.559  0.1642  0.0272  0.2662
28503ION     NA48037  14.624   5.845  12.438  0.1381 -0.3370 -0.1404
28504ION     NA48038  18.876  13.079   9.767  0.1584 -0.3599 -0.2786
28505ION     NA48039  19.283  18.066   4.501 -0.1546 -0.1568 -0.0764
28506ION     NA48040  13.864  13.822  12.278  0.1596  0.0156  0.0565
28507ION     NA48041   2.974   3.783   0.716 -0.0755 -0.1502  0.0484
28508ION     NA48042   1.074  17.441   4.556  0.1950  0.1898  0.0567
28509ION     NA48043   5.047  17.461   9.936  0.0863  0.1919  0.2010
28510ION     NA48044   9.528  11.573  10.111 -0.2793  0.1548  0.1915
28511ION     NA48045  17.200   1.049   9.552 -0.4076 -0.1234 -0.1575
28512ION     NA48046   2.186  11.142   5.084 -0.2035  0.0072  0.0154
28513ION     NA48047   9.505  12.576  10.228 -0.0793 -0.0745  0.3981
28514ION     NA48048  14.604   1.619   9.388 -0.0026  0.3617  0.3597
28515ION     NA48049   0.889   9.056   9.694  0.2124 -0.0341  0.1300
28516ION     NA48050   5.539   4.236  13.520 -0.0904 -0.1037  0.0616
28517ION     NA48051  10.361  14.673   4.953  0.2121  0.1134  0.0236
28518ION     NA48052  10.937  16.892   9.975 -0.0352 -0.0172  0.0448
28519ION     NA48053  13.800  10.821  14.243  0.0920 -0.1285  0.0551
28520ION     NA48054   7.743   2.632   9.550 -0.0040  0.0446  0.1422
28521ION     NA48055   6.173  16.542   3.731  0.1073 -0.0028 -0.4497
28522ION     NA48056  16.594   0.597   4.640  0.0774 -0.1364  0.1799
28523ION     NA48057   8.924  13.007   4.988  0.2016  0.0235  0.0900
28524ION     NA48058   8.087   5.495   4.595 -0.0302  0.1007 -0.4858
28525ION     NA48059   9.792  12.525   4.866 -0.2340 -0.2280  0.2297
28526ION     NA48060   9.412  10.765   5.024 -0.1410 -0.0361  0.0902
28527ION     NA48061   8.594  14.469  13.096  0.1382 -0.0370 -0.3648
28528ION     NA48062   0.865  13.049   4.688 -0.1016 -0.2282 -0.1802
28529ION     NA48063   7.377   3.556  11.179  0.2131  0.1799 -0.1075
28530ION     NA48064   5.060   5.205   4.303 -0.0403 -0.2794  0.1492
28531ION     NA48065  16.311  12.209   4.254  0.1033 -0.2407 -0.1370
28532ION     NA48066  16.545   9.072   9.413  0.1456 -0.0815 -0.0650
28533ION     NA48067  13.996  15.718  10.177 -0.0925  0.0645  0.3740
28534ION     NA48068   2.150   2.702   9.332  0.1161  0.0596 -0.1254
28535ION     NA48069   4.675   6.678   9.841  0.0047  0.2829  0.2494
28536ION     NA48070   6.064  18.845  13.291 -0.0384  0.2473  0.0783
28537ION     NA48071   8.277   5.642  13.150 -0.0826 -0.1347  0.1487
28538ION     NA48072  17.283   1.508   4.636  0.1138 -0.0468  0.2623
28539ION     NA48073   4.911  10.045   3.266 -0.2112 -0.0104 -0.2274
28540ION     NA48074   1.548   1.865   4.839  0.1737 -0.3944 -0.0419
28541ION     NA48075  14.379  19.316   4.411 -0.1382 -0.2192 -0.2708
28542ION     NA48076  17.055   6.248   1.661  0.1517 -0.0254  0.0845
28543ION     NA48077   9.697   2.779   4.470  0.2857 -0.1432  0.4535
28544ION     NA48078   0.075   7.228   9.666 -0.0205  0.2012  0.1279
28545ION     NA48079  10.878  14.757   9.681 -0.0246 -0.1706 -0.0556
28546ION     NA48080  10.670   1.366  11.218  0.0344  0.0244 -0.1391
28547ION     NA48081   6.966   1.443   5.061 -0.2062 -0.0326 -0.1798
28548ION     NA48082   7.902  18.990  12.172  0.1397  0.1954  0.0263
28549ION     NA48083  12.019   5.496   9.786 -0.2028 -0.2836  0.2562
28550ION     NA48084   1.183  18.959  10.890  0.0482 -0.1235 -0.1736
28551ION     NA48085  15.466  15.272   9.450  0.1308  0.1187  0.0134
28552ION     NA48086   2.303   2.163  12.062 -0.1338  0.2066  0.1093
28553ION     NA48087   1.552   0.043   4.855 -0.0674  0.1260  0.0587
28554ION     NA48088  12.300   2.983   9.346  0.1304  0.1377 -0.0926
28555ION     NA48089   3.130   3.975  12.576  0.1140 -0.1750  0.0910
28556ION     NA48090   3.901  14.757  11.968 -0.0904  0.1733 -0.0921
28557ION     NA48091  19.427   9.666   9.776  0.0619  0.3039 -0.1676
28558ION     NA48092  12.548  13.456   4.827 -0.0560 -0.1185  0.2351
28559ION     NA48093  11.804   4.062   9.684  0.2094 -0.0954  0.0932
28560ION     NA48094   6.127  14.905   2.813 -0.0630 -0.2696 -0.1851
28561ION     NA48095  18.909   4.659   9.703 -0.2314  0.0503  0.0500
28562ION     NA48096  13.593  18.729   0.996  0.1156  0.1850 -0.0860
28563ION     NA48097  10.377  18.730   3.825  0.2206 -0.0997  0.0272
28564ION     NA48098  14.567  13.571   9.390  0.3045  0.1259  0.0044
28565ION     NA48099   2.313   3.680   9.239 -0.0959 -0.2046 -0.0869
28566ION     NA48100   9.433   6.975   9.475  0.0060 -0.1298 -0.1649
28567ION     NA48101  14.881  11.806   9.503  0.0030  0.1900  0.2319
28568ION     NA48102   4.049  13.628   4.935 -0.0703 -0.0510 -0.2808
28569ION     NA48103  10.802  13.625  10.318  0.2751 -0.3403 -0.0876
28570ION     NA48104   4.490   8.256  10.463  0.2631 -0.1808  0.0955
28571ION     NA48105   8.909   5.296   4.835 -0.0377  0.1861 -0.3629
28572ION     NA48106  14.851  13.545   4.742 -0.0925 -0.2863  0.0710
28573ION     NA48107   2.293   0.858   9.795 -0.0519 -0.0936  0.1020
28574ION     NA48108   8.468   4.591   4.941 -0.0194  0.2012 -0.3939
28575ION     NA48109   7.256   2.444  12.046 -0.2628  0.1075 -0.2373
28576ION     NA48110   2.833   6.772   9.853  0.1499 -0.4524  0.1300
28577ION     NA48111  17.092  11.775   4.694 -0.2379  0.0671  0.1394
28578ION     NA48112  15.688  15.072  11.713 -0.0530 -0.0451 -0.3051
28579ION     NA48113   3.640  14.941   4.987 -0.1738  0.1831 -0.0476
28580ION     NA48114   8.527  17.516  12.224  0.1001 -0.2472  0.1251
28581ION     NA48115  16.757   1.427   4.638 -0.1586  0.0181 -0.1620
28582ION     NA48116   7.970  10.719  11.232 -0.1627  0.1421 -0.0136
28583ION     NA48117  18.303  11.033   9.261  0.1919  0.0512 -0.0412
28584ION     NA48118  13.294   6.678   9.668 -0.1112 -0.3708  0.0787
28585ION     NA48119   3.209  12.384   5.098  0.2528 -0.1856 -0.2538
28586ION     NA48120  19.208   3.785   9.866  0.1027  0.1901 -0.0052
28587ION     NA48121   3.847   8.241  13.475 -0.2557 -0.1240 -0.2089
28588ION     NA48122   8.058   3.599   4.643 -0.1575  0.2317  0.0020
28589ION     NA48123   4.326   5.940   9.665 -0.1670  0.1651 -0.0797
28590ION     NA48124  12.014   5.890   4.626 -0.3399  0.0554 -0.3688
28591ION     NA48125   8.231  13.303  10.007  0.0000 -0.3554  0.1718
28592ION     NA48126  17.158   9.289   3.612  0.1855 -0.1687  0.3059
28593ION     NA48127  16.287  15.358   9.266 -0.1065 -0.0514 -0.0801
28594ION     NA48128   0.797  12.980   9.481 -0.0150 -0.1448  0.0808
28595ION     NA48129  16.036  18.602   0.056  0.3356 -0.2380  0.0310
28596ION     NA48130  15.814  13.027   4.514  0.1104 -0.4185  0.1345
28597ION     NA48131   4.617  11.908  11.582 -0.1909  0.2476  0.0264
28598ION     NA48132  14.341   2.822   9.475 -0.1273 -0.1879  0.3150
28599ION     NA48133   4.780   5.680   5.124 -0.0653  0.1974 -0.0162
28600ION     NA48134   8.417  17.877   9.419 -0.1815  0.1176 -0.1762
28601ION     NA48135   7.280   6.363  11.860 -0.1099  0.2095 -0.1500
28602ION     NA48136   4.491  15.957   4.962  0.2634  0.1151 -0.1013
28603ION     NA48137  18.060   5.960  10.101  0.1333  0.0433  0.0041
28604ION     NA48138  16.899  14.582  14.101  0.1335  0.2853 -0.0253
28605ION     NA48139   7.066   9.471  10.337  0.0480  0.2984 -0.0318
28606ION     NA48140  18.748   2.757   4.635 -0.1053 -0.1702 -0.2223
28607ION     NA48141   2.458   9.489  10.189  0.0254  0.4237 -0.2514
28608ION     NA48142   9.013   4.390   0.077 -0.0551  0.2234  0.0579
28609ION     NA48143   8.275  13.620  10.961 -0.0563 -0.0563  0.1000
28610ION     NA48144  15.925  18.302   9.192  0.0978 -0.1499 -0.0308
28611ION     NA48145   3.811   0.302   2.711  0.2036  0.0551  0.0930
28612ION     NA48146   1.619   1.785   3.549 -0.1285  0.1445  0.1057
28613ION     NA48147   4.364  14.540   4.931 -0.1572 -0.3624 -0.1150
28614ION     NA48148   8.566  10.341   5.007  0.0082 -0.2395  0.3134
28615ION     NA48149   7.687  12.037   9.921 -0.0195  0.0105 -0.1779
28616ION     NA48150  18.432  13.557  12.993 -0.0097 -0.0041  0.2683
28617ION     NA48151  19.341   3.410   4.689  0.3412 -0.1239  0.2898
28618ION     NA48152   0.615  11.746   2.571  0.0861 -0.0759  0.1320
28619ION     NA48153   9.911  10.983  10.333  0.1299 -0.0180  0.0599
28620ION     NA48154  14.555  18.213   3.950  0.2404  0.3048  0.3608
28621ION     NA48155   0.614  18.382   4.506 -0.0406 -0.4670  0.3271
28622ION     NA48156   5.702  11.890   5.340  0.1470 -0.0347 -0.0742
28623ION     NA48157   2.569  13.615   4.779  0.0140  0.0538 -0.0638
28624ION     NA48158   5.525  11.121   5.532  0.0869 -0.1571 -0.4002
28625ION     NA48159  18.096   4.001   9.620 -0.1519  0.2252  0.1872
28626ION     NA48160   7.847   1.432   4.890 -0.1960 -0.1891  0.1233
28627ION     NA48161   3.109   5.529   9.648 -0.0063 -0.3654 -0.3892
28628ION     NA48162   5.913  18.513   4.350  0.2371 -0.0076  0.4208
28629ION     NA48163   0.747   3.778   9.616 -0.1486 -0.2115 -0.0082
28630ION     NA48164   6.522  19.207   4.667 -0.0021  0.2439  0.2576
28631ION     NA48165   2.404  12.899   5.034 -0.2536 -0.0181 -0.1467
28632ION     NA48166   5.692  14.763   9.927  0.0714  0.1049 -0.1125
28633ION     NA48167   5.767  15.716  10.153  0.0737 -0.2860 -0.1204
28634ION     NA48168   2.427   4.382  12.207  0.2346 -0.0208 -0.2112
28635ION     NA48169  18.974  15.101   4.257  0.0116 -0.1677 -0.1134
28636ION     NA48170   7.461  15.656   5.075 -0.2121 -0.1512  0.0588
28637ION     NA48171   3.017  16.364   4.862  0.2122  0.0535  0.1850
28638ION     NA48172   8.768   1.314   4.839  0.0891 -0.2093  0.3178
28639ION     NA48173  12.259   0.755   4.491  0.3026  0.0850 -0.2399
28640ION     NA48174  17.633  17.052  13.128 -0.1680 -0.0531  0.0577
28641ION     NA48175  18.166   3.490  13.851  0.2213 -0.1468 -0.0872
28642ION     NA48176   3.378  14.210   5.084  0.3774 -0.3188 -0.0107
28643ION     NA48177  12.501   8.081   4.715 -0.0295  0.1175  0.1254
28644ION     NA48178   9.333   7.827   9.739 -0.1043  0.0045  0.1114
28645ION     NA48179  14.735  18.583   4.302 -0.1845  0.1955  0.2536
28646ION     NA48180  15.919   6.229   5.071  0.2831 -0.0145 -0.4226
28647ION     NA48181  18.095   7.056   5.246 -0.0060 -0.0450  0.1111
28648ION     NA48182  12.519   6.044   9.466 -0.3621  0.1267  0.1199
28649ION     NA48183  14.163   4.899   5.063  0.1312  0.3123 -0.1517
28650ION     NA48184   7.039  11.436   5.289  0.1208 -0.0025 -0.2154
28651ION     NA48185  18.874  14.932   9.370  0.0269  0.0783 -0.0297
28652ION     NA48186   7.897   5.943   4.577  0.0606  0.0765 -0.0519
28653ION     NA48187  16.263  13.154   2.783  0.0092  0.1894 -0.1806
28654ION     NA48188   6.764  12.302  10.179 -0.1011  0.1061 -0.0475
28655ION     NA48189  17.180  13.748  11.551  0.3356 -0.4397  0.0182
28656ION     NA48190   8.495   8.701   5.169  0.3478 -0.1421  0.0281
28657ION     NA48191  16.334   8.835   5.075  0.1799  0.0827  0.1721
28658ION     NA48192  10.616  11.085   9.784 -0.1797 -0.1601 -0.0188
28659ION     NA48193   0.534  17.185  11.436 -0.0830  0.1848 -0.0378
28660ION     NA48194   7.914   9.275  14.259 -0.2565  0.0664 -0.2590
28661ION     NA48195   9.802   5.089   4.454 -0.2089 -0.2375  0.2509
28662ION     NA48196  15.347  13.850   9.580  0.1412  0.0693  0.1478
28663ION     NA48197   3.802   1.486   5.251 -0.1805 -0.0712  0.0811
28664ION     NA48198   2.556   8.108   2.276 -0.1018 -0.0505  0.2629
28665ION     NA48199  11.740   5.549   0.521 -0.1991  0.1828 -0.3760
28666ION     NA48200  18.547   9.720   2.844 -0.1110  0.2900  0.1024
28667ION     NA48201   2.670   3.919  13.305  0.1408 -0.2163  0.0758
28668ION     NA48202   5.437   5.969   3.417  0.1384 -0.1090  0.0781
28669ION     NA48203   7.072   8.652   5.216  0.1457  0.3178  0.0205
28670ION     NA48204   6.792   8.481  10.016  0.0254 -0.0532  0.0351
28671ION     NA48205   1.494  15.294   4.664 -0.0670  0.1565 -0.2644
28672ION     NA48206  11.735  12.142  11.059  0.3610 -0.1272 -0.0308
28673ION     NA48207  13.272   7.817   0.531 -0.1173  0.1115  0.2613
28674ION     NA48208  18.266  12.367   4.671  0.0471  0.0118 -0.1386
28675ION     NA48209   5.271   3.148  10.894 -0.0680 -0.0979  0.2016
28676ION     NA48210  12.762   9.305   9.652  0.2469 -0.0026  0.0513
28677ION     NA48211   7.086   6.592   1.394 -0.1605 -0.1183  0.0557
28678ION     NA48212  15.776   3.243   5.042  0.2249  0.0087 -0.2342
28679ION     NA48213  16.471  11.597   9.407  0.2497 -0.3185 -0.0546
28680ION     NA48214  18.260  15.398   9.078 -0.0342  0.0080 -0.1324
28681ION     NA48215   9.774  15.371   4.995  0.2612  0.1180  0.3379
28682ION     NA48216  17.757  18.643   4.460  0.0293  0.2193 -0.0092
28683ION     NA48217  10.392   4.623   9.769  0.2258 -0.1193  0.3298
28684ION     NA48218  17.036   5.429  10.280  0.1562 -0.2971 -0.1502
28685ION     NA48219  13.653   9.020  14.287 -0.1226  0.2132 -0.0287
28686ION     NA48220   7.528  17.745   9.706  0.1417  0.0119  0.3083
28687ION     NA48221   8.332  16.416   4.478 -0.2971  0.0653  0.1794
28688ION     NA48222   2.465  17.684   4.577 -0.0579  0.0700  0.0878
28689ION     NA48223  16.296  11.332   4.566  0.0150 -0.1292  0.1659
28690ION     NA48224  14.668  14.766   1.264 -0.0466 -0.0596 -0.1223
28691ION     NA48225  16.012   0.472   9.367  0.5159  0.1258 -0.1475
28692ION     NA48226   4.106  18.449   9.929 -0.0896  0.0881 -0.1222
28693ION     NA48227   9.352   4.043   4.848  0.1007  0.2653 -0.1072
28694ION     NA48228   8.413   0.622   4.789  0.1755 -0.0268 -0.1120
28695ION     NA48229  10.701  19.443   9.269  0.1221 -0.0337 -0.1740
28696ION     NA48230   4.472   3.975   0.494 -0.0768  0.1746  0.0168
28697ION     NA48231  14.498   0.093   9.377 -0.0662 -0.0785 -0.0857
28698ION     NA48232  17.096  10.528   9.578 -0.1159  0.1349 -0.0995
28699ION     NA48233   8.638   3.327   4.023  0.0035  0.0361  0.0777
28700ION     NA48234   6.459  13.134   5.305 -0.0672 -0.1139  0.2744
28701ION     NA48235  19.498  10.728   5.202 -0.0535  0.0003  0.0844
28702ION     NA48236   5.068   7.989   4.646 -0.2417 -0.0215 -0.1968
28703ION     NA48237   5.832  19.209   3.743  0.0681 -0.2721 -0.2001
28704ION     NA48238  18.829   4.444  12.827  0.0749 -0.2227  0.0898
28705ION     NA48239   1.940   7.286   9.651 -0.1011 -0.1295 -0.0227
28706ION     NA48240  15.777   0.001   9.312  0.0352  0.2887 -0.0267
28707ION     NA48241  14.962   1.209   4.604  0.1064 -0.3254 -0.1206
28708ION     NA48242  13.549  11.449  10.940  0.1915  0.0023 -0.2232
28709ION     NA48243  13.039   5.680   9.426 -0.2239  0.1862 -0.4128
28710ION     NA48244  15.382   5.514   1.830 -0.0346  0.3753 -0.1946
28711ION     NA48245   5.383  12.801   5.378 -0.2287  0.0180  0.0024
28712ION     NA48246   3.557   4.069  13.849  0.0137  0.0756 -0.3120
28713ION     NA48247  14.947  11.853  13.592  0.4189 -0.0849 -0.1957
28714ION     NA48248   9.137  18.555   9.276 -0.1574  0.1454  0.0602
28715ION     NA48249  12.361   4.199   4.719  0.1765 -0.2709 -0.1335
28716ION     NA48250  13.476   7.439   4.569  0.1079 -0.1604 -0.2031
28717ION     NA48251  18.530  12.818   4.685  0.2391 -0.1233 -0.1618
28718ION     NA48252  10.643   9.274   2.000 -0.1250 -0.0401 -0.1064
28719ION     NA48253   9.303   0.437   4.787  0.1019  0.2181 -0.0145
28720ION     NA48254   4.754  11.162   5.363  0.0142  0.0281 -0.1412
28721ION     NA48255   8.918  19.229  10.317 -0.1018  0.2584  0.2692
28722ION     NA48256  16.314  10.786   9.290  0.0590  0.2606  0.1640
28723ION     NA48257   0.512   5.183   4.728  0.1376 -0.0291 -0.0337
28724ION     NA48258   5.869  10.807  10.163 -0.0574  0.0044 -0.0703
28725ION     NA48259   5.307   4.442  11.929  0.1948 -0.1226 -0.0545
28726ION     NA48260   8.347  11.199   1.794  0.1659  0.2740  0.0708
28727ION     NA48261   8.036   9.555   5.165  0.5215  0.0354 -0.1587
28728ION     NA48262  15.728   8.172   4.762 -0.2280  0.3203 -0.0878
28729ION     NA48263  19.453  17.908   9.703 -0.2581  0.4402 -0.0528
28730ION     NA48264  11.252   3.251   1.268 -0.0918 -0.0899 -0.0466
28731ION     NA48265  17.443   0.631   4.323 -0.1141  0.3199 -0.2166
28732ION     NA48266  19.399   3.401   9.622 -0.1890  0.3440 -0.2207
28733ION     NA48267  13.809   0.753   9.298  0.0298 -0.2543 -0.2575
28734ION     NA48268   0.319  18.912  13.088 -0.0379 -0.0199 -0.0466
28735ION     NA48269   1.596  12.449  10.192 -0.3706  0.0867 -0.3267
28736ION     NA48270  15.740   7.170   5.099  0.1259  0.3320 -0.1005
28737ION     NA48271  13.172  13.179  11.119  0.0190 -0.1518 -0.1836
28738ION     NA48272  18.267   5.496   4.989 -0.0693 -0.0415  0.0726
28739ION     NA48273   3.110  10.795   4.725 -0.1478 -0.2170 -0.0907
28740ION     NA48274   7.176  18.788   9.822  0.1191  0.1307  0.0942
28741ION     NA48275  17.782   8.651  12.969  0.0776  0.2340  0.1560
28742ION     NA48276  12.297   3.815   9.858 -0.3777 -0.1063 -0.1034
28743ION     NA48277  16.309  14.601   4.530 -0.0230 -0.0376  0.3272
28744ION     NA48278  14.052   6.338   0.423  0.0838 -0.2939  0.5512
28745ION     NA48279  13.031  14.608   3.390 -0.0573 -0.0043  0.1999
28746ION     NA48280   7.825  15.685   9.900  0.1138  0.2878  0.3053
28747ION     NA48281  14.412  12.675   9.408 -0.2358  0.1375  0.3529
28748ION     NA48282   6.474   5.198   4.892  0.3153 -0.0283  0.1219
28749ION     NA48283   3.684  13.153  10.042 -0.0281  0.1656  0.1634
28750ION     NA48284   1.808   8.900   9.583  0.0444  0.0589 -0.0045
28751ION     NA48285  12.132  14.800   4.808 -0.0065 -0.1630  0.1124
28752ION     NA48286   1.173   3.156  11.385 -0.0342 -0.1866 -0.0416
28753ION     NA48287   7.727  18.315   4.867 -0.1130 -0.0065 -0.0096
28754ION     NA48288  13.003   0.314   4.297  0.0756 -0.1776 -0.1648
28755ION     NA48289   4.647   2.753   5.070 -0.1749 -0.1451 -0.0685
28756ION     NA48290  18.122   1.546   9.644 -0.0043 -0.0409 -0.2499
28757ION     NA48291  12.169  17.340   9.469 -0.2919 -0.0046 -0.2150
28758ION     NA48292   2.753   4.147  14.356  0.0754  0.0985 -0.2028
28759ION     NA48293   1.174  12.651   4.706 -0.0153  0.1027  0.3045
28760ION     NA48294   1.376   9.603  13.779 -0.0320 -0.2355 -0.0644
28761ION     NA48295   3.442   5.009  10.138  0.1397 -0.2029  0.0779
28762ION     NA48296   7.622  14.846   9.650 -0.1586 -0.0679 -0.1843
28763ION     NA48297   6.199  10.070  10.053 -0.0817 -0.2238  0.3870
28764ION     NA48298  15.691  14.597   9.747 -0.1248  0.1861  0.0472
28765ION     NA48299  15.942   8.678   4.166  0.0180  0.0898  0.1425
28766ION     NA48300  13.216   3.554  13.456 -0.1519 -0.0609  0.0986
28767ION     NA48301   5.340   1.873   9.398 -0.2629 -0.4373  0.2314
28768ION     NA48302   8.001  16.431  13.892 -0.1913  0.1417  0.2166
28769ION     NA48303  10.058   1.991   9.257 -0.1501  0.0442 -0.3079
28770ION     NA48304   6.781  14.012   5.251 -0.3022  0.2679 -0.0206
28771ION     NA48305  12.890  13.107   9.393 -0.0109  0.1330  0.2292
28772ION     NA48306   1.025  13.812   2.801 -0.2151 -0.1836  0.2449
28773ION     NA48307   6.305   8.732   5.215 -0.1167  0.3809 -0.1397
28774ION     NA48308  16.370  18.908   9.151 -0.2763 -0.1782 -0.1763
28775ION     NA48309  10.010   8.037   4.910 -0.3272 -0.0378  0.1640
28776ION     NA48310  13.808   9.229   9.669 -0.1948  0.2912 -0.0755
28777ION     NA48311  17.053   4.702   5.140 -0.2448 -0.0010 -0.1807
28778ION     NA48312  10.255  10.759   5.067 -0.1538 -0.1714 -0.1801
28779ION     NA48313  17.814   0.363   9.392  0.0761 -0.0408 -0.2244
28780ION     NA48314   0.877   8.760  13.580  0.2024 -0.5366 -0.1767
28781ION     NA48315  11.273  18.099   9.439  0.1949  0.0295  0.3143
28782ION     NA48316   9.003  15.140   4.357  0.1895  0.1625  0.0032
28783ION     NA48317   4.204  11.616   5.131  0.3749 -0.3138 -0.0849
28784ION     NA48318   3.895  12.251  10.185 -0.2068  0.0522 -0.3558
28785ION     NA48319   0.614  18.324   9.488  0.0487  0.1850 -0.0313
28786ION     NA48320  14.698  10.222   9.360  0.2618  0.1311 -0.2976
28787ION     NA48321   9.335  17.484   9.310 -0.3250  0.2604  0.0002
28788ION     NA48322  12.457   1.388   9.889  0.0123 -0.2866  0.0274
28789ION     NA48323  11.596  13.521  13.790 -0.0246  0.2183 -0.1805
28790ION     NA48324   8.309  18.622   9.248  0.2950 -0.1833 -0.4547
28791ION     NA48325   3.213  15.595  11.275  0.4597  0.1476  0.0880
28792ION     NA48326   3.228   5.808  11.951 -0.1642 -0.0853 -0.1422
28793ION     NA48327   8.170  19.228   4.775 -0.0068 -0.1599 -0.0205
28794ION     NA48328   6.796  18.459   4.902  0.1317 -0.0818 -0.2340
28795ION     NA48329  13.716  13.952   9.634 -0.3178  0.0224  0.0961
28796ION     NA48330   8.714  15.297   9.810  0.1418  0.4433  0.1677
28797ION     NA48331  16.323  19.490  13.020  0.0321  0.2472  0.4322
28798ION     NA48332   6.281  13.150   9.900  0.2363 -0.0048 -0.0827
28799ION     NA48333   9.494   5.983   9.848  0.0283  0.0358  0.0744
28800ION     NA48334  11.312   9.400   4.937  0.1842 -0.0372  0.1345
28801ION     NA48335  16.519  10.613   0.765 -0.1534  0.2260 -0.2875
28802ION     NA48336  18.663  13.967  11.350 -0.3068 -0.0741 -0.0840
28803ION     NA48337   2.683   6.310   9.746  0.2712  0.0287 -0.0848
28804ION     NA48338   0.058   8.758   9.862  0.2623  0.1606  0.0179
28805ION     NA48339   4.820  16.983   9.881 -0.0094 -0.0687  0.1764
28806ION     NA48340  16.163   6.604   1.113  0.0927  0.0474 -0.2253
28807ION     NA48341   9.063  10.142  10.010  0.1309  0.0731 -0.0223
28808ION     NA48342  16.434  11.540  13.104  0.1032  0.1323 -0.2699
28809ION     NA48343   5.525  16.538   9.849 -0.1641 -0.3488  0.0698
28810ION     NA48344  17.582   6.785   4.909  0.1032  0.0975 -0.3215
28811ION     NA48345   3.867   1.280   1.671 -0.0591  0.1689 -0.1851
28812ION     NA48346  18.920   8.090   5.206  0.1752 -0.3668 -0.0267
28813ION     NA48347   0.162  11.439   4.761  0.0995 -0.0319  0.1170
28814ION     NA48348   3.535  15.934   9.581  0.1732  0.2171  0.0553
28815ION     NA48349   7.433  13.757  11.218 -0.1994  0.0418  0.0458
28816ION     NA48350  12.357  18.562   4.355 -0.2309 -0.0184  0.0018
28817ION     NA48351   0.859  15.576   3.071  0.0163 -0.1308  0.0438
28818ION     NA48352  13.976   2.270  12.908 -0.1861 -0.3386 -0.1391
28819ION     NA48353  14.885   3.411  10.996 -0.1733 -0.1093 -0.3007
28820ION     NA48354   6.682   0.958  13.507  0.2494 -0.1453  0.0065
28821ION     NA48355  16.754   1.047   1.404  0.3070  0.2706 -0.1672
28822ION     NA48356  13.807  15.893   4.632  0.0377  0.3602 -0.0848
28823ION     NA48357   6.912   9.476  12.225 -0.0609  0.2077 -0.2357
28824ION     NA48358   2.995   7.112  12.907  0.2217 -0.0659  0.1072
28825ION     NA48359  15.685  18.381  12.224  0.0499  0.0440 -0.0858
28826ION     NA48360  10.959   0.766   9.165  0.6080 -0.4904  0.0869
28827ION     NA48361  18.446   9.765   9.611 -0.0413 -0.1745 -0.3262
28828ION     NA48362   7.815  17.221   4.748  0.0384  0.2561  0.3067
28829ION     NA48363  15.715   3.185   9.617  0.2330  0.1442 -0.0555
28830ION     NA48364   6.215   7.029   9.815  0.2107 -0.1394  0.1412
28831ION     NA48365  15.176   6.947   4.332  0.0952 -0.2333  0.2124
28832ION     NA48366   2.112  15.846   1.649  0.1018 -0.1448  0.0353
28833ION     NA48367   2.994   0.373   4.857  0.3453 -0.2618  0.3645
28834ION     NA48368   6.681   2.868   9.751  0.2806  0.0822 -0.1235
28835ION     NA48369  11.907  12.735   4.757 -0.2839  0.0135 -0.0771
28836ION     NA48370   3.200  13.295   5.114 -0.1179  0.0723 -0.0565
28837ION     NA48371  17.633  10.403   9.519 -0.2286  0.3393  0.0180
28838ION     NA48372  19.201   0.078   9.484 -0.2581 -0.1798  0.1206
28839ION     NA48373  15.290   1.696   9.501  0.1799 -0.0152  0.0147
28840ION     NA48374   0.837  14.933  10.199 -0.1172 -0.1939 -0.2114
28841ION     NA48375  13.491  13.469   4.819 -0.2188  0.2289 -0.2117
28842ION     NA48376  19.485   0.981   9.653 -0.0498  0.3582 -0.1851
28843ION     NA48377   2.179   4.657  11.368 -0.1786  0.0646 -0.0231
28844ION     NA48378  19.497  18.758   4.677 -0.1587  0.0916  0.0365
28845ION     NA48379   8.267  12.900   5.052 -0.0392 -0.0365 -0.0795
28846ION     NA48380   5.675  18.298   3.060  0.0280 -0.1584 -0.2076
28847ION     NA48381   6.172   6.508   4.538 -0.0951 -0.2530  0.1097
28848ION     NA48382  18.635   0.654   4.701 -0.0920 -0.0839  0.0259
28849ION     NA48383  13.120  11.295   9.690  0.1869 -0.2652 -0.1565
28850ION     NA48384   3.854  10.799   5.239  0.0282 -0.0333  0.1866
28851ION     NA48385   9.465   3.557  10.035  0.0289 -0.2276 -0.2521
28852ION     NA48386  13.687   0.490   4.449 -0.1348 -0.2693  0.2581
28853ION     NA48387  14.015  17.190   9.327 -0.1271 -0.0177  0.1349
28854ION     NA48388   2.765   4.807   9.434 -0.1648  0.2670  0.0570
28855ION     NA48389  15.902   9.350  12.405 -0.0244  0.0960  0.0669
28856ION     NA48390  16.817   2.048   9.387 -0.3753 -0.0463 -0.1125
28857ION     NA48391   8.226  15.466   4.871 -0.0083  0.0020  0.0799
28858ION     NA48392  13.828   0.212  13.591 -0.1673  0.2166 -0.2482
28859ION     NA48393  12.778   8.929   4.801  0.1290 -0.0455  0.0783
28860ION     NA48394   1.599  16.732   9.667  0.0889  0.3875 -0.0121
28861ION     NA48395  10.229  16.345   9.703 -0.0814  0.2919  0.0087
28862ION     NA48396  18.707   6.661   4.535 -0.3021  0.0390 -0.1128
28863ION     NA48397   5.821   6.199   9.777 -0.2224  0.0066 -0.0942
28864ION     NA48398  17.049  13.839   9.801 -0.0429  0.0175  0.3118
28865ION     NA48399   0.641  13.669   3.886  0.3208 -0.1561  0.0418
28866ION     NA48400  14.650   9.461   9.344 -0.1525  0.0430 -0.2434
28867ION     NA48401   1.325   4.597   1.911 -0.0861  0.0860 -0.0155
28868ION     NA48402  11.612   7.803   4.923  0.1839 -0.2591  0.0799
28869ION     NA48403   2.967   2.436   4.995 -0.0657 -0.0072  0.0183
28870ION     NA48404   2.231   3.617   1.399  0.0041 -0.0907 -0.1945
28871ION     NA48405   1.636   1.534   4.436 -0.1513 -0.3054  0.0623
28872ION     NA48406   1.819  12.426   2.672 -0.1045 -0.0460 -0.1249
28873ION     NA48407  14.027   4.190   2.846 -0.0005 -0.0544 -0.2801
28874ION     NA48408  14.660   7.079  10.052  0.0332  0.1317  0.0612
28875ION     NA48409  16.337   2.592   2.926  0.0977  0.2594  0.1190
28876ION     NA48410   0.961  14.279   4.639 -0.1400  0.0755  0.0071
28877ION     NA48411   9.865  13.366  10.146 -0.0855  0.2663  0.0634
28878ION     NA48412   0.753  12.420   9.682 -0.1303 -0.0780 -0.1822
28879ION     NA48413  12.723  17.887  11.904  0.0847  0.0729  0.3910
28880ION     NA48414   9.813  13.481   3.049  0.0299 -0.0225 -0.1128
28881ION     NA48415  19.291  10.748   3.938  0.0457 -0.2927 -0.0741
28882ION     NA48416  17.490   3.208   9.448  0.2071  0.1593 -0.0815
28883ION     NA48417  15.393   1.776   3.452 -0.3608  0.1662 -0.2199
28884ION     NA48418  17.417   5.410   5.101  0.0423  0.0276 -0.0995
28885ION     NA48419  18.857   7.242   4.942 -0.0503  0.2050 -0.2730
28886ION     NA48420  14.997   4.088   9.507  0.1045 -0.2127 -0.1878
28887ION     NA48421   6.150   4.592   4.423  0.0368 -0.1577  0.1030
28888ION     NA48422  12.988   9.541  12.935  0.0412  0.1328  0.4272
28889ION     NA48423  13.356  11.428   4.477 -0.0809  0.2459  0.0676
28890ION     NA48424   0.682   2.115   9.447 -0.1374  0.2811  0.1205
28891ION     NA48425  13.964  11.415   9.568 -0.3320  0.0390  0.0087
28892ION     NA48426   1.920   4.704   9.680  0.0734  0.3809  0.2055
28893ION     NA48427   2.475  18.179   3.191 -0.1414  0.1839 -0.1798
28894ION     NA48428   1.243  10.122   4.990  0.1381  0.0850  0.0084
28895ION     NA48429  18.815  11.139   5.045 -0.0678  0.4402 -0.1312
28896ION     NA48430  16.415   5.368   5.065  0.2788 -0.0962 -0.3629
28897ION     NA48431  14.504   8.675   9.533  0.1355  0.0136  0.0689
28898ION     NA48432  16.828  16.676  11.082 -0.2385 -0.0340  0.0749
28899ION     NA48433  11.943   8.625   5.008 -0.1456  0.2765  0.0548
28900ION     NA48434   2.869   7.542   9.910  0.3000  0.3748 -0.1378
28901ION     NA48435   1.251   8.348   5.050 -0.1456 -0.0795 -0.0938
28902ION     NA48436  14.182  12.373   4.783 -0.0111  0.1017 -0.1812
28903ION     NA48437   7.824  13.970   5.185  0.2469 -0.1429 -0.4010
28904ION     NA48438   9.177  19.046   4.690  0.0456  0.0714 -0.3471
28905ION     NA48439  15.354   8.946   9.634  0.0541  0.3195 -0.1592
28906ION     NA48440  11.293  17.039   4.288 -0.1459  0.1908  0.3921
28907ION     NA48441  10.139  12.869  13.130 -0.1223  0.1843 -0.1528
28908ION     NA48442  10.958   6.643   9.736 -0.1513 -0.1314 -0.1534
28909ION     NA48443   2.524  13.968   2.084 -0.0691 -0.0892  0.5034
28910ION     NA48444  12.370  17.612  11.000  0.1646  0.4109 -0.3093
28911ION     NA48445  13.973   9.689   9.639  0.0321 -0.1462  0.0993
28912ION     NA48446   1.916   6.338   9.617 -0.1211 -0.0158 -0.2445
28913ION     NA48447   9.380  11.650  13.526  0.2051  0.2261  0.4308
28914ION     NA48448   0.383  10.619   2.272  0.1383  0.1078 -0.1736
28915ION     NA48449  16.348  17.501   3.891  0.0475 -0.2130 -0.2142
28916ION     NA48450  11.212  10.960   4.867  0.2136 -0.1824  0.0822
28917ION     NA48451   8.741   6.452   9.842  0.2348  0.1387 -0.2195
28918ION     NA48452  15.487  15.126   4.444  0.0386 -0.1006 -0.1805
28919ION     NA48453   7.515   7.766   9.925 -0.2014 -0.4418  0.0771
28920ION     NA48454  12.025  11.060   4.823 -0.0306  0.1478  0.4380
28921ION     NA48455  10.545   4.865   1.642  0.1108 -0.1910 -0.2024
28922ION     NA48456   7.367   2.941   4.866  0.1864 -0.0248  0.1409
28923ION     NA48457   4.954  13.582   5.341 -0.0892 -0.3090  0.4495
28924ION     NA48458   8.192  11.270  12.739 -0.1582 -0.2879 -0.0454
28925ION     NA48459   4.223  13.313  10.295  0.2010 -0.3349 -0.0716
28926ION     NA48460  15.695   5.793   5.103 -0.3555 -0.1988 -0.0083
28927ION     NA48461  10.767   0.181  11.682  0.1928  0.4647  0.0149
28928ION     NA48462   9.853  11.450   1.031 -0.0472  0.1484 -0.1553
28929ION     NA48463   4.569  10.137  10.485  0.0018 -0.1262  0.0835
28930ION     NA48464  19.360   6.797   9.821  0.2694  0.1321  0.2164
28931ION     NA48465  15.945  17.335   8.840 -0.1163 -0.2240 -0.0016
28932ION     NA48466   4.129   6.207   4.928  0.1537  0.3348 -0.0712
28933ION     NA48467   6.007  14.538   5.160 -0.1247 -0.2403  0.2694
28934ION     NA48468  16.669   7.981   5.304  0.0953  0.0951  0.2857
28935ION     NA48469   2.742   5.989   4.844  0.0521 -0.0750  0.0292
28936ION     NA48470   0.081  13.315  10.897 -0.0799  0.1623 -0.1066
28937ION     NA48471   1.388  12.635   0.406  0.2768  0.2884 -0.1107
28938ION     NA48472   2.122   2.291  10.654  0.2590 -0.0822 -0.1864
28939ION     NA48473   0.180   6.865   4.282  0.1392 -0.0432 -0.5042
28940ION     NA48474  18.058   5.092   9.720  0.2608  0.0040 -0.0539
28941ION     NA48475  14.471   6.603   9.926 -0.0478  0.1703  0.1021
28942ION     NA48476  19.083  17.051   4.500 -0.0685 -0.2541  0.0769
28943ION     NA48477  11.477  15.908  11.252  0.0625 -0.2958 -0.0692
28944ION     NA48478   4.077  17.503   9.856  0.0909 -0.0764  0.4052
28945ION     NA48479  15.338   0.841   9.506 -0.0141  0.0701 -0.0758
28946ION     NA48480  11.505  11.961   4.780 -0.1943  0.0494  0.1886
28947ION     NA48481  13.374   8.454   2.333 -0.0002  0.3597  0.0461
28948ION     NA48482  15.923  12.192   9.582  0.0197 -0.3493 -0.1536
28949ION     NA48483  16.744   8.597   2.395  0.2302  0.1761 -0.2253
28950ION     NA48484   4.847   7.504   4.701  0.0929 -0.1848  0.2387
28951ION     NA48485  18.598  14.739   1.936 -0.0215  0.1661  0.3846
28952ION     NA48486   7.980  16.470   4.863 -0.1697  0.1582 -0.1468
28953ION     NA48487  17.194  18.017   4.137 -0.1616 -0.0193 -0.0964
28954ION     NA48488  15.158   3.903   5.096  0.0164 -0.2299 -0.1348
28955ION     NA48489  14.198  13.028   3.973 -0.0946  0.0179  0.1296
28956ION     NA48490   0.829   3.310   2.775 -0.1022 -0.0958  0.1161
28957ION     NA48491  19.109  10.489   9.592  0.2206  0.0465  0.0510
28958ION     NA48492   6.405  15.471  10.054  0.0931 -0.0369  0.0167
28959ION     NA48493   9.404  16.629  12.248  0.0667 -0.1495 -0.0891
28960ION     NA48494  19.081   5.729   4.615 -0.2753  0.1324 -0.1866
28961ION     NA48495   9.114   9.412   5.187 -0.3611  0.0412  0.2982
28962ION     NA48496   7.662   0.820   9.490  0.1363 -0.1070 -0.1201
28963ION     NA48497   3.268  14.983   9.910  0.0989 -0.1692 -0.0250
28964ION     NA48498  12.007   4.740  10.196 -0.0918  0.1679  0.3866
28965ION     NA48499   5.487   0.576   4.467 -0.0778  0.1535  0.2017
28966ION     NA48500   7.942   8.635   5.125 -0.0574 -0.0738  0.0547
28967ION     NA48501   8.380  12.422  10.368 -0.3414 -0.0690  0.2124
28968ION     NA48502  18.515   8.802   9.752 -0.4398  0.2069 -0.2607
28969ION     NA48503   5.365  13.945   3.291  0.0217 -0.1419  0.1864
28970ION     NA48504  16.586   7.200   4.805 -0.3525  0.0014  0.0638
28971ION     NA48505  14.174  13.695   4.647 -0.2941  0.1330 -0.2200
28972ION     NA48506   4.622   3.593   9.531 -0.2851  0.3414  0.3019
28973ION     NA48507   7.439  14.807   5.146 -0.3612 -0.1326  0.0026
28974ION     NA48508   4.118   9.210   5.241  0.2679  0.0592  0.0909
28975ION     NA48509   9.043  12.066   4.814  0.0689 -0.0312 -0.2034
28976ION     NA48510  12.432  11.113   9.752 -0.0892 -0.1917 -0.1726
28977ION     NA48511  13.488   5.482   4.799  0.2528  0.0191 -0.2934
28978ION     NA48512   2.412  15.671   4.641 -0.1940  0.1213 -0.0654
28979ION     NA48513  15.680   9.811   9.992  0.1181 -0.2066  0.1759
28980ION     NA48514   5.230  15.621   4.724  0.0562 -0.0545 -0.1779
28981ION     NA48515  17.659   8.211   5.291  0.2595  0.3832 -0.0131
28982ION     NA48516  11.417   7.841   3.594  0.0070  0.0694  0.0858
28983ION     NA48517   8.358   7.118   4.833 -0.0260  0.5495 -0.0401
28984ION     NA48518  19.210  13.860  10.005  0.2112  0.0902  0.1356
28985ION     NA48519  12.658   9.431   4.839  0.1742  0.4558 -0.0704
28986ION     NA48520   2.838  18.576  13.601  0.0515 -0.2002 -0.0772
28987ION     NA48521  14.405  10.191   4.213 -0.2444 -0.0616  0.0429
28988ION     NA48522  14.853  14.395   4.537 -0.0318 -0.0433 -0.1056
28989ION     NA48523  19.288   1.056  13.020  0.1979  0.2204  0.4986
28990ION     NA48524  15.286   2.506   9.490 -0.2193 -0.2680  0.1351
28991ION     NA48525  18.714  15.999  11.194 -0.0132  0.1074 -0.1151
28992ION     NA48526  13.146   8.111  11.052 -0.2976 -0.1777 -0.1405
28993ION     NA48527  10.779  17.610  13.060  0.4155 -0.0970 -0.0183
28994ION     NA48528  17.462  12.232   4.653 -0.1074  0.2042  0.1110
28995ION     NA48529  17.324   3.732   4.795 -0.0798 -0.1642  0.1365
28996ION     NA48530   5.669  11.121   0.426  0.1195  0.1023  0.0337
28997ION     NA48531   3.116   1.066   9.498  0.1174 -0.0817  0.0556
28998ION     NA48532  17.881   9.710   9.724  0.0346  0.0920 -0.0691
28999ION     NA48533  17.812   2.082   2.430 -0.0216  0.2074 -0.0094
29000ION     NA48534   7.315  17.834  13.679  0.1531  0.3501  0.0572
29001ION     NA48535   6.021  18.797   9.839 -0.2172 -0.3965 -0.2785
29002ION     NA48536  12.820   3.003   9.386 -0.1348  0.0829 -0.2127
29003ION     NA48537   4.028   8.344   5.118 -0.0346 -0.1637  0.2935
29004ION     NA48538   4.371  14.596  10.769  0.0476  0.3785 -0.2238
29005ION     NA48539   9.319  18.827  11.323  0.1993  0.1482  0.3242
29006ION     NA48540  14.154   3.810  11.468  0.1243  0.2833 -0.1169
29007ION     NA48541  12.017  10.321   9.626  0.3803 -0.1058  0.0357
29008ION     NA48542   1.846   0.851  11.323 -0.0836 -0.0137  0.5395
29009ION     NA48543   9.716   6.564   3.442  0.1756  0.1000  0.1192
29010ION     NA48544  12.960  15.488  13.314 -0.0986 -0.0099 -0.0007
29011ION     NA48545   2.845  14.851   4.783  0.1902 -0.0948  0.1181
29012ION     NA48546  17.727   6.187  12.219  0.0228  0.1266  0.3896
29013ION     NA48547   9.021   5.308   9.783  0.4901 -0.1991  0.1421
29014ION     NA48548   8.774  19.392   9.293  0.0311  0.0015  0.4521
29015ION     NA48549  18.048  16.294   9.065  0.4031  0.0264 -0.2239
29016ION     NA48550   3.368   6.671   4.886  0.1956  0.1592 -0.2540
29017ION     NA48551  10.624   5.062   4.891  0.0928  0.4149  0.1563
29018ION     NA48552  10.148   7.554   9.493  0.0560 -0.0560 -0.1708
29019ION     NA48553   9.736  14.598   9.615  0.3797  0.0033 -0.0646
29020ION     NA48554  13.141  10.804   1.344 -0.1351 -0.0644  0.0154
29021ION     NA48555  18.979  15.354  12.927 -0.0353 -0.0417  0.3030
29022ION     NA48556   6.240   7.817   9.734 -0.1743  0.0230  0.2830
29023ION     NA48557  14.289   4.309   9.688  0.1810 -0.0623  0.0586
29024ION     NA48558   7.457  16.022   3.438 -0.2562 -0.0552 -0.0448
29025ION     NA48559  15.458  18.673   9.628 -0.0878  0.1606  0.3972
29026ION     NA48560   3.145   9.254  10.180  0.5022 -0.0066  0.1034
29027ION     NA48561  13.391   6.467   4.785 -0.7075 -0.3053  0.1078
29028ION     NA48562   4.995  18.760  13.966  0.2214 -0.3232  0.2503
29029ION     NA48563   2.273  15.826  11.271  0.1278  0.1741 -0.1644
29030ION     NA48564  14.254   2.724  11.459 -0.3536  0.1453 -0.1574
29031ION     NA48565  11.683  17.112  13.259  0.0611 -0.2737 -0.0557
29032ION     NA48566   5.868  13.701   5.104  0.1093  0.1416  0.0433
29033ION     NA48567   8.497  11.282   4.307 -0.0024  0.0589 -0.0293
29034ION     NA48568   4.468  12.493  12.798 -0.0862  0.0601 -0.1779
29035ION     NA48569  16.317  15.377   4.566 -0.1006  0.1298  0.2786
29036ION     NA48570   8.449  11.637   9.799  0.2653  0.0022 -0.2911
29037ION     NA48571   7.136  12.612   9.909 -0.2642  0.1524  0.2308
29038ION     NA48572   6.034  11.859   3.913 -0.1938  0.1556 -0.0468
29039ION     NA48573   1.002   4.649   9.493 -0.2614 -0.2863 -0.1552
29040ION     NA48574  17.956   7.044  12.480 -0.1584 -0.0242 -0.0921
29041ION     NA48575   1.627   2.454   4.660  0.0988 -0.1502 -0.2879
29042ION     NA48576  10.668  19.388  13.116 -0.1650 -0.2983 -0.0333
29043ION     NA48577   1.910  17.979   9.460  0.3383  0.1028  0.1065
29044ION     NA48578  14.883   3.226   5.088 -0.3185  0.1238  0.1261
29045ION     NA48579   9.031  11.008   9.858  0.2772 -0.2670 -0.0803
29046ION     NA48580  15.881  18.291   4.148 -0.0704 -0.2325 -0.2869
29047ION     NA48581   9.043  18.027   4.405  0.1131 -0.1626  0.0989
29048ION     NA48582   1.533   4.059   9.239  0.0863 -0.1440  0.0474
29049ION     NA48583   3.612   6.253   9.703 -0.3894 -0.2230 -0.1810
29050ION     NA48584  12.241   9.168   2.330  0.2865  0.0918  0.0994
29051ION     NA48585  11.544  14.773   4.759 -0.1190 -0.3214 -0.1545
29052ION     NA48586   4.083   1.742   9.471 -0.1042  0.0860 -0.0523
29053ION     NA48587   3.904   4.304   9.514  0.0268 -0.0351  0.0353
29054ION     NA48588   5.965   4.500   4.889 -0.0978  0.0350  0.0202
29055ION     NA48589   3.566  16.464   5.015  0.0855 -0.0390 -0.0891
29056ION     NA48590   6.956  10.462   5.255 -0.1134 -0.1620 -0.3067
29057ION     NA48591   1.114  10.383  12.834  0.4305  0.0453  0.0304
29058ION     NA48592  18.266  15.975   4.588  0.0604  0.3431  0.0529
29059ION     NA48593   7.764   8.925  10.224 -0.2246 -0.3558 -0.0984
29060ION     NA48594  10.207  15.452   9.625  0.1883  0.0617  0.2121
29061ION     NA48595  11.906  18.160   9.337 -0.2259 -0.0003 -0.0801
29062ION     NA48596  14.538  11.961   4.852 -0.1496  0.1790  0.1103
29063ION     NA48597  16.154  18.996  11.534 -0.2081  0.3076  0.1785
29064ION     NA48598  13.123  16.507  13.294 -0.1459 -0.0506  0.0198
29065ION     NA48599   8.190  14.826   9.662 -0.0937 -0.2348 -0.0776
29066ION     NA48600  13.467   2.238  11.075  0.3455 -0.1088  0.1344
29067ION     NA48601  11.673   3.806   4.406 -0.3440  0.0761  0.1400
29068ION     NA48602  14.752  16.089   0.085 -0.0949  0.1797 -0.0527
29069ION     NA48603  14.514  17.370   3.978  0.0520  0.1176 -0.4470
29070ION     NA48604  15.310  17.818   3.930  0.3374 -0.0005  0.2811
29071ION     NA48605   3.018   7.668   4.935  0.2133  0.2372  0.0055
29072ION     NA48606   8.831   2.830   9.754  0.0976 -0.1531  0.2272
29073ION     NA48607   5.542   4.329  10.669  0.2051  0.0125  0.1633
29074ION     NA48608  14.001   3.752   4.902 -0.3222 -0.1293  0.1180
29075ION     NA48609  17.155  12.959   9.630  0.1721  0.0890 -0.4065
29076ION     NA48610   4.985   5.268   9.974 -0.0602 -0.0843 -0.0924
29077ION     NA48611  11.543   3.346  11.068 -0.2782  0.0518 -0.0306
29078ION     NA48612   5.484   4.932   9.677 -0.0624  0.2076 -0.0863
29079ION     NA48613   0.268  14.900   4.547 -0.0177 -0.1747 -0.2685
29080ION     NA48614   1.019  11.382   9.804 -0.1453  0.0458 -0.4691
29081ION     NA48615  19.059   2.799  14.369  0.1236 -0.0670  0.0869
29082ION     NA48616   5.159  10.255   5.340 -0.1936 -0.1579  0.1476
29083ION     NA48617  14.831   3.544   4.190 -0.0194  0.3543  0.0706
29084ION     NA48618   3.940   2.212  12.924  0.0115  0.4121  0.0235
29085ION     NA48619  13.606  17.819   9.222 -0.0522  0.0333  0.1085
29086ION     NA48620   1.693   6.450   5.040  0.0413 -0.0255  0.1364
29087ION     NA48621  10.358   0.338   4.655  0.2197 -0.2571  0.0200
29088ION     NA48622  19.236  18.765  10.935 -0.2859 -0.0869  0.0263
29089ION     NA48623   4.861  16.602  12.236  0.0074 -0.0352  0.0964
29090ION     NA48624  13.472  12.043   9.506  0.1344 -0.1110 -0.0126
29091ION     NA48625   9.017   7.756  10.993  0.0691 -0.1383 -0.2377
29092ION     NA48626  16.406   2.866   5.004 -0.0500  0.3574 -0.0001
29093ION     NA48627  18.294  14.887   9.875 -0.0249  0.0237 -0.1756
29094ION     NA48628  13.187  12.315   0.690 -0.2397 -0.2521 -0.0125
29095ION     NA48629  17.161   4.973   4.434 -0.1821  0.1909  0.0376
29096ION     NA48630  15.509  11.837   4.773  0.2638 -0.0484  0.0988
29097ION     NA48631  15.560  14.073   4.730 -0.1830 -0.0370  0.4528
29098ION     NA48632  16.924   0.055   9.504 -0.2952 -0.0494  0.1882
29099ION     NA48633   8.881   3.774   4.812  0.1056 -0.0618 -0.0258
29100ION     NA48634   1.999  18.428   4.534  0.1627  0.0432  0.0617
29101ION     NA48635  18.206  12.061   9.320 -0.0838 -0.1201  0.1750
29102ION     NA48636   6.028   2.380  13.829  0.1699 -0.0727  0.1200
29103ION     NA48637   0.376   1.120   4.673  0.0333 -0.1122  0.2673
29104ION     NA48638  16.897   0.723   9.267 -0.2291  0.2366  0.2596
29105ION     NA48639  18.398  17.682   4.333 -0.0225  0.1798  0.2580
29106ION     NA48640  19.404  13.215   4.341  0.2400  0.2620 -0.0688
29107ION     NA48641  13.143   3.667  11.676  0.1612 -0.0377  0.1686
29108ION     NA48642   5.423   0.437  12.819 -0.5037 -0.1050 -0.1860
29109ION     NA48643  17.244   7.705   5.226 -0.0815  0.2106 -0.0403
29110ION     NA48644   4.867   8.828   5.133  0.0790  0.0576  0.1031
29111ION     NA48645  17.930   0.967   4.744  0.0416 -0.0816 -0.2081
29112ION     NA48646  16.218   4.325   9.765 -0.3892 -0.0242 -0.0344
29113ION     NA48647   7.713  19.147   0.772  0.0183  0.1201 -0.0250
29114ION     NA48648  11.374   5.703   4.034 -0.0698  0.2042  0.1436
29115ION     NA48649  13.414  18.616   9.233  0.1496  0.0298  0.4393
29116ION     NA48650  17.106  14.802   4.731 -0.2772  0.1987  0.0426
29117ION     NA48651   2.990  11.534  10.333 -0.3842  0.0116 -0.2690
29118ION     NA48652  14.132   9.083   4.700  0.1872 -0.0027 -0.0293
29119ION     NA48653   4.493   6.350  14.348  0.2850  0.0691 -0.0219
29120ION     NA48654  10.052   7.720  11.661  0.1606 -0.2532  0.1173
29121ION     NA48655   2.021  14.467   4.576 -0.1781 -0.1343 -0.0408
29122ION     NA48656   3.960  16.721   9.701  0.3487  0.0859 -0.0091
29123ION     NA48657   7.573  12.810  10.995 -0.4961 -0.1276  0.1035
29124ION     NA48658  15.897   0.744   4.690  0.1676 -0.0807 -0.1179
29125ION     NA48659  12.562   2.073   0.816  0.0366  0.4575  0.0336
29126ION     NA48660  19.474   7.671   5.331  0.0968 -0.0640  0.0466
29127ION     NA48661  17.642  16.423   4.496  0.1543  0.1486 -0.0461
29128ION     NA48662  14.105  15.307   9.178 -0.0838 -0.0484 -0.0828
29129ION     NA48663   2.027   9.374  10.521 -0.0531 -0.0918 -0.2312
29130ION     NA48664   7.256  17.702   4.996 -0.1619  0.1284  0.1607
29131ION     NA48665  19.120   8.100   9.859 -0.0642  0.1812  0.1814
29132ION     NA48666  16.931   6.418  10.092 -0.2231 -0.1115 -0.1969
29133ION     NA48667  14.021   7.908   3.596  0.1323  0.0359 -0.2843
29134ION     NA48668   4.767  18.737   4.549  0.0200 -0.2443 -0.2176
29135ION     NA48669  17.952  14.382   9.225 -0.0282  0.0120  0.1541
29136ION     NA48670  15.125  18.543  11.399  0.2229  0.2004  0.0373
29137ION     NA48671   3.172   5.029   4.812  0.1406 -0.1377 -0.2201
29138ION     NA48672  17.043   6.917  10.032 -0.1377 -0.0715  0.2254
29139ION     NA48673   8.692   3.518  13.569 -0.1197  0.1323 -0.1527
29140ION     NA48674  14.964  16.133   9.281  0.1972  0.0397  0.2758
29141ION     NA48675  10.949   3.911  12.098 -0.1180 -0.0811  0.2334
29142ION     NA48676   1.325   8.073   9.588 -0.0796  0.2720  0.3513
29143ION     NA48677   7.434   2.064   4.817  0.3685  0.2213 -0.1973
29144ION     NA48678  15.974  17.536  11.799  0.3186 -0.0733  0.1341
29145ION     NA48679   2.145   0.704   4.728  0.2731 -0.1353  0.2497
29146ION     NA48680   1.709   2.187   9.323 -0.1380 -0.1136  0.1777
29147ION     NA48681   5.201  14.703  11.307 -0.0895 -0.2047  0.2524
29148ION     NA48682  11.639   6.706   2.709 -0.1410 -0.1739 -0.3651
29149ION     NA48683   9.865   9.913   9.705  0.1464 -0.0430 -0.0529
29150ION     NA48684   9.960  13.843  10.074  0.2220  0.1054  0.2329
29151ION     NA48685   2.986  19.128   9.525  0.3331  0.0632 -0.0710
29152ION     NA48686  16.766  15.092  13.338 -0.1178 -0.1560  0.0683
29153ION     NA48687   2.101   3.526   4.525 -0.0425 -0.2716  0.3879
29154ION     NA48688   3.677  10.984  10.101  0.0407  0.1662  0.3108
29155ION     NA48689  10.203   5.758   4.933  0.0506 -0.1354  0.0314
29156ION     NA48690  14.492   5.771  10.033 -0.1142  0.0239  0.2091
29157ION     NA48691  19.469  10.940   0.086  0.0151  0.0254 -0.5391
29158ION     NA48692  18.798  10.920  12.557  0.1929  0.0761  0.0781
29159ION     NA48693  18.891   4.113   4.756 -0.2131  0.1543 -0.0094
29160ION     NA48694  15.729  11.026   4.983 -0.0615 -0.3274  0.0923
29161ION     NA48695  17.741   2.293   9.550 -0.0752  0.0396  0.3637
29162ION     NA48696   1.863  12.099   5.000  0.1052  0.0165 -0.3644
29163ION     NA48697  13.939  19.399   9.036  0.2686  0.2168 -0.3551
29164ION     NA48698  11.152   5.228   9.688  0.0207 -0.2648 -0.1230
29165ION     NA48699   2.218  14.281   9.814 -0.1450 -0.0929  0.0349
29166ION     NA48700  17.586   9.125   5.167  0.2142 -0.2651  0.1097
29167ION     NA48701  14.568  17.859   9.071 -0.1272 -0.1255  0.0873
29168ION     NA48702   5.073  19.093   3.205  0.0326 -0.1194  0.1118
29169ION     NA48703  12.671  15.646   9.444  0.0550  0.0427 -0.0404
29170ION     NA48704   5.484   5.962   4.916  0.1554  0.0111  0.0192
29171ION     NA48705   7.801   3.465   9.711  0.0721 -0.2908 -0.1626
29172ION     NA48706  12.348  14.792   9.600 -0.1075 -0.0295 -0.0966
29173ION     NA48707  16.029   6.814  10.041 -0.1217 -0.0513  0.0674
29174ION     NA48708  16.995  14.790   9.147  0.2387 -0.0696  0.0543
29175ION     NA48709  18.151  14.193   4.688 -0.0328 -0.1799 -0.2315
29176ION     NA48710  11.094   7.950  11.769  0.0628  0.1579 -0.2519
29177ION     NA48711   3.491   1.757   4.270  0.1373  0.1537  0.1631
29178ION     NA48712   2.128  19.221   4.541  0.1850  0.1219  0.2540
29179ION     NA48713  18.287   8.045  11.711 -0.1059  0.2519 -0.2115
29180ION     NA48714  18.803   4.739   4.758  0.0480 -0.3219 -0.0816
29181ION     NA48715   5.533  11.833   0.599 -0.0226 -0.0373 -0.2705
29182ION     NA48716   0.435   8.059  10.009 -0.0510  0.3543  0.1293
29183ION     NA48717   1.588  17.671   0.422  0.1027 -0.0600 -0.1051
29184ION     NA48718   9.439  15.806   9.494 -0.0232 -0.1743 -0.0803
29185ION     NA48719   8.556   4.633   9.998 -0.1420  0.3754 -0.1319
29186ION     NA48720   2.683   9.375   5.111 -0.1299  0.0182  0.2221
29187ION     NA48721   2.665   5.112   4.586  0.1234 -0.1802  0.2520
29188ION     NA48722  13.283   4.591   4.905 -0.0458 -0.3447  0.1959
29189ION     NA48723   8.407  12.477   9.874  0.1876 -0.0906  0.0991
29190ION     NA48724  11.811   2.232   3.225  0.1103  0.1111 -0.0148
29191ION     NA48725   1.177   4.137  10.341 -0.0089  0.0127  0.2288
29192ION     NA48726  12.679  18.054   9.404 -0.0402  0.0778  0.2776
29193ION     NA48727  19.077   5.671   0.237 -0.0720  0.1177 -0.0786
29194ION     NA48728   5.050   7.447  14.226  0.2754  0.2326  0.0119
29195ION     NA48729   9.406   0.370   9.319 -0.1145  0.3146  0.2223
29196ION     NA48730  14.219   2.333   4.593  0.1932  0.3691  0.2208
29197ION     NA48731   5.855  10.651   3.382 -0.1433  0.0831  0.1539
29198ION     NA48732   0.590  11.372   5.017  0.0697 -0.1370 -0.1035
29199ION     NA48733   4.160   3.644   4.976 -0.1744 -0.5072 -0.0424
29200ION     NA48734  14.613  15.133   2.744 -0.2102 -0.2995 -0.1990
29201ION     NA48735   3.848   9.885  10.266  0.0531 -0.0953  0.0465
29202ION     NA48736   1.699  13.434   9.677 -0.0523  0.0024  0.1162
29203ION     NA48737   4.219   2.132   5.201 -0.1200 -0.1606 -0.2413
29204ION     NA48738   5.862   9.622   5.366 -0.0361  0.0379  0.0224
29205ION     NA48739   2.765  13.094   0.338 -0.0760  0.1398 -0.0513
29206ION     NA48740   6.602   1.431   0.598  0.1324  0.0310  0.1887
29207ION     NA48741   1.854  15.009  14.269  0.2379 -0.0120  0.0063
29208ION     NA48742  15.257   6.296   9.953 -0.0275 -0.1942  0.2165
29209ION     NA48743   1.212  18.955   4.705  0.1310  0.2304  0.0156
29210ION     NA48744  13.281  14.921   9.445  0.0037  0.0359 -0.2014
29211ION     NA48745  11.874   6.466   9.489  0.1446 -0.1770 -0.1567
29212ION     NA48746   8.201   9.510  13.263 -0.1495 -0.1407  0.1443
29213ION     NA48747  14.180   7.161   4.922 -0.0643  0.1720  0.4358
29214ION     NA48748  15.134  12.635   4.899 -0.1711 -0.0228  0.2471
29215ION     NA48749   2.766  15.473   9.633 -0.0127  0.2091 -0.0602
29216ION     NA48750  14.706  10.215   4.628  0.0480 -0.0141 -0.2711
29217ION     NA48751  18.603  10.809   4.518  0.0016  0.1224 -0.2304
29218ION     NA48752  15.772   5.286   9.730  0.0565 -0.0019 -0.1838
29219ION     NA48753   6.252  19.222  10.032 -0.1898 -0.0540  0.1921
29220ION     NA48754   4.201  14.842   9.955 -0.4814  0.1427 -0.0786
29221ION     NA48755  15.606  11.412   9.489  0.0155 -0.1481 -0.1253
29222ION     NA48756   0.419   8.116   9.547  0.0611 -0.1238  0.1040
29223ION     NA48757   1.370  16.224   4.524 -0.0862 -0.3945  0.4146
29224ION     NA48758  10.088  17.337   4.644 -0.0084  0.2048  0.1008
29225ION     NA48759  10.964   3.947   9.788 -0.0413 -0.0994  0.0396
29226ION     NA48760   7.033   4.373   4.775 -0.0298 -0.0118 -0.4921
29227ION     NA48761  10.847  18.459   9.952 -0.2592  0.1871 -0.0388
29228ION     NA48762  17.261  10.136   5.012  0.0822  0.1794  0.0803
29229ION     NA48763   9.559   1.814   4.768  0.1106 -0.0484 -0.2422
29230ION     NA48764  19.000  16.109  10.003  0.1724 -0.1267 -0.0072
29231ION     NA48765  12.915  10.740   3.127  0.1813 -0.3489  0.0867
29232ION     NA48766  11.757   9.306  12.884 -0.1135  0.3277  0.4579
29233ION     NA48767   6.633  15.285   4.931  0.2155 -0.1202  0.1391
29234ION     NA48768  13.226  19.064   3.587  0.1011 -0.0343  0.1178
29235ION     NA48769  16.415   4.081   4.833 -0.0837  0.0205 -0.0402
29236ION     NA48770  12.627  12.254   9.672 -0.3701 -0.0706  0.0786
29237ION     NA48771  14.781   8.480   4.601  0.0430  0.3648  0.0219
29238ION     NA48772   4.260  19.392   9.738 -0.1159 -0.2652 -0.0356
29239ION     NA48773   0.706   0.321   4.800  0.1902  0.1833  0.1524
29240ION     NA48774  17.940   0.003   4.586  0.1639  0.1213  0.0236
29241ION     NA48775  19.013  12.151   2.638 -0.1439  0.4379 -0.0934
29242ION     NA48776   6.913   7.581   5.194  0.0973  0.1092 -0.0521
29243ION     NA48777  10.556  18.112   4.114 -0.2956  0.3308  0.2193
29244ION     NA48778  18.892   6.049   9.993  0.1226  0.0757  0.1155
29245ION     NA48779   7.305   0.144   4.771 -0.2764 -0.0420 -0.0663
29246ION     NA48780  13.344  12.675   4.555  0.2007  0.0732  0.1285
29247ION     NA48781   0.440  11.613   9.554 -0.0923 -0.1260 -0.1328
29248ION     NA48782  17.231  18.026   2.467 -0.0878  0.0913 -0.1014
29249ION     NA48783   6.681  17.387  12.151  0.1270 -0.0090  0.0234
29250ION     NA48784  13.879  17.548  11.005 -0.1094  0.1662  0.0171
29251ION     NA48785   7.197   9.707   5.065 -0.0640 -0.2250 -0.0387
29252ION     NA48786  12.809  17.240   0.126 -0.1356 -0.4382 -0.0239
29253ION     NA48787   6.352  12.252   5.095 -0.1414 -0.2520  0.0289
29254ION     NA48788   0.651  16.678   4.654  0.2699  0.1291 -0.2802
29255ION     NA48789   8.321  18.848   4.508 -0.2107  0.1461 -0.3072
29256ION     NA48790   3.695   2.312   9.058  0.2123 -0.0590  0.0641
29257ION     NA48791   6.928  10.536  10.050  0.1650 -0.2053  0.3520
29258ION     NA48792   3.038  10.703   5.245  0.2305 -0.0547 -0.4581
29259ION     NA48793  18.076   9.649  11.460 -0.0191 -0.0634  0.1280
29260ION     NA48794   7.882   8.006   4.679 -0.1126 -0.2128 -0.0185
29261ION     NA48795   8.038   6.622   4.876 -0.1898 -0.4535 -0.0709
29262ION     NA48796  12.182  12.880  11.473  0.0843  0.0039  0.1171
29263ION     NA48797   5.177   6.894   9.968  0.1440 -0.0653  0.1455
29264ION     NA48798   3.440   5.830   2.503  0.1453  0.0555 -0.0061
29265ION     NA48799  15.638   2.272   5.046 -0.4416 -0.0879 -0.1527
29266ION     NA48800   0.203  12.288   4.586 -0.0638  0.0776  0.0065
29267ION     NA48801   2.889   8.506   4.986  0.3287  0.0819 -0.1176
29268ION     NA48802   7.100   0.221   9.869  0.1493 -0.1497 -0.1803
29269ION     NA48803  18.226  13.023   9.491  0.2748 -0.0135  0.0833
29270ION     NA48804  12.143  17.494   4.113 -0.1128  0.0925  0.1357
29271ION     NA48805   2.444   4.343   3.916  0.3251  0.2008  0.1135
29272ION     NA48806   7.681   9.679   3.827  0.4015 -0.1413 -0.2376
29273ION     NA48807  16.417   7.685   9.947  0.3089  0.1770  0.1804
29274ION     NA48808   3.316   8.100   9.953  0.0028 -0.0834 -0.5112
29275ION     NA48809  16.284  10.062   9.430 -0.2043  0.1082 -0.0298
29276ION     NA48810   3.726  18.181   4.823 -0.1684 -0.2297  0.1608
29277ION     NA48811  10.506   6.643   5.191  0.0846 -0.0233  0.3247
29278ION     NA48812   0.037  13.490   9.458  0.1580  0.1009 -0.1619
29279ION     NA48813   9.915   9.920   4.974  0.1334 -0.1353 -0.0449
29280ION     NA48814  18.465   6.767   9.668  0.0701 -0.3504 -0.1945
29281ION     NA48815   6.004   2.185   0.408  0.0092 -0.2616  0.0241
29282ION     NA48816  10.311   4.421   4.623 -0.0095 -0.3744  0.1636
29283ION     NA48817   9.325   6.252   5.154 -0.0521  0.0862  0.3024
29284ION     NA48818  13.647   2.610   9.316 -0.1742 -0.2955  0.0797
29285ION     NA48819  16.425  16.461   0.570 -0.2172 -0.3600 -0.1320
29286ION     NA48820   9.639  11.560   4.770 -0.2249 -0.2504 -0.3325
29287ION     NA48821  13.223  10.588   4.369  0.0257  0.1039  0.0683
29288ION     NA48822   4.139   5.451   9.768  0.1070 -0.1368  0.0914
29289ION     NA48823   9.255  19.400   9.374 -0.2036  0.0519 -0.2181
29290ION     NA48824  16.340  16.297   9.111  0.0649  0.0194  0.0284
29291ION     NA48825  11.725  14.261   9.564  0.5037 -0.0755  0.0561
29292ION     NA48826  16.125  13.457   9.739  0.3087  0.0558 -0.0270
29293ION     NA48827   4.690   0.919   9.551  0.2857 -0.2439 -0.0316
29294ION     NA48828   4.670   1.508   4.926  0.3157 -0.1170  0.1866
29295ION     NA48829   0.398   3.074   9.525 -0.0398 -0.2458  0.0252
29296ION     NA48830  13.831   7.386   9.592 -0.0324 -0.1009 -0.1683
29297ION     NA48831   6.956   3.795  10.006 -0.0424  0.2015  0.0085
29298ION     NA48832  17.027   5.481  12.494 -0.2853 -0.0086 -0.0300
29299ION     NA48833  16.728  13.136   4.417 -0.1145  0.0603  0.0006
29300ION     NA48834   7.895  16.630   9.789  0.2795  0.3749 -0.5279
29301ION     NA48835   8.105   2.867   4.416  0.0813  0.1407 -0.0636
29302ION     NA48836  10.796  15.779   4.605  0.0331 -0.0939 -0.1514
29303ION     NA48837  12.381  16.551   9.538  0.2286  0.1782  0.0126
29304ION     NA48838  10.317   8.147   9.477 -0.1555 -0.1411 -0.0602
29305ION     NA48839   4.230  16.658   5.102 -0.1895  0.2211 -0.0003
29306ION     NA48840  18.588  14.127   9.380 -0.1937  0.2185  0.0873
29307ION     NA48841  12.903  15.948   4.722  0.1369 -0.2068 -0.2987
29308ION     NA48842   0.800   3.556   4.599  0.5400 -0.1181 -0.0418
29309ION     NA48843   8.607  15.372   2.264  0.0720 -0.1238  0.0382
29310ION     NA48844  11.173  10.320   9.691  0.2808  0.1663 -0.3482
29311ION     NA48845  16.791   9.523   4.931  0.1460 -0.0714  0.0112
29312ION     NA48846   4.123  17.006   2.879  0.0207  0.1685  0.1100
29313ION     NA48847  16.244   1.291   9.366 -0.0818  0.2216  0.1537
29314ION     NA48848  16.342   5.717   0.771 -0.0342 -0.0837 -0.2180
29315ION     NA48849  19.029  12.141   9.532 -0.1236 -0.3010  0.0953
29316ION     NA48850   2.973   5.932   4.346  0.1893 -0.0397 -0.2236
29317ION     NA48851   3.737   7.851  12.046 -0.2048 -0.3984  0.0395
29318ION     NA48852  10.406   6.608   9.312 -0.2587  0.1871 -0.2186
29319ION     NA48853  11.431   3.259   9.540 -0.1843 -0.1223  0.2026
29320ION     NA48854   3.115   3.974   9.346 -0.1172  0.0367  0.0455
29321ION     NA48855  11.731  10.173   4.575  0.0623 -0.0724  0.0734
29322ION     NA48856   7.585  14.055   9.828  0.2098  0.1857 -0.3458
29323ION     NA48857   9.379   4.488   9.855  0.1763  0.0738  0.1965
29324ION     NA48858   0.104  17.004   9.476 -0.0137 -0.2675  0.2507
29325ION     NA48859  17.506   7.884  10.965 -0.0267 -0.1628 -0.1319
29326ION     NA48860   5.759   9.243   5.034  0.0647 -0.1967  0.0472
29327ION     NA48861   8.837   2.335   4.703  0.0025 -0.0943  0.1110
29328ION     NA48862   0.676  17.435  12.238  0.1076  0.1187  0.2506
29329ION     NA48863   0.352   6.535  10.731  0.2912  0.1150  0.1286
29330ION     NA48864   2.188   5.483   9.644 -0.3521 -0.0764 -0.1321
29331ION     NA48865  10.733   9.955   4.938 -0.0067 -0.0937  0.2043
29332ION     NA48866   9.039   1.838   9.373  0.2909  0.0684  0.0729
29333ION     NA48867   0.553  14.729   3.012  0.1001  0.1963 -0.0042
29334ION     NA48868  17.144   2.292   4.795 -0.0272  0.2488  0.2726
29335ION     NA48869  10.721  13.790   5.117  0.0632 -0.0388 -0.0771
29336ION     NA48870  10.961  17.369   0.519 -0.0097 -0.2526  0.1184
29337ION     NA48871   5.326  14.107   1.187 -0.1527 -0.2591 -0.1512
29338ION     NA48872   0.612   5.684   4.698  0.2166 -0.3759  0.1403
29339ION     NA48873  19.037  14.115   4.374  0.0466 -0.1794  0.3050
29340ION     NA48874   3.770  19.391   9.734  0.0822  0.5960  0.2175
29341ION     NA48875   9.571  17.206   9.802  0.3572  0.3296 -0.0545
29342ION     NA48876  11.255   7.489   1.806  0.1747  0.0510  0.0733
29343ION     NA48877  13.011  17.180   9.564 -0.0390  0.0374  0.3215
29344ION     NA48878   1.326  13.259  10.686  0.0891 -0.0609  0.2883
29345ION     NA48879   4.884   4.301   4.932 -0.3258  0.0034 -0.0717
29346ION     NA48880  12.080  16.426   4.250  0.0206  0.1017 -0.2985
29347ION     NA48881   1.517   0.329   9.724  0.1207 -0.3074  0.0160
29348ION     NA48882  14.729  11.048   9.623 -0.1112 -0.0951 -0.2197
29349ION     NA48883   6.558  18.063   9.627  0.0372 -0.0389 -0.2103
29350ION     NA48884   2.861  19.330   4.742 -0.0976 -0.0493  0.0082
29351ION     NA48885  16.612   2.698   9.540 -0.0130  0.1163  0.0049
29352ION     NA48886  13.461  11.993  10.071  0.2921  0.0200  0.2033
29353ION     NA48887   7.737   4.512   9.833  0.1771  0.4259 -0.0461
29354ION     NA48888  15.040  16.314  12.991  0.3221  0.1220 -0.1969
29355ION     NA48889  12.590  14.236  10.469  0.2538  0.0036  0.0172
29356ION     NA48890   1.519   7.262   3.080  0.0055 -0.3093  0.0101
29357ION     NA48891   9.352  12.487  12.722 -0.0250 -0.0701  0.1705
29358ION     NA48892  11.385   6.187   5.226  0.1886  0.1085  0.2416
29359ION     NA48893  19.397   2.024   4.719  0.2433 -0.1953  0.1470
29360ION     NA48894  16.948  15.692   9.137 -0.1160 -0.0533 -0.1065
29361ION     NA48895  14.035   1.303   4.220 -0.0012 -0.1632 -0.4009
29362ION     NA48896   8.350   1.973   4.887 -0.0727  0.0018  0.0273
29363ION     NA48897   0.208   4.331   4.389  0.2586  0.0221  0.1647
29364ION     NA48898  14.508   1.454   2.959  0.0804 -0.3604 -0.1493
29365ION     NA48899  10.150  12.013  10.169 -0.1410  0.0764 -0.4250
29366ION     NA48900  16.237   0.336  13.893  0.2425 -0.4320 -0.0518
29367ION     NA48901  14.186   2.962   2.365 -0.0414 -0.3218  0.0287
29368ION     NA48902  10.556  17.656   4.457  0.1972  0.1133 -0.3151
29369ION     NA48903  17.501   4.526  10.010  0.1756  0.4449 -0.1493
29370ION     NA48904   3.696   7.094  10.004 -0.1519  0.2723  0.0544
29371ION     NA48905  18.619   0.831   9.493  0.1524  0.1726 -0.3058
29372ION     NA48906   4.310   0.174   4.723 -0.0154 -0.3567 -0.1209
29373ION     NA48907   3.023   1.319   4.988 -0.0318  0.0665  0.0960
29374ION     NA48908   2.237  11.893   9.928  0.2382 -0.1657  0.0512
29375ION     NA48909  10.341   7.540   1.693  0.1832 -0.1245  0.2941
29376ION     NA48910   0.896   6.573   4.638 -0.2488 -0.1252 -0.4816
29377ION     NA48911  19.009  15.775   8.985  0.2486  0.0004  0.0137
29378ION     NA48912  12.150  13.447   9.523  0.2401 -0.2639  0.5052
29379ION     NA48913   7.332   5.051  10.162 -0.0925 -0.3387 -0.1006
29380ION     NA48914  10.412   3.500  11.259  0.0117  0.4551 -0.0966
29381ION     NA48915   0.058   5.402   9.916  0.3054  0.0982  0.2172
29382ION     NA48916  12.805  14.848   2.052  0.2128  0.0511 -0.1003
29383ION     NA48917  11.508  12.877  10.227 -0.1816 -0.0499  0.2747
29384ION     NA48918   5.808  17.881   9.797  0.1487 -0.2590 -0.4076
29385ION     NA48919  13.025   6.976   0.595 -0.0526 -0.1299 -0.1937
29386ION     NA48920   3.135   8.961  13.623 -0.1263  0.2370 -0.1242
29387ION     NA48921  19.232   0.089   4.870  0.1796  0.1444 -0.2497
29388ION     NA48922  10.527   9.215   9.595  0.2093  0.1783 -0.0508
29389ION     NA48923   7.008   5.815   4.763 -0.3910 -0.1048 -0.2414
29390ION     NA48924  10.857  12.086  13.114 -0.2217 -0.2954  0.1062
29391ION     NA48925   1.004  17.280   9.442 -0.1542  0.1499  0.6197
29392ION     NA48926  13.994  14.703   9.341  0.2763  0.0114 -0.3822
29393ION     NA48927   8.798  13.755   4.707  0.3318 -0.2655  0.0144
29394ION     NA48928   7.853   6.774  10.039  0.2801  0.2710 -0.0210
29395ION     NA48929  18.721   1.520   4.846 -0.3973  0.1030  0.0397
29396ION     NA48930   9.492  16.414   0.695 -0.3337  0.0203  0.1661
29397ION     NA48931   0.821  13.850   9.553 -0.1992  0.1266 -0.1902
29398ION     NA48932   5.819   8.551  10.181  0.0701  0.0459 -0.0306
29399ION     NA48933   6.075   7.863   4.724 -0.1228  0.0472  0.0999
29400ION     NA48934  14.406  16.020   8.998  0.0832  0.0072  0.2210
29401ION     NA48935   4.930  17.606   0.502  0.2405  0.0915 -0.3250
29402ION     NA48936  14.138  18.638   9.240  0.0468 -0.0268  0.3030
29403ION     NA48937   8.692   5.686  10.035  0.2641 -0.0864 -0.0949
29404ION     NA48938   8.790   8.845  10.231 -0.1180 -0.0986  0.1794
29405ION     NA48939  16.534   1.540  11.244 -0.1090 -0.0376 -0.1275
29406ION     NA48940  17.692   8.636   9.988 -0.0283  0.1018 -0.0604
29407ION     NA48941  14.533  14.723   4.320  0.1382  0.3009  0.0838
29408ION     NA48942   5.202  13.587  13.219  0.0152 -0.0459  0.0374
29409ION     NA48943  16.291  13.605  12.234 -0.1911 -0.2781 -0.2679
29410ION     NA48944  18.542   3.269  10.808  0.1769 -0.1333  0.1608
29411ION     NA48945   6.370   4.616   9.777 -0.0787  0.0547 -0.2853
29412ION     NA48946  16.173   8.520  10.072 -0.0233  0.1361  0.1735
29413ION     NA48947  10.611  11.755   4.758  0.1897 -0.1326  0.1491
29414ION     NA48948  11.717   1.729   9.787  0.0673 -0.2322  0.2592
29415ION     NA48949  17.135  19.205   4.540 -0.1339 -0.2652 -0.1122
29416ION     NA48950   2.585  15.914   3.446  0.0180  0.2750 -0.0648
29417ION     NA48951   0.333  11.483   2.858 -0.1978  0.1090 -0.1298
29418ION     NA48952   3.510   5.834  10.521  0.4465 -0.1240 -0.1394
29419ION     NA48953   9.494   9.209   9.865  0.0703 -0.1614 -0.3531
29420ION     NA48954   1.152  12.100   4.791  0.0354 -0.0454  0.2318
29421ION     NA48955   0.193  14.328   9.336 -0.0832 -0.1543  0.3875
29422ION     NA48956   3.356  17.230   4.960  0.0700 -0.0017  0.0860
29423ION     NA48957  13.011   3.699   4.796 -0.1059 -0.1469  0.0451
29424ION     NA48958   1.165   1.292   9.657  0.2009  0.0598  0.1026
29425ION     NA48959  10.920   4.525   9.572  0.0767 -0.1240 -0.0152
29426ION     NA48960  15.965   1.234   4.466  0.3546 -0.2744 -0.0638
29427ION     NA48961  12.880   2.378   4.242  0.4331 -0.3925  0.0324
29428ION     NA48962  10.636   1.764   4.611  0.0583 -0.2297  0.0403
29429ION     NA48963  10.615   4.916  10.952 -0.1229 -0.0500  0.2333
29430ION     NA48964   8.207   8.527  12.637  0.0425  0.2044 -0.0306
29431ION     NA48965   4.729  13.894   9.753 -0.2194 -0.2896  0.0153
29432ION     NA48966  14.592  10.852  12.658 -0.1660  0.1729  0.3128
29433ION     NA48967  18.969   6.346  13.796 -0.3557 -0.0911  0.2628
29434ION     NA48968   8.883  14.245   9.705 -0.0745  0.1947 -0.1534
29435ION     NA48969   3.780   5.811   3.923  0.0200  0.0961  0.0775
29436ION     NA48970  17.357  13.786  12.591 -0.0370 -0.2735  0.1557
29437ION     NA48971   2.046  10.170   9.711 -0.0586 -0.1466 -0.1220
29438ION     NA48972   6.336  17.746   4.972 -0.2117 -0.0133  0.1851
29439ION     NA48973  18.961   5.510   9.908  0.1175  0.3521  0.1945
29440ION     NA48974   1.529   2.875   4.352  0.0038 -0.0663 -0.0913
29441ION     NA48975   9.732  13.405   4.948 -0.0804 -0.2841 -0.0198
29442ION     NA48976  19.470  15.193  11.287 -0.1690 -0.2086  0.2681
29443ION     NA48977   5.020  15.112   9.781 -0.2438 -0.0600  0.0910
29444ION     NA48978   5.370  11.814  10.252 -0.1215 -0.3795 -0.2360
29445ION     NA48979   1.238   3.002   9.303  0.0757 -0.3629  0.3283
29446ION     NA48980  19.157  16.077   4.323 -0.0217 -0.1739  0.0010
29447ION     NA48981   1.758  10.782   5.218  0.0993  0.3831 -0.3676
29448ION     NA48982  13.179  12.711   2.232 -0.1161 -0.1058  0.1555
29449ION     NA48983  11.546  11.098   9.781  0.1192 -0.5749 -0.0595
29450ION     NA48984   7.366   7.790   5.037  0.3002  0.0457 -0.0167
29451ION     NA48985   8.624   7.897   4.980 -0.1621 -0.3950 -0.0106
29452ION     NA48986  12.123  11.866   9.854 -0.0327 -0.1988  0.1951
29453ION     NA48987  18.548  19.315   9.478 -0.2116 -0.1306  0.0246
29454ION     NA48988   5.193  17.429   5.049 -0.0821 -0.1169  0.1108
29455ION     NA48989  19.423   2.381   9.410 -0.2898 -0.0126 -0.0972
29456ION     NA48990  16.930  16.980   3.985  0.1036  0.1487  0.0601
29457ION     NA48991   1.012  10.982   5.066  0.0969  0.1202  0.1802
29458ION     NA48992  11.521   7.599  11.879  0.0469  0.3328  0.0507
29459ION     NA48993   4.791   7.537  11.535 -0.1660 -0.1331  0.0571
29460ION     NA48994  15.829  18.347  13.576 -0.4609  0.4112 -0.1204
29461ION     NA48995   5.684   1.781   4.880  0.0591  0.1014  0.2243
29462ION     NA48996   4.201  14.292  13.386  0.0274 -0.1368 -0.1525
29463ION     NA48997  17.499  11.380   9.551  0.0689 -0.2783 -0.4390
29464ION     NA48998   2.973   3.078   9.371 -0.2135  0.2342  0.0230
29465ION     NA48999  18.036   2.112   4.398 -0.0772 -0.1040  0.0572
29466ION     NA49000   9.535  14.491   5.220  0.0725 -0.1022 -0.4948
29467ION     NA49001  14.552   7.710   9.453 -0.2217 -0.0730 -0.0780
29468ION     NA49002   4.424  12.748   5.085  0.2319  0.0637 -0.0051
29469ION     NA49003  17.577   6.670  10.631 -0.1235  0.2767 -0.0379
29470ION     NA49004  15.722   4.815   4.983  0.3533 -0.0271 -0.1075
29471ION     NA49005  15.123   0.014  10.057  0.3815 -0.0172 -0.3825
29472ION     NA49006  14.556   0.275  11.028  0.0008 -0.1302 -0.0042
29473ION     NA49007  16.460  13.836   4.706  0.3693 -0.0011 -0.0855
29474ION     NA49008  12.994   2.106   4.669  0.0538  0.0085 -0.3482
29475ION     NA49009  18.075   0.356   1.977 -0.1168  0.0866  0.0979
29476ION     NA49010  14.647  11.119   4.777  0.0762 -0.1064 -0.1040
29477ION     NA49011  11.783  15.633   9.830 -0.2406 -0.1957  0.1541
29478ION     NA49012   8.848   7.249   9.918 -0.0453  0.2181  0.0093
29479ION     NA49013   5.971  16.965   5.136 -0.0493 -0.1035  0.0884
29480ION     NA49014   1.856  15.945   9.398 -0.0068 -0.1430  0.2463
29481ION     NA49015  12.337   7.905   9.730 -0.0642  0.0859 -0.0194
29482ION     NA49016   6.355  18.322  10.691  0.1530  0.3002 -0.0227
29483ION     NA49017  16.552   3.170   3.967 -0.2781 -0.3311 -0.2865
29484ION     NA49018   5.665   9.393  10.349 -0.0573  0.4122  0.0036
29485ION     NA49019   5.704  11.942   1.649  0.1181 -0.1482 -0.1958
29486ION     NA49020   1.241   2.288  10.164  0.0020 -0.1043  0.1200
29487ION     NA49021  12.613   3.125   0.026 -0.2129 -0.0415 -0.1064
29488ION     NA49022   1.009   6.182   0.290  0.3932 -0.1337 -0.1069
29489ION     NA49023   6.694  11.023   3.084  0.0176 -0.1281 -0.2509
29490ION     NA49024  18.845   1.020   1.836 -0.1593  0.0418 -0.1245
29491ION     NA49025  15.137  12.721   9.487 -0.0696 -0.0378 -0.0311
29492ION     NA49026  18.640   2.333   9.248 -0.1354 -0.1563 -0.1314
29493ION     NA49027   7.081   6.533   9.792  0.2144  0.1101  0.1729
29494ION     NA49028   5.316   0.072   9.872 -0.2276 -0.1989  0.3899
29495ION     NA49029  11.313   1.206   4.508 -0.1118 -0.1070  0.2343
29496ION     NA49030   4.336  18.830   4.874  0.1547 -0.2228 -0.1536
29497ION     NA49031  14.257   6.727   4.732  0.1068  0.1714 -0.3847
29498ION     NA49032  17.020   3.663   2.445 -0.3401 -0.3151  0.3294
29499ION     NA49033  11.949   8.591  11.652 -0.2557 -0.0714  0.1858
29500ION     NA49034   7.554   4.365  13.286  0.0390 -0.3331  0.1889
29501ION     NA49035  18.680  18.977   4.607 -0.0539 -0.2645 -0.0124
29502ION     NA49036  16.769  17.189   9.007  0.2153  0.0285  0.1073
29503ION     NA49037  14.723   5.717   4.962  0.1548 -0.1270 -0.1081
29504ION     NA49038   2.890  18.403   4.158 -0.1513 -0.1795 -0.2857
29505ION     NA49039   6.168   0.707   9.925  0.1345  0.2188 -0.1861
29506ION     NA49040   8.591   3.944   9.699 -0.1080 -0.3583  0.1039
29507ION     NA49041  16.207  19.381   4.505  0.0219  0.1446  0.0183
29508ION     NA49042   3.221  17.322   9.534  0.1541  0.0470  0.2055
29509ION     NA49043  10.725  16.536   4.849 -0.1165 -0.2544  0.0626
29510ION     NA49044  10.592  12.926   4.901 -0.4343  0.0034 -0.1616
29511ION     NA49045  16.723   5.751   5.125 -0.0702  0.1927  0.0219
29512ION     NA49046  13.635   9.969   4.743 -0.0942 -0.0025  0.1099
29513ION     NA49047  14.997   4.924   0.763 -0.2435 -0.3134 -0.2323
29514ION     NA49048  16.823   7.818  10.320  0.3891 -0.3007 -0.1896
29515ION     NA49049  11.246   4.558   4.633  0.5051  0.2828  0.0029
29516ION     NA49050   9.656   0.925   4.795 -0.1741  0.0933  0.3173
29517ION     NA49051  13.637  12.222   4.899  0.3122 -0.0494 -0.0280
29518ION     NA49052   7.937  10.951   9.935 -0.1432  0.1326 -0.1240
29519ION     NA49053   5.499  12.604   9.781 -0.3103 -0.1129 -0.1553
29520ION     NA49054  16.895   6.309  12.854  0.2191 -0.2480 -0.0064
29521ION     NA49055   1.271   7.719  10.918  0.4148 -0.1395 -0.2115
29522ION     NA49056   3.420   9.909   5.039 -0.0385 -0.0917 -0.1270
29523ION     NA49057  11.603  19.052   9.192  0.2080 -0.1635 -0.1939
29524ION     NA49058  13.142  14.839   5.117  0.3763  0.0896 -0.1358
29525ION     NA49059  10.223   2.719   3.262  0.1477  0.1486  0.1551
29526ION     NA49060   4.958  10.992  10.285 -0.3382 -0.2178 -0.1664
29527ION     NA49061   4.031   8.824  10.048  0.2120  0.0600  0.3721
29528ION     NA49062   1.617  13.465   4.692 -0.0564  0.0059 -0.0621
29529ION     NA49063  11.179   8.032  13.220  0.0684 -0.3331  0.0353
29530ION     NA49064   5.063   7.373  13.241  0.1291  0.1596 -0.0532
29531ION     NA49065   6.191   3.721   4.568  0.0166 -0.0875 -0.2191
29532ION     NA49066   7.681  11.894   3.631  0.1861 -0.3489  0.2297
29533ION     NA49067  10.470   5.739   9.526 -0.0724  0.1720 -0.3001
29534ION     NA49068  18.668   0.454  13.128 -0.1246 -0.1382 -0.0945
29535ION     NA49069  16.751   7.926  13.765 -0.2457 -0.2165 -0.1650
29536ION     NA49070  12.765  14.065   9.390  0.0089 -0.1531 -0.1799
29537ION     NA49071  15.746  14.611   4.682  0.3211  0.0533  0.1530
29538ION     NA49072   4.704   2.518  13.579  0.0523 -0.2375  0.0862
29539ION     NA49073  13.449   5.398  11.651 -0.0096 -0.2652 -0.0895
29540ION     NA49074  10.169   3.225   9.908  0.1981 -0.0244  0.1919
29541ION     NA49075   9.895  16.006  10.632 -0.1135  0.2274  0.0327
29542ION     NA49076   1.964  11.088   9.784  0.0564  0.1358 -0.1057
29543ION     NA49077  11.515   0.151   9.191 -0.0313 -0.0417  0.0678
29544ION     NA49078  12.087   1.586   4.312  0.1307  0.0561 -0.0280
29545ION     NA49079  18.740   3.686   3.855 -0.2157 -0.0667  0.0664
29546ION     NA49080  19.054  16.454   9.120  0.3069 -0.0825 -0.1259
29547ION     NA49081   4.639   5.653   1.779  0.3580 -0.1097  0.2312
29548ION     NA49082   6.074  15.667   1.997  0.1785 -0.3297  0.2050
29549ION     NA49083   2.895   4.166   4.826  0.3362  0.0557  0.2287
29550ION     NA49084   6.068   8.545   1.950 -0.2082 -0.0787 -0.0390
29551ION     NA49085  15.472  15.945   4.218 -0.6145  0.0480 -0.1342
29552ION     NA49086  10.345   2.186   4.359 -0.0789 -0.1942 -0.0333
29553ION     NA49087   2.879   9.707  10.051 -0.1608  0.2310  0.1215
29554ION     NA49088  17.910  14.957   4.499 -0.2321 -0.1715  0.0949
29555ION     NA49089  15.446   7.570   9.568 -0.3222 -0.1704 -0.1954
29556ION     NA49090  10.359  10.248   9.912  0.2753  0.3368 -0.2207
29557ION     NA49091   3.997   5.309   5.025 -0.0259 -0.2577 -0.0011
29558ION     NA49092  17.279   8.667   5.131 -0.1007 -0.0977 -0.1240
29559ION     NA49093   7.601   7.700  14.044  0.1481  0.1955  0.1464
29560ION     NA49094  16.443  11.775  13.984  0.4016 -0.2987 -0.1717
29561ION     NA49095   7.326  16.383   4.546 -0.0564 -0.1191 -0.5524
29562ION     NA49096   7.154   0.930  12.082 -0.0094  0.4500  0.0975
29563ION     NA49097   9.555   5.909  12.699  0.2331 -0.0882 -0.2484
29564ION     NA49098   8.655  17.054  10.002  0.0224  0.1540  0.0919
29565ION     NA49099   6.921  16.644   9.823  0.0151  0.0520 -0.2301
29566ION     NA49100  18.950  11.940   4.688 -0.0311  0.0324 -0.0793
29567ION     NA49101   1.069  14.844   9.391  0.1684 -0.2799  0.4215
29568ION     NA49102  17.783  12.278  13.112  0.0729  0.0677  0.0835
29569ION     NA49103  13.241   8.394   9.709 -0.1222 -0.1521 -0.0493
29570ION     NA49104   9.688  11.775  14.281  0.0623  0.2278  0.1149
29571ION     NA49105  11.450  16.281  12.707  0.0701  0.3913 -0.1036
29572ION     NA49106   7.836  19.298   9.559 -0.1547 -0.0011 -0.0517
29573ION     NA49107   0.777   2.093   3.474  0.2340 -0.2378  0.1361
29574ION     NA49108   7.543   7.801  11.253  0.2346 -0.4634  0.3268
29575ION     NA49109   0.740   9.356  10.980 -0.0579 -0.1458  0.1228
29576ION     NA49110   0.631   0.297   9.491  0.0786 -0.0008  0.0098
29577ION     NA49111  18.647  18.136   9.355 -0.3178  0.0812 -0.0027
29578ION     NA49112   7.347   5.134   4.889  0.0104 -0.2284 -0.0310
29579ION     NA49113  12.981   7.584   9.485 -0.3376 -0.1127 -0.0418
29580ION     NA49114   3.228  13.442   2.515 -0.0711  0.1036  0.0160
29581ION     NA49115  10.750  11.730   3.728 -0.3073 -0.1194  0.0057
29582ION     NA49116  10.941  15.735   9.995 -0.1750 -0.0497 -0.1426
29583ION     NA49117  19.467   4.214   9.761 -0.3196  0.0734  0.1501
29584ION     NA49118  10.636  12.943  10.200 -0.0221  0.1996  0.1555
29585ION     NA49119  11.719  13.885   4.809 -0.0850  0.2429 -0.3084
29586ION     NA49120  13.560   3.574   9.407 -0.1438  0.0150 -0.1442
29587ION     NA49121   9.755   3.676   4.895 -0.1260  0.1651  0.0294
29588ION     NA49122  12.814  13.512   2.639  0.0032  0.0909  0.0001
29589ION     NA49123   9.639  12.089   2.317  0.1358 -0.0910  0.1351
29590ION     NA49124  15.820   9.579   4.917 -0.3008 -0.1439  0.4867
29591ION     NA49125   3.779   0.730   4.952  0.0728  0.0077 -0.1462
29592ION     NA49126  11.052   8.415   4.940 -0.0036 -0.2805 -0.0212
29593ION     NA49127  16.344   6.664  11.625 -0.1729  0.0060 -0.2756
29594ION     NA49128  13.415  17.885   0.665  0.1488  0.0660 -0.2154
29595ION     NA49129  11.954   8.891   9.634  0.0517  0.0785 -0.1119
29596ION     NA49130  14.198   3.389   9.305 -0.0313 -0.3665 -0.1326
29597ION     NA49131   0.510   2.766   4.703 -0.3180 -0.1433  0.5557
29598ION     NA49132   2.734  17.201   1.483  0.1795 -0.0218  0.1169
29599ION     NA49133   3.548   9.396  11.060  0.0096  0.1089 -0.0744
29600ION     NA49134  17.970  17.312   9.365 -0.3958  0.3503  0.0297
29601ION     NA49135   0.623  16.477   9.321  0.3198  0.1652 -0.1454
29602ION     NA49136  11.012  12.717   4.741  0.0654 -0.0302 -0.1908
29603ION     NA49137   7.287  15.787   9.631 -0.1257 -0.0199  0.2358
29604ION     NA49138   6.846   2.057   3.522 -0.0431  0.0173 -0.1719
29605ION     NA49139   1.476   4.537   4.080 -0.0688  0.0035 -0.0117
29606ION     NA49140   2.856   0.061   9.351 -0.0144 -0.0454  0.4337
29607ION     NA49141  12.941   4.209   3.634  0.0431  0.2453 -0.0626
29608ION     NA49142  16.985   6.754   2.695  0.2584  0.1238  0.0321
29609ION     NA49143   5.331   3.373   4.902  0.0450 -0.1059  0.0284
29610ION     NA49144  17.928  13.496   9.494  0.1414 -0.1391  0.2161
29611ION     NA49145   2.321   8.359   5.216  0.0041 -0.1854  0.2944
29612ION     NA49146   4.892   9.685   5.134  0.0991  0.3040  0.0529
29613ION     NA49147  11.084   3.412  12.500 -0.1730 -0.2186 -0.1184
29614ION     NA49148   7.728  17.262  12.953  0.1579 -0.1532 -0.1095
29615ION     NA49149  19.319  18.735   9.550  0.0017 -0.0411 -0.0844
29616ION     NA49150   6.622   5.374   0.193  0.0552 -0.0891  0.0934
29617ION     NA49151   3.688  16.918  13.920 -0.1219  0.0762  0.0982
29618ION     NA49152  10.430   1.278   4.709 -0.0768 -0.2154 -0.0072
29619ION     NA49153  11.320   2.201   4.422  0.2057 -0.0877 -0.2409
29620ION     NA49154   8.482  14.638   5.142 -0.0682  0.3450  0.2760
29621ION     NA49155   6.568  14.709   9.925  0.3834  0.0813  0.0422
29622ION     NA49156   7.236   3.051  10.013 -0.1742 -0.2211 -0.0688
29623ION     NA49157   5.206   8.603   2.845  0.1709  0.0628 -0.1311
29624ION     NA49158  18.916   4.789  10.499  0.0689  0.0219 -0.1653
29625ION     NA49159  11.586  15.481   4.429  0.2397  0.0150 -0.1666
29626ION     NA49160  12.066   1.465  12.774  0.0853 -0.2899  0.0800
29627ION     NA49161  11.367   8.270  10.304  0.1496  0.1741  0.1158
29628ION     NA49162  17.273  17.695  10.082  0.3297  0.4122 -0.0828
29629ION     NA49163   8.185   0.713   2.900  0.1519  0.1915 -0.0699
29630ION     NA49164  18.930   1.639   9.729  0.0256 -0.0928 -0.0901
29631ION     NA49165   7.784   8.432   0.412  0.1092  0.0380 -0.0202
29632ION     NA49166  18.791  16.875   4.096  0.1922 -0.1861  0.0460
29633ION     NA49167   1.053  19.005   9.578  0.1256  0.0177  0.0599
29634ION     NA49168  12.233  15.418   1.761  0.0318 -0.2621  0.0345
29635ION     NA49169   1.751   9.113   5.094 -0.0268  0.0137  0.1461
29636ION     NA49170  14.816  14.470   9.702  0.0571 -0.1144 -0.3095
29637ION     NA49171  15.626  10.490   9.133  0.1692  0.1371  0.2657
29638ION     NA49172  12.516   5.198   4.575 -0.2698 -0.3062  0.1214
29639ION     NA49173  12.901   2.181   9.315 -0.1632 -0.0549 -0.0102
29640ION     NA49174  18.826  17.316   9.466 -0.0377  0.0117  0.2192
29641ION     NA49175  12.335  11.899   4.666 -0.0306  0.2237  0.1909
29642ION     NA49176   9.958  18.148   9.612 -0.1677 -0.0121 -0.4918
29643ION     NA49177  14.158  16.387   4.020  0.2864  0.0757 -0.2209
29644ION     NA49178  17.526  17.866   3.765  0.2874 -0.0325 -0.1503
29645ION     NA49179  12.077   2.472   4.651  0.2509  0.0534  0.4647
29646ION     NA49180  14.900   7.477   4.644 -0.1038 -0.0964 -0.1204
29647ION     NA49181  11.679   7.390   9.610  0.0612  0.3156  0.0342
29648ION     NA49182   1.226   0.956   4.875  0.1585  0.4509  0.3307
29649ION     NA49183   8.360   7.637  10.094  0.0847 -0.0030 -0.0698
29650ION     NA49184  15.866  12.675   0.207  0.1775 -0.2286  0.1123
29651ION     NA49185  14.790   8.083   9.735  0.1242  0.4133  0.2984
29652ION     NA49186  11.144  13.180  11.770 -0.1398 -0.0603 -0.1164
29653ION     NA49187   9.434  10.991  13.933  0.0878  0.1929 -0.1636
29654ION     NA49188   0.286   4.863  10.887  0.0099 -0.2158  0.0056
29655ION     NA49189   5.380   4.284   4.766  0.0138 -0.0628  0.0307
29656ION     NA49190  14.896  16.892   9.104  0.0295 -0.0756 -0.2425
29657ION     NA49191  18.488   3.454   5.089  0.1687  0.1797  0.1467
29658ION     NA49192   1.314   5.467   9.585 -0.0269 -0.2389  0.2850
29659ION     NA49193  12.450  18.378   0.608  0.0683 -0.1836 -0.1580
29660ION     NA49194   0.385   9.288   4.935  0.1139  0.0515 -0.0970
29661ION     NA49195  11.432  18.256   4.284  0.0291  0.0099 -0.2288
29662ION     NA49196   6.943   7.807   2.739 -0.0111 -0.0151 -0.2627
29663ION     NA49197  15.319   3.396  10.128  0.1183 -0.1785 -0.2673
29664ION     NA49198   9.023  13.528  11.701  0.1306 -0.1868 -0.1809
29665ION     NA49199  14.164   7.374  10.838  0.0544  0.2337  0.3002
29666ION     NA49200  18.177   8.010   9.844  0.3578  0.1221  0.0085
29667ION     NA49201   9.711   6.411   4.764 -0.0163 -0.4951  0.1503
29668ION     NA49202  10.706   2.670   9.345  0.0046 -0.2095 -0.2450
29669ION     NA49203  14.329   8.226   4.536 -0.3830  0.1230 -0.0647
29670ION     NA49204  14.876   4.329   4.874 -0.1274  0.0204  0.2958
29671ION     NA49205  12.318   0.248   9.203  0.0146 -0.0587  0.2539
29672ION     NA49206   3.609   0.446   9.519 -0.2758  0.1945  0.0370
29673ION     NA49207   9.932   1.034   9.449  0.0231 -0.1412 -0.1152
29674ION     NA49208  10.527  14.184   9.740  0.0858  0.5103  0.0099
29675ION     NA49209  13.223  10.504   9.635 -0.4024  0.2530  0.0238
29676ION     NA49210   2.503  18.609   9.584  0.1439 -0.0789  0.0867
29677ION     NA49211   5.740   7.893  13.624  0.2394  0.1447 -0.1147
29678ION     NA49212  10.917   1.894   9.424  0.0448 -0.0079 -0.0762
29679ION     NA49213  13.731   9.006   3.179 -0.1371 -0.1523 -0.1048
29680ION     NA49214  12.084   2.413   9.911 -0.1116  0.1059 -0.1003
29681ION     NA49215  19.490   9.963   5.061 -0.1845 -0.0135 -0.1496
29682ION     NA49216   4.637  12.643   9.999  0.0838 -0.1224 -0.3323
29683ION     NA49217   4.028   3.842  12.866  0.1773  0.1177 -0.1758
29684ION     NA49218  19.232   7.596  11.449 -0.1159 -0.1906  0.0920
29685ION     NA49219   9.994  16.159   4.883  0.0266  0.1351  0.0540
29686ION     NA49220  13.970   5.659  13.074  0.1108 -0.1400  0.0033
29687ION     NA49221  13.298  18.307   4.022  0.1507  0.0228 -0.1975
29688ION     NA49222   0.778   7.998   5.152 -0.0171  0.2924 -0.1361
29689ION     NA49223   8.929   7.767   3.318  0.2427  0.2143  0.3019
29690ION     NA49224   3.963   3.148   9.335 -0.0310 -0.0410  0.0481
29691ION     NA49225  13.454  14.326   4.925  0.0774 -0.0709 -0.1352
29692ION     NA49226   1.694  17.239   4.709 -0.1483  0.1783 -0.1207
29693ION     NA49227   6.087  18.428   1.876 -0.3727 -0.0224  0.2008
29694ION     NA49228   2.264   3.581   3.579  0.2791 -0.2336 -0.2099
29695ION     NA49229   0.610  18.578   4.044 -0.0661  0.1106  0.1308
29696ION     NA49230   7.290  13.110   5.119 -0.0554 -0.2072 -0.5703
29697ION     NA49231   9.394  15.888   1.200 -0.0919  0.0642 -0.3226
29698ION     NA49232  10.412  19.100   9.530  0.0028 -0.0953 -0.0830
29699ION     NA49233   6.177   3.003   9.623  0.2799  0.1383 -0.0660
29700ION     NA49234  14.586   0.907  11.484  0.3880  0.1221  0.4258
29701ION     NA49235   5.205  18.416   4.923  0.0283  0.0228  0.1382
29702ION     NA49236  13.615   1.591   9.107 -0.2839  0.0309  0.1064
29703ION     NA49237   3.789   4.310   5.026  0.1110 -0.0208 -0.1028
29704ION     NA49238  14.825   2.372   4.889 -0.0010 -0.1279 -0.1748
29705ION     NA49239   5.860  16.931   9.829 -0.2245  0.2210 -0.2145
29706ION     NA49240   9.197  16.743   4.773  0.0977  0.0390 -0.0504
29707ION     NA49241   0.824   9.932   5.197 -0.0856 -0.2877  0.2005
29708ION     NA49242  17.172   6.527   4.606 -0.4150 -0.1067  0.1201
29709ION     NA49243  10.992  18.507  12.130 -0.0758  0.1064  0.0378
29710ION     NA49244  16.534  14.981  10.107  0.1762  0.3478 -0.0798
29711ION     NA49245   9.821   7.210   5.187 -0.3691  0.0701 -0.0940
29712ION     NA49246   8.507   0.596   9.410 -0.1378 -0.1187  0.0822
29713ION     NA49247   6.054   5.482   9.911 -0.0481  0.2409  0.0630
29714ION     NA49248   2.999  16.490   9.564  0.0168 -0.3509 -0.0057
29715ION     NA49249   4.034   4.772  11.272 -0.1909  0.0122  0.0036
29716ION     NA49250  19.030   9.233   5.130  0.0431  0.0389  0.0121
29717ION     NA49251   3.816  11.946   3.413 -0.1711 -0.1336 -0.0759
29718ION     NA49252   0.327  15.567   9.225 -0.2839  0.0381  0.3066
29719ION     NA49253   8.079  10.143  10.050  0.3049  0.1223  0.0051
29720ION     NA49254   1.565  10.125   9.670  0.1357  0.1387 -0.1380
29721ION     NA49255   5.663  18.327  12.557 -0.2942  0.1060 -0.0560
29722ION     NA49256  12.020   4.566   4.578 -0.0603  0.1381  0.0024
29723ION     NA49257   2.586  17.110   4.728 -0.1508 -0.1720 -0.0337
29724ION     NA49258  11.973  12.246  14.182  0.0907 -0.3253 -0.0724
29725ION     NA49259   2.424  17.221   9.450 -0.4652  0.2113 -0.2509
29726ION     NA49260   4.159   7.081   4.824 -0.1404  0.2170 -0.2786
29727ION     NA49261  17.178  15.713   4.652  0.0077 -0.1762 -0.0813
29728ION     NA49262   5.033   4.067  12.663 -0.0209  0.1185 -0.2015
29729ION     NA49263  13.100  16.202   9.268  0.1876  0.1497  0.2150
29730ION     NA49264   7.085   1.930   9.526 -0.1072  0.0575 -0.0257
29731ION     NA49265   0.068  10.532  10.411  0.1950 -0.2237 -0.1512
29732ION     NA49266  10.254   1.951   1.248  0.1643  0.0554 -0.0599
29733ION     NA49267  13.735   2.337   4.813 -0.1407  0.2505 -0.1768
29734ION     NA49268  12.406   9.754   9.718  0.3190 -0.0227 -0.1003
29735ION     NA49269  10.838   7.552  10.002 -0.0906  0.0411 -0.2894
29736ION     NA49270  12.789   5.889   4.971  0.3176  0.1157 -0.0362
29737ION     NA49271  14.035   8.076   1.596 -0.1712 -0.0445 -0.0271
29738ION     NA49272   6.496  16.728   4.802  0.0213  0.1713 -0.0526
29739ION     NA49273  16.372  18.155  10.660 -0.0818 -0.1022  0.1645
29740ION     NA49274   1.406  10.087   1.518  0.3658 -0.2653  0.2722
29741ION     NA49275  12.237   3.370   4.591  0.1273  0.1326  0.1618
29742ION     NA49276   6.675   7.977  11.308 -0.0775  0.3815  0.2504
29743ION     NA49277  13.125  17.403   4.108  0.0317 -0.0613 -0.0786
29744ION     NA49278   2.771  13.785  10.034 -0.1831 -0.0769  0.0118
29745ION     NA49279   9.838   9.592  10.109 -0.1364 -0.3006  0.0439
29746ION     NA49280  17.906   0.719   3.288  0.1178  0.1081 -0.2694
29747ION     NA49281   6.649   9.520   5.315 -0.2888  0.1342  0.3023
29748ION     NA49282   6.017  19.404   2.765  0.0263  0.2520 -0.2737
29749ION     NA49283  13.792   5.162   9.659  0.1040 -0.1575  0.1819
29750ION     NA49284   1.096  10.282   2.824  0.0347 -0.1203 -0.1549
29751ION     NA49285   4.542  11.635  10.416  0.3390 -0.2166 -0.1223
29752ION     NA49286  10.732   7.532   5.152  0.0263 -0.1438 -0.0263
29753ION     NA49287   0.957  10.659   9.890  0.0557  0.0235  0.4264
29754ION     NA49288  13.276   1.297   4.474  0.3397  0.0803 -0.2957
29755ION     NA49289  12.172  19.437   4.317  0.0114 -0.4399 -0.2430
29756ION     NA49290   7.372   6.725   4.946 -0.4604 -0.0360 -0.3701
29757ION     NA49291   5.886  14.856   0.922 -0.1139  0.3306 -0.1052
29758ION     NA49292   0.637  15.730   4.449 -0.0744  0.0876 -0.3180
29759ION     NA49293   4.298   7.653   9.904 -0.3919  0.1642 -0.0008
29760ION     NA49294  12.310   7.222   4.686 -0.2235 -0.2598  0.1806
29761ION     NA49295   6.558   2.478   2.684  0.0057  0.0673 -0.1825
29762ION     NA49296   0.427   5.823  10.131 -0.1834  0.0281 -0.3880
29763ION     NA49297   6.191  11.886   9.998 -0.2008  0.0166  0.1902
29764ION     NA49298   4.824  16.075  10.032  0.1784  0.3762 -0.1162
29765ION     NA49299   8.305   1.617   3.810  0.2946 -0.3206 -0.1250
29766ION     NA49300   5.088   1.200   4.967  0.0598  0.0434 -0.0455
29767ION     NA49301   4.011   9.054   1.764 -0.0882  0.1494  0.4402
29768ION     NA49302   5.257  16.475   5.052 -0.0229 -0.0297  0.1407
29769ION     NA49303  14.104  16.492   9.247  0.0326 -0.1540 -0.3131
  19.52045  19.52045  14.37841
