INSANE! Membrane UpperLeaflet>loPI:POPI:DPPI:PYPI:ERGO=180.0:5.0:3.0:2.0:10.0 LowerLeaflet>loPI:POPI:DPPI:PYPI:ERGO=180.0:5.0:3.0:2.0:10.0
49303
    1loPI    C1    1   5.231  14.268  11.812  0.1037 -0.0237  0.2718
    1loPI    C2    2   5.057  13.947  11.974 -0.1214 -0.2648 -0.4139
    1loPI    C3    3   4.888  14.307  12.015  0.1794 -0.1981  0.4356
    1loPI   PO4    4   5.276  14.182  11.595  0.1092  0.0373 -0.0485
    1loPI   GL1    5   5.464  13.876  11.193 -0.0594  0.0540 -0.1398
    1loPI   GL2    6   5.151  14.004  11.140  0.0533 -0.0730 -0.1104
    1loPI   C1A    7   5.501  13.807  10.849 -0.0218  0.1759 -0.0066
    1loPI   C2A    8   5.536  13.806  10.449 -0.0057  0.2263 -0.0673
    1loPI   C3A    9   5.498  13.788  10.054  0.1110 -0.0805 -0.0354
    1loPI   C4A   10   5.408  13.740   9.578  0.0243 -0.3543  0.1588
    1loPI   C5A   11   5.423  13.798   9.140 -0.1082  0.1265  0.1327
    1loPI   C6A   12   5.560  13.959   8.703  0.0006  0.1409  0.3720
    1loPI   C1B   13   5.255  14.230  10.716  0.1519  0.1046 -0.0317
    1loPI   C2B   14   5.183  14.183  10.343 -0.0061  0.2257 -0.0155
    1loPI   C3B   15   5.159  14.107   9.917  0.1754 -0.1380  0.1675
    1loPI   C4B   16   5.085  14.152   9.445 -0.1539  0.2365  0.0113
    2loPI    C1   17  10.827   1.695  11.652  0.0851  0.0496  0.0449
    2loPI    C2   18  10.553   1.850  11.405  0.0547 -0.1851 -0.0718
    2loPI    C3   19  10.444   1.715  11.765  0.0895  0.1052  0.0496
    2loPI   PO4   20  11.047   1.812  11.535 -0.0781 -0.1858 -0.0199
    2loPI   GL1   21  10.975   2.013  11.196  0.0126 -0.0016 -0.3684
    2loPI   GL2   22  10.823   2.324  11.180 -0.0174 -0.0009 -0.0367
    2loPI   C1A   23  10.809   1.921  10.888  0.4811  0.3982  0.0588
    2loPI   C2A   24  10.691   1.901  10.410 -0.0214 -0.3015 -0.0282
    2loPI   C3A   25  10.677   1.857   9.990 -0.1146  0.2007 -0.0826
    2loPI   C4A   26  10.729   1.840   9.599  0.0483 -0.1035  0.0502
    2loPI   C5A   27  10.817   1.756   9.212 -0.1343 -0.1874 -0.1156
    2loPI   C6A   28  11.147   1.547   9.095  0.0261  0.1957 -0.0428
    2loPI   C1B   29  10.896   2.405  10.724 -0.0340  0.1149 -0.0243
    2loPI   C2B   30  10.877   2.356  10.250  0.1041 -0.1087  0.1644
    2loPI   C3B   31  10.944   2.272   9.862  0.0488  0.1019 -0.1932
    2loPI   C4B   32  10.873   2.305   9.449  0.1286  0.1142  0.1425
    3loPI    C1   33   6.133  17.262  11.651 -0.0048  0.0930  0.0598
    3loPI    C2   34   6.299  16.936  11.812 -0.1106 -0.0787 -0.1732
    3loPI    C3   35   6.457  17.296  11.883  0.1055 -0.1961 -0.0468
    3loPI   PO4   36   6.000  17.159  11.441  0.1376  0.0438 -0.4353
    3loPI   GL1   37   5.848  17.119  10.974  0.0294  0.1344  0.0094
    3loPI   GL2   38   5.866  16.880  10.838  0.3180 -0.0824 -0.1847
    3loPI   C1A   39   5.778  17.174  10.505  0.4558  0.2805  0.0237
    3loPI   C2A   40   5.702  17.020  10.222 -0.0484 -0.1460 -0.0633
    3loPI   C3A   41   5.618  16.951   9.816 -0.2249  0.2359 -0.2095
    3loPI   C4A   42   5.681  17.011   9.436 -0.1952 -0.4096 -0.1560
    3loPI   C5A   43   5.670  17.086   8.999 -0.1982  0.1094  0.1643
    3loPI   C6A   44   5.710  17.470   8.603 -0.0153 -0.0382 -0.0580
    3loPI   C1B   45   6.007  16.708  10.442 -0.0552 -0.0379  0.2882
    3loPI   C2B   46   5.974  16.598   9.968  0.0999  0.0179  0.0394
    3loPI   C3B   47   5.972  16.667   9.569 -0.1680  0.0603 -0.0536
    3loPI   C4B   48   5.984  16.612   9.214 -0.2704 -0.0420  0.1126
    4loPI    C1   49  11.159   9.545  11.787  0.1213  0.0572  0.0416
    4loPI    C2   50  10.923   9.243  11.902  0.0374  0.0162 -0.2289
    4loPI    C3   51  11.006   9.541  12.156  0.0261 -0.1745  0.0017
    4loPI   PO4   52  11.119   9.475  11.500  0.4352 -0.1285 -0.2864
    4loPI   GL1   53  10.876   9.213  11.329 -0.1698  0.3271 -0.0902
    4loPI   GL2   54  10.798   8.964  11.138  0.1836  0.3152  0.1129
    4loPI   C1A   55  10.956   9.322  10.860 -0.3586  0.0282 -0.2329
    4loPI   C2A   56  10.948   9.287  10.443  0.1479 -0.1722 -0.1146
    4loPI   C3A   57  10.958   9.227  10.032  0.2979  0.0420  0.2300
    4loPI   C4A   58  11.031   9.189   9.591  0.0683  0.1558  0.1024
    4loPI   C5A   59  10.934   9.238   9.271  0.1136  0.1026  0.2345
    4loPI   C6A   60  10.514   9.229   9.152 -0.0719  0.1326 -0.1835
    4loPI   C1B   61  10.734   8.753  10.673  0.0899 -0.2442 -0.0828
    4loPI   C2B   62  10.654   8.854  10.290 -0.0039  0.2848 -0.1365
    4loPI   C3B   63  10.754   8.807   9.928  0.0878 -0.0058 -0.1329
    4loPI   C4B   64  10.755   8.783   9.403 -0.0071  0.2021  0.1277
    5loPI    C1   65  14.983   7.416  11.540  0.2037 -0.0026  0.0395
    5loPI    C2   66  14.842   7.042  11.548 -0.1892  0.1400 -0.0027
    5loPI    C3   67  15.016   7.197  11.873 -0.2889  0.0190  0.1095
    5loPI   PO4   68  15.119   7.388  11.222  0.2559 -0.0383  0.0203
    5loPI   GL1   69  14.987   7.312  10.829 -0.1489  0.0427  0.0598
    5loPI   GL2   70  14.641   7.175  10.926  0.3072  0.1812 -0.2024
    5loPI   C1A   71  14.953   7.219  10.409 -0.4313 -0.2265 -0.1773
    5loPI   C2A   72  14.961   7.238   9.962 -0.0385 -0.0687 -0.1027
    5loPI   C3A   73  14.979   7.261   9.546 -0.1358 -0.0304 -0.1152
    5loPI   C4A   74  15.066   7.166   9.165 -0.1636 -0.0634  0.1080
    5loPI   C5A   75  15.052   7.021   8.700  0.1768 -0.1851  0.1023
    5loPI   C6A   76  15.176   7.181   8.276 -0.1564 -0.0123  0.1739
    5loPI   C1B   77  14.477   7.156  10.495 -0.3673  0.2547  0.2606
    5loPI   C2B   78  14.477   7.172  10.017  0.2307 -0.0541  0.0280
    5loPI   C3B   79  14.555   7.159   9.530  0.3258  0.0519  0.0840
    5loPI   C4B   80  14.562   6.987   9.101 -0.0806  0.1228  0.1290
    6loPI    C1   81   4.192   4.442  11.809  0.0263 -0.1677  0.0564
    6loPI    C2   82   4.044   4.624  12.133  0.0512  0.2865 -0.1780
    6loPI    C3   83   3.909   4.263  12.027 -0.3173  0.3504  0.0553
    6loPI   PO4   84   4.235   4.675  11.644 -0.2241 -0.1753  0.0807
    6loPI   GL1   85   4.376   4.636  11.218 -0.0352 -0.3234  0.1427
    6loPI   GL2   86   4.632   4.921  11.031  0.0848 -0.2078 -0.1116
    6loPI   C1A   87   4.233   4.410  10.926 -0.2205  0.0475 -0.0272
    6loPI   C2A   88   4.108   4.380  10.571 -0.0079 -0.1699 -0.1250
    6loPI   C3A   89   4.095   4.295  10.166  0.2122 -0.2540  0.0213
    6loPI   C4A   90   4.036   4.281   9.751 -0.3191 -0.0349 -0.1488
    6loPI   C5A   91   3.986   4.350   9.313  0.0671 -0.1245  0.0728
    6loPI   C6A   92   3.705   4.625   9.000 -0.1386 -0.1962  0.1785
    6loPI   C1B   93   4.788   4.906  10.728  0.1452 -0.1375  0.1235
    6loPI   C2B   94   4.776   4.868  10.285 -0.0103 -0.1072 -0.0268
    6loPI   C3B   95   4.709   4.893   9.914 -0.0786  0.0306  0.0434
    6loPI   C4B   96   4.737   4.945   9.513 -0.0519 -0.0568 -0.3795
    7loPI    C1   97   3.047   5.929  11.242 -0.1048  0.1375  0.0079
    7loPI    C2   98   2.737   5.847  11.481  0.1000 -0.2713  0.1432
    7loPI    C3   99   3.099   5.909  11.638  0.0606  0.3906  0.0011
    7loPI   PO4  100   3.041   5.784  11.081 -0.3258 -0.0622  0.2226
    7loPI   GL1  101   3.105   5.650  10.719  0.0182 -0.1120  0.3037
    7loPI   GL2  102   3.151   5.311  10.881  0.1446 -0.1867 -0.2686
    7loPI   C1A  103   3.002   5.611  10.289  0.3829 -0.0295  0.0653
    7loPI   C2A  104   3.032   5.432   9.899  0.0618 -0.2687  0.0968
    7loPI   C3A  105   2.911   5.320   9.459 -0.0202 -0.1774 -0.0139
    7loPI   C4A  106   2.927   5.473   9.047 -0.1149  0.1218 -0.0341
    7loPI   C5A  107   3.174   5.708   8.825 -0.1806 -0.0058 -0.0400
    7loPI   C6A  108   3.255   5.653   8.365 -0.1481 -0.3332 -0.0290
    7loPI   C1B  109   3.163   5.233  10.501  0.1780  0.1193 -0.1410
    7loPI   C2B  110   3.398   5.052  10.168 -0.1960  0.0245 -0.0709
    7loPI   C3B  111   3.356   5.088   9.727 -0.1254  0.3282 -0.1470
    7loPI   C4B  112   3.337   5.176   9.256 -0.1077 -0.1721  0.0655
    8loPI    C1  113   6.414   8.476  12.011  0.0850  0.0702  0.1553
    8loPI    C2  114   6.123   8.601  12.255 -0.1864 -0.2994  0.0312
    8loPI    C3  115   6.437   8.403  12.404 -0.2281 -0.3071  0.1096
    8loPI   PO4  116   6.423   8.730  11.730 -0.1365  0.3370  0.4623
    8loPI   GL1  117   6.558   8.682  11.309 -0.2653 -0.0630 -0.0115
    8loPI   GL2  118   6.610   9.045  11.279  0.5461  0.2116  0.0475
    8loPI   C1A  119   6.458   8.470  10.949  0.3557  0.4405 -0.0440
    8loPI   C2A  120   6.433   8.457  10.547 -0.3222  0.2307  0.2748
    8loPI   C3A  121   6.420   8.452  10.105  0.3193 -0.0326  0.0527
    8loPI   C4A  122   6.442   8.380   9.582 -0.1380 -0.1140 -0.0110
    8loPI   C5A  123   6.637   8.418   9.184  0.1971  0.0315  0.1687
    8loPI   C6A  124   6.946   8.747   9.137  0.1067  0.0984  0.2400
    8loPI   C1B  125   6.580   8.978  10.847  0.0713  0.0852  0.0776
    8loPI   C2B  126   6.639   8.896  10.382  0.3027 -0.1951 -0.3876
    8loPI   C3B  127   6.537   8.955   9.929 -0.0219 -0.0538 -0.0629
    8loPI   C4B  128   6.616   8.891   9.497  0.4362  0.0766 -0.4293
    9loPI    C1  129   6.287   7.145  11.696  0.0331  0.0750 -0.1217
    9loPI    C2  130   5.909   7.018  11.728  0.0395  0.0274 -0.2313
    9loPI    C3  131   6.026   7.349  11.920 -0.0148 -0.0510 -0.0618
    9loPI   PO4  132   6.316   7.158  11.429  0.0044  0.2808 -0.0152
    9loPI   GL1  133   6.524   7.009  11.125 -0.1443  0.1345  0.0800
    9loPI   GL2  134   6.451   7.194  10.832 -0.0194  0.1103 -0.2201
    9loPI   C1A  135   6.722   6.788  10.737 -0.3246  0.0129  0.0153
    9loPI   C2A  136   6.906   6.666  10.370 -0.3111 -0.3782 -0.2558
    9loPI   C3A  137   6.802   6.671   9.958  0.2970 -0.1271 -0.0647
    9loPI   C4A  138   6.678   6.609   9.570 -0.2006  0.1750 -0.0290
    9loPI   C5A  139   6.866   6.674   9.127 -0.0863  0.1096 -0.0124
    9loPI   C6A  140   7.158   6.636   8.814 -0.2015  0.3285 -0.0495
    9loPI   C1B  141   6.422   7.045  10.449  0.0827  0.1999 -0.2738
    9loPI   C2B  142   6.417   7.169  10.027  0.1516  0.0164 -0.5952
    9loPI   C3B  143   6.402   7.011   9.645  0.1978 -0.1341  0.1284
    9loPI   C4B  144   6.443   6.958   9.267  0.2334 -0.0631  0.0271
   10loPI    C1  145   2.416   6.383  11.745 -0.0433  0.3317  0.1071
   10loPI    C2  146   2.093   6.579  11.878 -0.0787  0.2224  0.1848
   10loPI    C3  147   2.279   6.317  12.116 -0.1677 -0.0073  0.0048
   10loPI   PO4  148   2.397   6.273  11.502 -0.1537  0.1515 -0.2268
   10loPI   GL1  149   2.538   6.366  11.138  0.0026 -0.0696 -0.0666
   10loPI   GL2  150   2.569   6.008  11.002  0.1956 -0.0755 -0.0115
   10loPI   C1A  151   2.347   6.354  10.687  0.2740 -0.2967 -0.2920
   10loPI   C2A  152   2.420   6.353  10.252  0.0346  0.1616 -0.3343
   10loPI   C3A  153   2.362   6.240   9.847  0.2328  0.0167 -0.2604
   10loPI   C4A  154   2.329   6.229   9.358 -0.0569  0.0549  0.0225
   10loPI   C5A  155   2.153   6.306   9.027  0.1081 -0.3564  0.0760
   10loPI   C6A  156   2.246   6.410   8.639 -0.0872 -0.0106  0.1289
   10loPI   C1B  157   2.673   5.951  10.501 -0.3927 -0.0494  0.2054
   10loPI   C2B  158   2.669   5.950  10.054 -0.0113 -0.0848  0.0858
   10loPI   C3B  159   2.721   5.816   9.636 -0.0076  0.1201 -0.0793
   10loPI   C4B  160   2.696   5.844   9.278  0.1260 -0.3197 -0.3419
   11loPI    C1  161   1.289   8.729  11.733 -0.0497 -0.0568  0.0981
   11loPI    C2  162   1.226   8.471  12.032 -0.3902 -0.0518  0.0353
   11loPI    C3  163   0.915   8.631  11.839 -0.1750  0.0726 -0.2133
   11loPI   PO4  164   1.465   8.654  11.633 -0.0001 -0.0136  0.0915
   11loPI   GL1  165   1.528   8.645  11.166  0.0257 -0.2712  0.1546
   11loPI   GL2  166   1.474   8.899  11.186  0.0457  0.1332  0.1927
   11loPI   C1A  167   1.806   8.576  10.789  0.3245  0.3034 -0.1124
   11loPI   C2A  168   1.718   8.529  10.350 -0.2193  0.0777 -0.0567
   11loPI   C3A  169   1.675   8.515   9.895  0.0330  0.2235  0.2021
   11loPI   C4A  170   1.635   8.605   9.497 -0.2232 -0.0842  0.1009
   11loPI   C5A  171   1.472   8.624   9.055 -0.0327  0.0124 -0.1091
   11loPI   C6A  172   1.601   8.925   8.796  0.1517 -0.1374 -0.0165
   11loPI   C1B  173   1.382   8.932  10.735  0.0306 -0.0188 -0.1861
   11loPI   C2B  174   1.356   8.957  10.265  0.1090 -0.2386  0.1043
   11loPI   C3B  175   1.322   8.929   9.819  0.0180 -0.1569  0.1696
   11loPI   C4B  176   1.298   8.946   9.383 -0.2345  0.3168  0.2804
   12loPI    C1  177  11.565   0.036  11.403 -0.3219 -0.0005 -0.1038
   12loPI    C2  178  11.421   0.188  11.744  0.3028  0.2388  0.0665
   12loPI    C3  179  11.267   0.303  11.393 -0.2416  0.1081  0.2530
   12loPI   PO4  180  11.769   0.135  11.421 -0.1944  0.1161  0.1126
   12loPI   GL1  181  11.975   0.070  11.081 -0.0145 -0.0346  0.0983
   12loPI   GL2  182  12.263   0.293  11.004  0.1274  0.1354 -0.3116
   12loPI   C1A  183  11.914  -0.173  10.821 -0.1032  0.2970  0.3933
   12loPI   C2A  184  11.881  -0.189  10.368 -0.0097 -0.1733 -0.1110
   12loPI   C3A  185  11.895  -0.189   9.992 -0.0172 -0.1534  0.0512
   12loPI   C4A  186  11.983  -0.238   9.517  0.1075 -0.0274  0.1745
   12loPI   C5A  187  11.935  -0.297   9.131 -0.0674  0.0383  0.1574
   12loPI   C6A  188  12.052  -0.589   8.707 -0.0401 -0.0920  0.1000
   12loPI   C1B  189  12.142   0.312  10.598 -0.0291 -0.0796  0.3096
   12loPI   C2B  190  12.045   0.294  10.112 -0.1885  0.1204  0.1199
   12loPI   C3B  191  12.120   0.249   9.741  0.3669 -0.2497  0.3066
   12loPI   C4B  192  12.040   0.238   9.280  0.1028 -0.1440  0.0517
   13loPI    C1  193  16.183   9.058  11.421 -0.1386 -0.0690 -0.0749
   13loPI    C2  194  15.986   8.723  11.324  0.0894 -0.2176 -0.0302
   13loPI    C3  195  16.383   8.743  11.279  0.0630  0.0925 -0.1532
   13loPI   PO4  196  16.024   9.290  11.402  0.1671 -0.0664 -0.1674
   13loPI   GL1  197  15.934   9.389  10.994 -0.0704 -0.0531 -0.2261
   13loPI   GL2  198  16.281   9.227  10.935  0.0902 -0.0139 -0.1317
   13loPI   C1A  199  15.610   9.315  10.699 -0.0159 -0.0038 -0.2220
   13loPI   C2A  200  15.619   9.202  10.269  0.2532 -0.0210  0.3237
   13loPI   C3A  201  15.642   9.240   9.748  0.1361 -0.0862  0.1466
   13loPI   C4A  202  15.630   9.211   9.317  0.3123 -0.0211  0.0322
   13loPI   C5A  203  15.711   9.272   8.824 -0.1623  0.0531  0.0196
   13loPI   C6A  204  16.045   9.054   8.729  0.0750 -0.4470 -0.0338
   13loPI   C1B  205  16.124   9.305  10.564  0.1968 -0.0022  0.1632
   13loPI   C2B  206  16.123   9.300  10.144 -0.2966 -0.1111 -0.0980
   13loPI   C3B  207  16.100   9.306   9.718 -0.0128  0.0192  0.0182
   13loPI   C4B  208  16.111   9.348   9.261 -0.3277  0.0436  0.0981
   14loPI    C1  209  14.083   5.758  11.811 -0.3408  0.1875  0.0800
   14loPI    C2  210  14.197   5.633  12.173 -0.1582 -0.0800 -0.0658
   14loPI    C3  211  14.457   5.824  11.937 -0.3067  0.1847 -0.0189
   14loPI   PO4  212  13.988   5.629  11.693 -0.2167 -0.1518 -0.4928
   14loPI   GL1  213  14.000   5.543  11.309  0.0426  0.0630 -0.0712
   14loPI   GL2  214  13.968   5.199  11.214 -0.1110 -0.2105 -0.0256
   14loPI   C1A  215  14.004   5.741  10.806  0.1196 -0.0232 -0.3297
   14loPI   C2A  216  14.037   5.688  10.302 -0.0655  0.0171 -0.1402
   14loPI   C3A  217  13.912   5.654   9.915 -0.2238 -0.3306  0.1467
   14loPI   C4A  218  13.920   5.824   9.464  0.0322  0.2305  0.1557
   14loPI   C5A  219  13.846   5.760   8.979  0.2476 -0.0348 -0.0141
   14loPI   C6A  220  13.824   5.581   8.562 -0.2458 -0.1637 -0.2002
   14loPI   C1B  221  13.826   5.275  10.863  0.1780  0.2003  0.1196
   14loPI   C2B  222  13.888   5.176  10.530  0.0808  0.1788 -0.1619
   14loPI   C3B  223  13.728   5.178  10.184 -0.1193 -0.2317 -0.0218
   14loPI   C4B  224  13.778   5.174   9.772  0.2932  0.1059 -0.4353
   15loPI    C1  225  11.514  10.912  11.724 -0.0265  0.2851 -0.0427
   15loPI    C2  226  11.146  11.027  11.619 -0.0888  0.0588 -0.0783
   15loPI    C3  227  11.226  10.936  12.000 -0.1026 -0.0141 -0.0928
   15loPI   PO4  228  11.580  10.777  11.494  0.0016  0.2570  0.0273
   15loPI   GL1  229  11.536  10.725  11.158 -0.1314  0.0460  0.0992
   15loPI   GL2  230  11.227  10.839  11.136  0.1203  0.3285 -0.0705
   15loPI   C1A  231  11.477  10.799  10.687 -0.1923  0.2287  0.0320
   15loPI   C2A  232  11.500  10.801  10.251  0.0455 -0.0452  0.0540
   15loPI   C3A  233  11.529  10.732   9.839  0.1068 -0.0471  0.0959
   15loPI   C4A  234  11.416  10.795   9.395  0.0368  0.1574 -0.0635
   15loPI   C5A  235  11.543  10.837   8.993 -0.0592  0.1894  0.1443
   15loPI   C6A  236  11.578  11.127   8.707  0.0806 -0.1096  0.0391
   15loPI   C1B  237  11.097  11.094  10.787 -0.0067 -0.1445 -0.0872
   15loPI   C2B  238  11.185  11.169  10.383 -0.2083  0.3523 -0.2557
   15loPI   C3B  239  11.231  11.154   9.928 -0.0890 -0.1866  0.1541
   15loPI   C4B  240  11.104  11.189   9.548  0.2119 -0.0202 -0.0415
   16loPI    C1  241  12.158   6.628  11.832 -0.0137 -0.0835 -0.1240
   16loPI    C2  242  12.129   6.997  11.984  0.1495 -0.1269  0.0160
   16loPI    C3  243  11.935   6.693  12.157  0.0499 -0.1155 -0.0738
   16loPI   PO4  244  12.055   6.696  11.517  0.1071 -0.0187  0.0203
   16loPI   GL1  245  12.064   6.728  11.030 -0.0676  0.0164 -0.3880
   16loPI   GL2  246  11.872   7.063  11.044  0.1663 -0.0237  0.0689
   16loPI   C1A  247  11.928   6.813  10.645  0.3213 -0.0429 -0.0036
   16loPI   C2A  248  11.993   6.730  10.140 -0.1529  0.2385  0.0505
   16loPI   C3A  249  11.947   6.690   9.654  0.3265  0.0400 -0.2797
   16loPI   C4A  250  11.784   6.744   9.178 -0.0002 -0.0264  0.1478
   16loPI   C5A  251  11.374   6.591   8.982  0.1054  0.0400 -0.2195
   16loPI   C6A  252  10.919   6.626   8.916  0.2330 -0.0472  0.0680
   16loPI   C1B  253  11.570   7.137  10.703 -0.1291  0.0134 -0.1785
   16loPI   C2B  254  11.554   7.177  10.237  0.1091  0.3174 -0.1568
   16loPI   C3B  255  11.633   7.040   9.839 -0.1826  0.1263 -0.2161
   16loPI   C4B  256  11.683   7.110   9.531 -0.3660 -0.2961  0.0451
   17loPI    C1  257  12.139   6.132  11.759 -0.0034 -0.1363 -0.0300
   17loPI    C2  258  12.318   5.952  12.069 -0.0894 -0.0863  0.0492
   17loPI    C3  259  12.031   6.224  12.133  0.0073  0.0460 -0.0706
   17loPI   PO4  260  12.269   6.148  11.541  0.0913  0.0930 -0.2269
   17loPI   GL1  261  12.342   5.920  11.127  0.3209 -0.0786 -0.2405
   17loPI   GL2  262  12.245   6.263  11.120 -0.2190 -0.0488 -0.0048
   17loPI   C1A  263  12.129   5.949  10.723  0.0759 -0.0830  0.1088
   17loPI   C2A  264  12.091   5.901  10.369  0.2730  0.0224  0.1877
   17loPI   C3A  265  12.057   5.742  10.069  0.2079  0.2309 -0.2281
   17loPI   C4A  266  12.062   5.794   9.603  0.0794  0.1748 -0.2790
   17loPI   C5A  267  11.981   5.868   9.201  0.1564 -0.3059 -0.0013
   17loPI   C6A  268  11.889   5.851   8.783 -0.2094 -0.0993 -0.2570
   17loPI   C1B  269  12.335   6.419  10.720  0.0834  0.1502  0.0640
   17loPI   C2B  270  12.251   6.313  10.194  0.0411 -0.1412  0.2363
   17loPI   C3B  271  12.183   6.273   9.816  0.1315 -0.1562  0.1926
   17loPI   C4B  272  12.322   6.162   9.406 -0.2524 -0.0052 -0.1244
   18loPI    C1  273   6.619   0.236  11.682 -0.1394 -0.3158  0.1146
   18loPI    C2  274   6.372   0.293  11.992 -0.0690  0.2926  0.0710
   18loPI    C3  275   6.754   0.196  12.056 -0.1076  0.2029  0.1669
   18loPI   PO4  276   6.601   0.119  11.492  0.1213  0.0910  0.0470
   18loPI   GL1  277   6.781   0.022  11.069 -0.1590  0.0739  0.0308
   18loPI   GL2  278   6.877   0.314  10.884 -0.2791 -0.2627  0.3481
   18loPI   C1A  279   6.764  -0.202  10.665 -0.2725  0.1045  0.1185
   18loPI   C2A  280   6.667  -0.331  10.208  0.0014 -0.1508 -0.0389
   18loPI   C3A  281   6.624  -0.271   9.790 -0.0285  0.2428  0.4535
   18loPI   C4A  282   6.624  -0.365   9.388 -0.3389 -0.2528  0.2344
   18loPI   C5A  283   6.689  -0.265   8.972 -0.0227 -0.1401  0.2054
   18loPI   C6A  284   6.907   0.093   8.806 -0.1402 -0.0584  0.0932
   18loPI   C1B  285   6.902   0.255  10.511 -0.1850 -0.1717  0.1395
   18loPI   C2B  286   6.914   0.172  10.113 -0.0638 -0.4230  0.1276
   18loPI   C3B  287   6.770   0.179   9.657 -0.2395 -0.3424  0.1019
   18loPI   C4B  288   6.837   0.147   9.293  0.1775  0.2683 -0.0284
   19loPI    C1  289  12.663   9.896  11.867 -0.0272  0.3401 -0.1982
   19loPI    C2  290  12.441   9.713  12.145  0.1301 -0.1734 -0.3978
   19loPI    C3  291  12.755   9.935  12.254 -0.0125 -0.0869 -0.1537
   19loPI   PO4  292  12.809   9.801  11.686  0.0281 -0.1162  0.1496
   19loPI   GL1  293  12.791   9.581  11.276  0.0548 -0.1773  0.0273
   19loPI   GL2  294  13.124   9.531  11.189 -0.3908 -0.0916  0.3242
   19loPI   C1A  295  12.751   9.669  10.798  0.0413  0.3728  0.1343
   19loPI   C2A  296  12.872   9.658  10.336 -0.0365  0.1392  0.0886
   19loPI   C3A  297  13.014   9.565   9.964 -0.0083 -0.2673  0.0348
   19loPI   C4A  298  12.986   9.645   9.505 -0.1200 -0.0675 -0.2847
   19loPI   C5A  299  12.950   9.779   9.031 -0.0632 -0.0702 -0.0801
   19loPI   C6A  300  12.989   9.763   8.584 -0.0331 -0.0768  0.0361
   19loPI   C1B  301  13.285   9.399  10.793 -0.0301  0.2196 -0.2820
   19loPI   C2B  302  13.322   9.296  10.346  0.1923 -0.1427 -0.0879
   19loPI   C3B  303  13.363   9.230   9.929  0.1592 -0.0260 -0.0220
   19loPI   C4B  304  13.363   9.262   9.518 -0.0535 -0.1054  0.0239
   20loPI    C1  305  15.999  13.431  11.694 -0.1736  0.1440 -0.0228
   20loPI    C2  306  16.316  13.574  11.893 -0.1071  0.0902 -0.0894
   20loPI    C3  307  16.055  13.333  12.078 -0.0534  0.0523 -0.0629
   20loPI   PO4  308  15.889  13.550  11.495 -0.3787  0.2093 -0.4432
   20loPI   GL1  309  16.061  13.484  11.141 -0.0038  0.1921  0.1625
   20loPI   GL2  310  16.308  13.537  10.891  0.1829  0.4783 -0.0025
   20loPI   C1A  311  15.822  13.385  10.712 -0.0117 -0.0843 -0.1642
   20loPI   C2A  312  15.688  13.441  10.260  0.0733  0.2093  0.1182
   20loPI   C3A  313  15.735  13.341   9.810 -0.1418  0.0803 -0.2407
   20loPI   C4A  314  15.749  13.352   9.404  0.3735  0.2454 -0.1391
   20loPI   C5A  315  15.779  13.495   8.905  0.1863 -0.4722 -0.4638
   20loPI   C6A  316  15.701  13.219   8.640  0.0929 -0.1027  0.2148
   20loPI   C1B  317  16.223  13.493  10.404  0.0316  0.1135 -0.1099
   20loPI   C2B  318  16.159  13.450  10.029 -0.0925  0.0079 -0.0411
   20loPI   C3B  319  16.229  13.430   9.626  0.1084 -0.1731 -0.1379
   20loPI   C4B  320  16.233  13.470   9.132  0.4320  0.0035  0.2861
   21loPI    C1  321  14.025   7.463  11.467  0.1401  0.1605 -0.0373
   21loPI    C2  322  13.837   7.734  11.694 -0.1643 -0.2569  0.2239
   21loPI    C3  323  14.068   7.455  11.864  0.1781 -0.1450 -0.0451
   21loPI   PO4  324  13.995   7.517  11.212  0.1621  0.0291 -0.2248
   21loPI   GL1  325  13.787   7.515  10.905 -0.0638  0.0433  0.3228
   21loPI   GL2  326  13.811   7.842  10.835  0.0026 -0.3068 -0.0270
   21loPI   C1A  327  13.702   7.449  10.529  0.2305 -0.1346 -0.1251
   21loPI   C2A  328  13.671   7.404  10.083  0.3626  0.1000 -0.2330
   21loPI   C3A  329  13.651   7.402   9.702  0.4407  0.0075 -0.0075
   21loPI   C4A  330  13.650   7.417   9.325  0.2405 -0.0171  0.0216
   21loPI   C5A  331  13.857   7.423   8.966 -0.0756  0.1172 -0.1310
   21loPI   C6A  332  14.140   7.217   8.819  0.1048  0.0769  0.2621
   21loPI   C1B  333  13.754   7.956  10.488  0.2643  0.3019 -0.1614
   21loPI   C2B  334  13.771   7.960   9.995  0.0887  0.2510 -0.3209
   21loPI   C3B  335  13.802   7.932   9.562 -0.0927  0.1272  0.0539
   21loPI   C4B  336  13.982   7.947   9.142 -0.1492 -0.0403 -0.2076
   22loPI    C1  337   7.987  16.604  11.702  0.0396  0.0074  0.2994
   22loPI    C2  338   8.065  16.306  11.956  0.1308  0.1167  0.4011
   22loPI    C3  339   7.824  16.605  12.067  0.1777  0.1691  0.3624
   22loPI   PO4  340   8.012  16.510  11.518 -0.2078  0.1748 -0.2130
   22loPI   GL1  341   7.718  16.518  11.283 -0.0506 -0.0589  0.1731
   22loPI   GL2  342   7.559  16.242  11.159  0.0964 -0.1054 -0.0504
   22loPI   C1A  343   7.817  16.555  10.864  0.2052  0.3667  0.1245
   22loPI   C2A  344   7.777  16.532  10.438 -0.3862  0.0352 -0.2720
   22loPI   C3A  345   7.782  16.487  10.058  0.2318  0.2008 -0.2225
   22loPI   C4A  346   7.853  16.518   9.622 -0.1336  0.0992  0.0077
   22loPI   C5A  347   7.710  16.393   9.276 -0.0239 -0.1772  0.0073
   22loPI   C6A  348   7.950  16.290   8.956  0.0795  0.0246 -0.2062
   22loPI   C1B  349   7.662  16.047  10.724 -0.0005  0.0942 -0.2080
   22loPI   C2B  350   7.612  16.034  10.284 -0.4221  0.4143  0.0767
   22loPI   C3B  351   7.672  16.032   9.857 -0.2369 -0.2234 -0.2552
   22loPI   C4B  352   7.634  15.930   9.447 -0.1026  0.0725 -0.1536
   23loPI    C1  353   9.199   3.422  11.841  0.0712  0.0665  0.1155
   23loPI    C2  354   9.288   3.076  12.020  0.1530  0.0241 -0.0055
   23loPI    C3  355   9.050   3.340  12.203 -0.3451 -0.3219 -0.1321
   23loPI   PO4  356   9.172   3.399  11.519 -0.0327  0.1417  0.1137
   23loPI   GL1  357   9.413   3.416  11.208 -0.1684  0.0471 -0.1579
   23loPI   GL2  358   9.709   3.358  11.130 -0.1790  0.0186 -0.2289
   23loPI   C1A  359   9.392   3.454  10.699 -0.0980  0.1835  0.3090
   23loPI   C2A  360   9.426   3.435  10.229  0.0680 -0.0994 -0.2874
   23loPI   C3A  361   9.339   3.395   9.836 -0.4271 -0.2456  0.0034
   23loPI   C4A  362   9.307   3.407   9.422 -0.1475 -0.1511  0.2283
   23loPI   C5A  363   9.716   3.357   9.115 -0.1364 -0.2136  0.1078
   23loPI   C6A  364   9.932   3.170   8.779 -0.0479  0.1552  0.0394
   23loPI   C1B  365   9.771   3.144  10.781  0.1778 -0.1560  0.0646
   23loPI   C2B  366   9.696   3.080  10.407 -0.0656 -0.0713 -0.3326
   23loPI   C3B  367   9.713   3.065   9.954  0.1428  0.0840 -0.1667
   23loPI   C4B  368   9.687   2.990   9.536 -0.4386 -0.1648  0.2661
   24loPI    C1  369  14.599   1.318  11.519  0.0115  0.2279 -0.1444
   24loPI    C2  370  14.456   1.038  11.271 -0.0895  0.0837  0.0738
   24loPI    C3  371  14.278   1.104  11.623 -0.0659  0.4241  0.0252
   24loPI   PO4  372  14.823   1.373  11.422  0.0297 -0.4437  0.1199
   24loPI   GL1  373  15.075   1.272  11.032  0.2765  0.0605  0.0189
   24loPI   GL2  374  14.774   1.266  10.799 -0.0760  0.1426 -0.1119
   24loPI   C1A  375  15.265   1.392  10.648  0.0822 -0.1158 -0.1499
   24loPI   C2A  376  15.210   1.382  10.242 -0.0248  0.0469 -0.0545
   24loPI   C3A  377  15.142   1.337   9.882 -0.0420  0.0723 -0.2417
   24loPI   C4A  378  15.151   1.256   9.450 -0.1779  0.0877  0.0929
   24loPI   C5A  379  15.273   1.431   9.023  0.0480 -0.0661 -0.1681
   24loPI   C6A  380  15.331   1.430   8.589  0.0843  0.0652 -0.1551
   24loPI   C1B  381  14.637   1.357  10.301 -0.2552  0.1425 -0.0703
   24loPI   C2B  382  14.695   1.216   9.965 -0.1240 -0.0375 -0.1191
   24loPI   C3B  383  14.693   1.148   9.506  0.0227  0.1849 -0.0880
   24loPI   C4B  384  14.801   1.190   9.082 -0.1127 -0.0937 -0.0977
   25loPI    C1  385   8.973  11.278  12.105 -0.1639 -0.2857  0.0386
   25loPI    C2  386   8.738  11.594  12.030 -0.0719 -0.1749  0.2117
   25loPI    C3  387   8.643  11.337  12.322 -0.1685 -0.3321  0.0444
   25loPI   PO4  388   9.027  11.084  11.891  0.5628  0.0108  0.1251
   25loPI   GL1  389   8.731  11.094  11.421 -0.1642  0.4275 -0.1350
   25loPI   GL2  390   9.017  10.944  11.226  0.1880 -0.0683  0.1332
   25loPI   C1A  391   8.684  11.263  11.102 -0.4636 -0.3555 -0.0259
   25loPI   C2A  392   8.817  11.205  10.708 -0.3200 -0.0335 -0.0818
   25loPI   C3A  393   8.840  11.179  10.264  0.0153 -0.1423  0.1062
   25loPI   C4A  394   8.786  11.148   9.873  0.2051  0.0558  0.1373
   25loPI   C5A  395   8.938  11.160   9.451  0.1267  0.0313 -0.2991
   25loPI   C6A  396   8.935  10.976   9.079 -0.1744 -0.0468  0.2572
   25loPI   C1B  397   9.163  10.854  10.797  0.1085 -0.0343  0.0310
   25loPI   C2B  398   9.088  10.765  10.391 -0.2003 -0.1192 -0.1247
   25loPI   C3B  399   9.141  10.824   9.948 -0.0343  0.0643  0.1322
   25loPI   C4B  400   9.161  10.705   9.539 -0.2965 -0.0637 -0.1091
   26loPI    C1  401   6.033   3.686  11.487  0.0128 -0.1643  0.0564
   26loPI    C2  402   5.803   3.526  11.772  0.0503  0.1588  0.2729
   26loPI    C3  403   6.183   3.407  11.731  0.0220  0.0560  0.3076
   26loPI   PO4  404   5.905   3.662  11.208 -0.0473 -0.1450 -0.2423
   26loPI   GL1  405   5.625   3.867  10.949 -0.2396 -0.1977  0.1793
   26loPI   GL2  406   5.412   4.123  10.883  0.0024  0.0040  0.3561
   26loPI   C1A  407   5.730   3.712  10.558  0.0842  0.0350  0.0694
   26loPI   C2A  408   5.766   3.783  10.147  0.0286  0.1755  0.2486
   26loPI   C3A  409   5.692   3.664   9.736  0.0914 -0.3818  0.1813
   26loPI   C4A  410   5.657   3.681   9.315 -0.1513 -0.1050  0.0753
   26loPI   C5A  411   5.803   3.607   8.831 -0.3302 -0.2785  0.0492
   26loPI   C6A  412   5.653   3.360   8.492  0.1179 -0.0181 -0.5003
   26loPI   C1B  413   5.382   4.050  10.458  0.4727  0.0063  0.1396
   26loPI   C2B  414   5.340   4.150   9.973 -0.1361 -0.0490 -0.0661
   26loPI   C3B  415   5.412   4.060   9.558  0.1978 -0.0857 -0.3736
   26loPI   C4B  416   5.366   4.220   9.172  0.0681 -0.0819 -0.1987
   27loPI    C1  417   5.630  10.847  11.729 -0.0727  0.2893  0.0993
   27loPI    C2  418   5.946  10.808  11.972  0.0141  0.1473 -0.0343
   27loPI    C3  419   5.591  10.919  12.121  0.1052  0.2211  0.1305
   27loPI   PO4  420   5.783  10.844  11.467 -0.4617  0.3610 -0.1059
   27loPI   GL1  421   5.623  10.847  11.196 -0.1416 -0.0575 -0.0378
   27loPI   GL2  422   5.493  11.154  11.056  0.0442 -0.1553  0.1889
   27loPI   C1A  423   5.738  10.693  10.763  0.1784 -0.2082 -0.0188
   27loPI   C2A  424   5.741  10.671  10.312 -0.4125 -0.0485  0.3081
   27loPI   C3A  425   5.732  10.639   9.875 -0.2776  0.1175  0.0381
   27loPI   C4A  426   5.826  10.640   9.501 -0.2263 -0.2824  0.1094
   27loPI   C5A  427   6.009  10.425   9.189  0.0816  0.0636  0.1312
   27loPI   C6A  428   6.192  10.287   8.743  0.2363 -0.0067  0.4510
   27loPI   C1B  429   5.427  11.101  10.609  0.1200 -0.0781 -0.0155
   27loPI   C2B  430   5.377  11.143  10.206  0.0030  0.0374  0.1488
   27loPI   C3B  431   5.439  11.015   9.741 -0.2957 -0.1000  0.0692
   27loPI   C4B  432   5.552  10.988   9.350  0.1913 -0.0523  0.2694
   28loPI    C1  433  16.178   8.394  11.670 -0.1013  0.1351  0.1721
   28loPI    C2  434  16.392   8.407  12.007  0.3231  0.0030 -0.0849
   28loPI    C3  435  16.349   8.736  11.784  0.1520  0.0589  0.0291
   28loPI   PO4  436  16.249   8.199  11.513  0.0672 -0.0240  0.0105
   28loPI   GL1  437  16.317   8.302  11.038  0.1309 -0.0233  0.0328
   28loPI   GL2  438  16.202   8.015  10.783  0.0460  0.0173 -0.2249
   28loPI   C1A  439  16.424   8.384  10.604  0.0230  0.2803 -0.1914
   28loPI   C2A  440  16.335   8.432  10.175 -0.2667 -0.0076 -0.0660
   28loPI   C3A  441  16.271   8.402   9.677 -0.1723 -0.2652  0.3369
   28loPI   C4A  442  16.302   8.428   9.195  0.2005 -0.1840  0.1851
   28loPI   C5A  443  16.664   8.626   8.997 -0.2566  0.2259 -0.3218
   28loPI   C6A  444  16.999   8.882   8.957  0.3733  0.0011  0.2712
   28loPI   C1B  445  16.171   7.946  10.271 -0.0200  0.2618  0.0028
   28loPI   C2B  446  16.147   7.950   9.835 -0.2597 -0.4940  0.0925
   28loPI   C3B  447  16.141   7.948   9.415  0.2271  0.0052  0.0752
   28loPI   C4B  448  16.172   8.010   8.923  0.1614  0.2706  0.0379
   29loPI    C1  449   5.732  15.604  11.629  0.2132  0.0747 -0.0433
   29loPI    C2  450   5.971  15.873  11.804  0.1872 -0.1047  0.2752
   29loPI    C3  451   5.651  15.733  11.999  0.0583 -0.1797  0.0139
   29loPI   PO4  452   5.860  15.634  11.380 -0.0544  0.0160  0.2278
   29loPI   GL1  453   5.972  15.376  11.115  0.0791  0.0674  0.1418
   29loPI   GL2  454   6.185  15.694  11.022 -0.1630  0.2063 -0.1716
   29loPI   C1A  455   5.974  15.284  10.658 -0.2163  0.2282  0.0659
   29loPI   C2A  456   6.033  15.294  10.232 -0.2231  0.2597 -0.0102
   29loPI   C3A  457   5.945  15.217   9.876 -0.0955  0.0418 -0.1184
   29loPI   C4A  458   6.029  15.171   9.418  0.2173 -0.1870  0.0010
   29loPI   C5A  459   6.015  15.326   9.015  0.1704 -0.1134  0.0546
   29loPI   C6A  460   6.189  15.624   8.776 -0.0178  0.1582  0.2799
   29loPI   C1B  461   6.157  15.798  10.553 -0.1511  0.0022 -0.2078
   29loPI   C2B  462   6.172  15.757  10.117  0.0522  0.2338  0.1412
   29loPI   C3B  463   6.164  15.746   9.730  0.1000 -0.2363 -0.2222
   29loPI   C4B  464   6.212  15.690   9.321 -0.0090 -0.1520  0.0623
   30loPI    C1  465   0.271  16.291  11.491 -0.0293 -0.1223 -0.0701
   30loPI    C2  466   0.247  16.125  11.854 -0.0786  0.0312 -0.0023
   30loPI    C3  467   0.060  16.471  11.779 -0.0364  0.0200 -0.1632
   30loPI   PO4  468   0.230  16.093  11.340  0.0152  0.1060  0.0504
   30loPI   GL1  469   0.158  16.113  10.888  0.1605 -0.1260 -0.0822
   30loPI   GL2  470   0.497  16.323  10.888  0.1219  0.0375  0.2217
   30loPI   C1A  471   0.142  16.079  10.476 -0.1046 -0.0010  0.0557
   30loPI   C2A  472   0.119  16.025  10.025  0.0220  0.0013 -0.1923
   30loPI   C3A  473   0.094  16.016   9.612  0.1270 -0.1123  0.3262
   30loPI   C4A  474   0.031  15.869   9.139 -0.0290 -0.1613 -0.2560
   30loPI   C5A  475  -0.126  15.921   8.780  0.1925  0.0065 -0.1897
   30loPI   C6A  476  -0.093  16.044   8.366  0.3590  0.0242  0.2378
   30loPI   C1B  477   0.608  16.203  10.415 -0.3079  0.1542 -0.1640
   30loPI   C2B  478   0.629  16.119   9.926 -0.2491 -0.1099  0.3300
   30loPI   C3B  479   0.600  16.000   9.538  0.0080  0.1662  0.0187
   30loPI   C4B  480   0.625  16.109   9.093 -0.2014  0.2348 -0.1221
   31loPI    C1  481  14.037  14.550  11.807 -0.1999  0.0591 -0.0716
   31loPI    C2  482  13.869  14.880  11.958 -0.0556  0.0342  0.1468
   31loPI    C3  483  14.146  14.681  12.168 -0.0678 -0.1696 -0.0262
   31loPI   PO4  484  13.972  14.691  11.496  0.1198 -0.1400  0.0426
   31loPI   GL1  485  14.022  14.664  11.121  0.2467 -0.0830 -0.2201
   31loPI   GL2  486  13.828  14.896  10.979 -0.0085  0.1336  0.0063
   31loPI   C1A  487  13.747  14.437  10.864 -0.1083  0.0526  0.1131
   31loPI   C2A  488  13.667  14.474  10.478 -0.0705  0.0427 -0.0241
   31loPI   C3A  489  13.704  14.499  10.085  0.1002  0.3704  0.3612
   31loPI   C4A  490  13.625  14.346   9.682 -0.2931 -0.0690 -0.0857
   31loPI   C5A  491  13.740  14.338   9.244  0.2004  0.1968  0.0510
   31loPI   C6A  492  13.546  14.208   8.797 -0.2030  0.2422 -0.1724
   31loPI   C1B  493  13.905  14.941  10.526 -0.2937 -0.0342  0.3663
   31loPI   C2B  494  13.793  14.990  10.162  0.1106  0.2547  0.0952
   31loPI   C3B  495  13.804  14.887   9.728 -0.1987  0.1478 -0.0315
   31loPI   C4B  496  13.756  14.876   9.306 -0.0275  0.0392  0.0132
   32loPI    C1  497   1.041   6.070  11.702  0.1029 -0.1871 -0.0351
   32loPI    C2  498   0.944   6.161  12.080  0.3373  0.1018 -0.0414
   32loPI    C3  499   1.074   5.794  11.990  0.1450 -0.0107  0.1315
   32loPI   PO4  500   0.877   6.136  11.591 -0.1549 -0.0799  0.1121
   32loPI   GL1  501   0.901   6.234  11.129 -0.0119  0.2404  0.2721
   32loPI   GL2  502   1.143   6.029  11.171 -0.1471  0.0848 -0.0177
   32loPI   C1A  503   0.796   6.069  10.606 -0.3956 -0.0456 -0.0677
   32loPI   C2A  504   0.891   5.942  10.183 -0.0864 -0.2344  0.4265
   32loPI   C3A  505   0.800   5.883   9.810 -0.0924 -0.0480 -0.3368
   32loPI   C4A  506   0.915   6.058   9.401 -0.1226 -0.0405  0.0282
   32loPI   C5A  507   0.822   6.280   8.982 -0.0886 -0.0254  0.2120
   32loPI   C6A  508   0.756   6.595   8.620  0.0897  0.0274 -0.0157
   32loPI   C1B  509   1.282   6.031  10.745 -0.1591 -0.1736  0.1380
   32loPI   C2B  510   1.392   6.085  10.345 -0.0487 -0.1852  0.3547
   32loPI   C3B  511   1.326   6.136   9.962  0.1000 -0.0555 -0.0593
   32loPI   C4B  512   1.396   6.109   9.534  0.2905  0.0854 -0.1360
   33loPI    C1  513  12.214   3.385  11.614  0.2819  0.2787 -0.0267
   33loPI    C2  514  12.416   3.134  11.851 -0.1530 -0.0739 -0.0156
   33loPI    C3  515  12.170   3.406  12.011 -0.0989 -0.0055 -0.0480
   33loPI   PO4  516  12.226   3.332  11.337 -0.0617  0.1400 -0.0680
   33loPI   GL1  517  12.181   3.454  10.928  0.1052  0.2456 -0.1354
   33loPI   GL2  518  12.279   3.695  10.797 -0.0733 -0.1481  0.0572
   33loPI   C1A  519  12.113   3.259  10.523 -0.0815  0.0117  0.0080
   33loPI   C2A  520  12.051   3.053  10.114 -0.0295  0.3817 -0.3044
   33loPI   C3A  521  12.024   3.015   9.606  0.0453  0.1809  0.0042
   33loPI   C4A  522  12.025   2.998   9.250 -0.0119  0.0661 -0.0006
   33loPI   C5A  523  12.162   3.010   8.940 -0.1188  0.1239 -0.0697
   33loPI   C6A  524  12.218   3.392   8.754 -0.0552  0.0604  0.1389
   33loPI   C1B  525  12.344   3.715  10.387 -0.0680  0.1401 -0.0941
   33loPI   C2B  526  12.219   3.536  10.023 -0.1680 -0.1480 -0.0548
   33loPI   C3B  527  12.134   3.502   9.642 -0.0209  0.0093  0.1856
   33loPI   C4B  528  12.291   3.416   9.271 -0.0852  0.0115 -0.0224
   34loPI    C1  529   7.099  14.522  11.981  0.0415 -0.2265 -0.1464
   34loPI    C2  530   7.339  14.500  12.300  0.0329  0.1767 -0.1075
   34loPI    C3  531   6.946  14.559  12.349 -0.0014  0.0171 -0.1867
   34loPI   PO4  532   7.233  14.662  11.803 -0.1324 -0.0415 -0.2765
   34loPI   GL1  533   7.391  14.760  11.367  0.1799  0.0090  0.0321
   34loPI   GL2  534   7.622  14.930  11.270 -0.0989 -0.1425 -0.0882
   34loPI   C1A  535   7.203  14.590  10.960 -0.1775 -0.1087 -0.3761
   34loPI   C2A  536   7.178  14.667  10.479 -0.0926 -0.0264  0.1933
   34loPI   C3A  537   7.249  14.621  10.108  0.1488  0.0562  0.0788
   34loPI   C4A  538   7.163  14.538   9.671 -0.3119 -0.0584 -0.2764
   34loPI   C5A  539   7.179  14.395   9.254 -0.2842  0.1094  0.2903
   34loPI   C6A  540   7.322  14.421   8.815  0.1813 -0.0397 -0.0893
   34loPI   C1B  541   7.820  15.185  10.900 -0.0557  0.1358  0.2181
   34loPI   C2B  542   7.843  15.183  10.489  0.1641 -0.0901 -0.0312
   34loPI   C3B  543   7.787  15.163  10.043  0.1616 -0.0290 -0.2231
   34loPI   C4B  544   7.839  15.170   9.646 -0.2511 -0.1922 -0.1943
   35loPI    C1  545   5.028   3.072  11.673 -0.1291 -0.1219  0.1266
   35loPI    C2  546   4.886   3.340  11.934  0.0094 -0.1439  0.2252
   35loPI    C3  547   4.904   2.953  12.034  0.0730 -0.1508  0.1876
   35loPI   PO4  548   4.898   3.161  11.395 -0.1222 -0.1081  0.1038
   35loPI   GL1  549   4.651   3.264  11.046 -0.0532  0.0701 -0.0656
   35loPI   GL2  550   4.657   3.030  10.808 -0.1073  0.0852  0.3603
   35loPI   C1A  551   4.737   3.514  10.696  0.2074 -0.1885  0.0412
   35loPI   C2A  552   4.782   3.580  10.223  0.1301  0.2155 -0.0591
   35loPI   C3A  553   4.696   3.559   9.804  0.0882 -0.2612  0.0524
   35loPI   C4A  554   4.728   3.484   9.392  0.1415  0.1851  0.2172
   35loPI   C5A  555   4.678   3.574   8.976  0.0757  0.0096  0.0865
   35loPI   C6A  556   4.848   3.632   8.527  0.0919  0.0992 -0.2396
   35loPI   C1B  557   4.586   3.102  10.350  0.0332 -0.1888  0.0941
   35loPI   C2B  558   4.630   3.079   9.938  0.0261 -0.2419  0.0916
   35loPI   C3B  559   4.560   3.020   9.542  0.1767  0.0926  0.0995
   35loPI   C4B  560   4.520   3.048   9.066 -0.0122  0.0224  0.0213
   36loPI    C1  561   8.315   7.987  12.044  0.1787 -0.1847  0.0060
   36loPI    C2  562   8.270   7.694  12.313  0.0594 -0.0952  0.0846
   36loPI    C3  563   8.267   8.076  12.431  0.3602 -0.0653  0.0022
   36loPI   PO4  564   8.506   7.858  11.839  0.1672 -0.1240  0.0321
   36loPI   GL1  565   8.596   7.849  11.347 -0.2012  0.0466 -0.1691
   36loPI   GL2  566   8.247   7.971  11.298 -0.2170  0.1824  0.1425
   36loPI   C1A  567   8.639   7.933  10.903  0.1908  0.0130 -0.0095
   36loPI   C2A  568   8.603   7.959  10.457 -0.2245  0.0967  0.0835
   36loPI   C3A  569   8.696   7.902  10.102 -0.1253  0.0481  0.1902
   36loPI   C4A  570   8.672   7.973   9.680 -0.1863  0.2272 -0.2554
   36loPI   C5A  571   8.402   8.004   9.362 -0.0968 -0.5115 -0.0254
   36loPI   C6A  572   8.148   8.362   9.222  0.1758  0.0708 -0.0949
   36loPI   C1B  573   8.155   7.877  10.888 -0.1912 -0.0143  0.0849
   36loPI   C2B  574   8.079   7.829  10.418 -0.3443  0.3277  0.2294
   36loPI   C3B  575   8.172   7.792   9.949 -0.1773  0.0607  0.2760
   36loPI   C4B  576   8.013   7.651   9.502 -0.4487 -0.0970 -0.0720
   37loPI    C1  577   8.887   2.221  11.797 -0.0422  0.0868 -0.0711
   37loPI    C2  578   8.864   2.309  12.186 -0.1037  0.0056 -0.0560
   37loPI    C3  579   9.096   2.008  12.062 -0.1470 -0.0204 -0.0738
   37loPI   PO4  580   8.972   2.403  11.663 -0.0456  0.0810  0.1776
   37loPI   GL1  581   8.882   2.486  11.289 -0.0993  0.1131 -0.1197
   37loPI   GL2  582   8.969   2.185  11.139  0.2052  0.2153 -0.3742
   37loPI   C1A  583   9.053   2.551  10.817  0.0857  0.0512 -0.1129
   37loPI   C2A  584   9.068   2.478  10.319  0.0618  0.2563 -0.0189
   37loPI   C3A  585   8.952   2.459   9.857 -0.0575 -0.4216  0.0764
   37loPI   C4A  586   8.963   2.405   9.460 -0.0023 -0.4441 -0.0407
   37loPI   C5A  587   9.122   2.515   9.015  0.3603 -0.1437  0.0042
   37loPI   C6A  588   9.171   2.613   8.603  0.0028 -0.1176 -0.1686
   37loPI   C1B  589   8.907   2.006  10.792  0.2414 -0.0186  0.2458
   37loPI   C2B  590   8.858   2.037  10.450  0.0248 -0.0367 -0.1249
   37loPI   C3B  591   8.813   2.013   9.960  0.2172 -0.1245  0.3135
   37loPI   C4B  592   8.822   1.944   9.536  0.1479 -0.1090 -0.3774
   38loPI    C1  593  14.751  15.884  11.727  0.0907  0.3057 -0.3885
   38loPI    C2  594  15.143  15.901  11.809  0.0363 -0.0896 -0.0030
   38loPI    C3  595  14.890  16.158  11.983  0.0629 -0.1757  0.1646
   38loPI   PO4  596  14.757  15.799  11.408 -0.1107 -0.0258  0.0851
   38loPI   GL1  597  14.757  15.956  11.097  0.1678 -0.1402 -0.0178
   38loPI   GL2  598  14.905  15.680  10.939  0.0263  0.2265  0.0462
   38loPI   C1A  599  14.746  16.026  10.621  0.0051 -0.0865 -0.1101
   38loPI   C2A  600  14.744  15.887  10.166 -0.1394  0.1614 -0.2853
   38loPI   C3A  601  14.740  15.957   9.726  0.2304  0.0426 -0.1356
   38loPI   C4A  602  14.651  15.806   9.348  0.1199 -0.2890  0.0662
   38loPI   C5A  603  14.582  15.759   8.872 -0.2436 -0.1996  0.2031
   38loPI   C6A  604  14.701  15.671   8.497 -0.0006  0.1918 -0.0730
   38loPI   C1B  605  14.964  15.283  10.799 -0.0600  0.2013 -0.0132
   38loPI   C2B  606  14.906  15.090  10.396 -0.1050 -0.1091  0.0027
   38loPI   C3B  607  14.833  15.091   9.900 -0.0821 -0.0056  0.1301
   38loPI   C4B  608  14.811  14.956   9.520 -0.1911  0.1341 -0.1050
   39loPI    C1  609   0.190  17.300  11.661 -0.2611 -0.2201 -0.1808
   39loPI    C2  610  -0.034  17.030  11.854  0.0177 -0.1172  0.3034
   39loPI    C3  611  -0.068  17.418  11.943 -0.1683 -0.0164 -0.1798
   39loPI   PO4  612   0.145  17.287  11.424  0.2104 -0.3637 -0.0759
   39loPI   GL1  613   0.465  17.262  11.078  0.0366  0.3966  0.0342
   39loPI   GL2  614   0.194  17.442  10.869 -0.1703 -0.1469  0.1426
   39loPI   C1A  615   0.376  17.055  10.657 -0.1707  0.3471 -0.2250
   39loPI   C2A  616   0.490  17.027  10.336 -0.2531  0.0166  0.1858
   39loPI   C3A  617   0.467  16.974   9.772 -0.2451 -0.2609 -0.0315
   39loPI   C4A  618   0.520  17.020   9.324  0.1180 -0.0663  0.0186
   39loPI   C5A  619   0.243  17.074   8.983  0.1851  0.0864  0.0758
   39loPI   C6A  620  -0.003  16.837   8.667  0.3589  0.1066 -0.0841
   39loPI   C1B  621   0.080  17.434  10.522 -0.1879  0.0948  0.0476
   39loPI   C2B  622   0.145  17.333  10.112 -0.0503 -0.1012  0.3514
   39loPI   C3B  623   0.238  17.443   9.653 -0.2901  0.2601 -0.1741
   39loPI   C4B  624   0.016  17.419   9.326  0.0009 -0.1890 -0.0691
   40loPI    C1  625   7.097   6.800  11.768  0.2352  0.2402 -0.2011
   40loPI    C2  626   6.764   6.949  11.604  0.0719  0.3439  0.2117
   40loPI    C3  627   6.789   6.906  12.001  0.4186  0.0027  0.1585
   40loPI   PO4  628   7.123   6.574  11.603 -0.2216  0.0026 -0.1849
   40loPI   GL1  629   7.162   6.471  11.232 -0.2006 -0.1273 -0.1315
   40loPI   GL2  630   7.195   6.851  11.218 -0.0029 -0.1079 -0.0707
   40loPI   C1A  631   7.065   6.323  10.878  0.0567  0.0799  0.1969
   40loPI   C2A  632   7.133   6.253  10.477 -0.0769 -0.0746 -0.0612
   40loPI   C3A  633   7.101   6.286  10.124 -0.2036 -0.2237  0.0421
   40loPI   C4A  634   7.069   6.253   9.678 -0.0508 -0.0494  0.2915
   40loPI   C5A  635   6.996   6.219   9.238  0.2099  0.1406  0.2622
   40loPI   C6A  636   6.681   6.189   8.864 -0.1592  0.1447  0.4068
   40loPI   C1B  637   7.310   6.827  10.761  0.1275  0.1655 -0.0272
   40loPI   C2B  638   7.356   6.807  10.358 -0.2029 -0.2175  0.2486
   40loPI   C3B  639   7.307   6.706   9.960  0.2463  0.0710  0.1248
   40loPI   C4B  640   7.244   6.676   9.479  0.0826  0.0170  0.2569
   41loPI    C1  641  14.799  10.524  11.465  0.1306  0.0116  0.1140
   41loPI    C2  642  14.947  10.513  11.837 -0.0368 -0.1483  0.1772
   41loPI    C3  643  14.553  10.552  11.779  0.0321  0.3800  0.0099
   41loPI   PO4  644  14.807  10.739  11.271  0.0591 -0.4989 -0.0577
   41loPI   GL1  645  14.685  11.064  10.952  0.0766  0.1347 -0.0656
   41loPI   GL2  646  14.519  11.249  10.860  0.1882  0.3368 -0.0795
   41loPI   C1A  647  14.827  11.035  10.538 -0.0480 -0.2267 -0.1817
   41loPI   C2A  648  14.795  10.983  10.088  0.1172  0.2190 -0.1159
   41loPI   C3A  649  14.781  10.923   9.620 -0.0695  0.0585  0.4161
   41loPI   C4A  650  14.801  10.900   9.171  0.1086  0.0426  0.1187
   41loPI   C5A  651  14.669  10.750   8.749  0.2458  0.2100  0.0247
   41loPI   C6A  652  14.766  10.628   8.334  0.0532  0.0873 -0.0945
   41loPI   C1B  653  14.514  11.408  10.361 -0.0927  0.0358  0.0440
   41loPI   C2B  654  14.497  11.401   9.938 -0.2146  0.1299 -0.2357
   41loPI   C3B  655  14.461  11.314   9.569 -0.0373 -0.1090  0.2099
   41loPI   C4B  656  14.418  11.238   9.124  0.0013  0.1394 -0.1960
   42loPI    C1  657   3.794   1.913  11.588  0.1655 -0.2973  0.2407
   42loPI    C2  658   4.107   1.793  11.806  0.2315 -0.0926  0.2609
   42loPI    C3  659   3.798   1.975  11.983  0.0778 -0.3364  0.2479
   42loPI   PO4  660   3.809   2.086  11.372 -0.1549 -0.0920  0.3501
   42loPI   GL1  661   3.498   2.063  11.064 -0.2388  0.1585 -0.1136
   42loPI   GL2  662   3.504   2.374  10.915 -0.0286  0.1335 -0.1641
   42loPI   C1A  663   3.312   1.831  10.744  0.2745  0.2738 -0.0444
   42loPI   C2A  664   3.264   1.950  10.267  0.1292  0.3631  0.1904
   42loPI   C3A  665   3.185   1.891   9.817  0.2069  0.2508  0.0281
   42loPI   C4A  666   3.122   1.828   9.403 -0.0806 -0.0176 -0.0011
   42loPI   C5A  667   3.287   1.871   9.050 -0.1676 -0.1666 -0.0589
   42loPI   C6A  668   3.068   1.817   8.682 -0.0752  0.1169  0.0903
   42loPI   C1B  669   3.268   2.412  10.570  0.2142  0.2693 -0.0677
   42loPI   C2B  670   3.345   2.390  10.092 -0.0726 -0.0885 -0.0968
   42loPI   C3B  671   3.346   2.338   9.705  0.0386  0.1756  0.0131
   42loPI   C4B  672   3.329   2.309   9.277  0.3742 -0.0915  0.0963
   43loPI    C1  673  14.797   7.892  11.617 -0.0667  0.1076  0.1243
   43loPI    C2  674  15.119   7.790  11.831 -0.0107 -0.1575 -0.0800
   43loPI    C3  675  14.779   7.892  12.016  0.1665  0.0510  0.1360
   43loPI   PO4  676  14.861   7.907  11.388 -0.1553  0.1240  0.2316
   43loPI   GL1  677  14.852   7.780  10.975 -0.0211 -0.0683  0.0965
   43loPI   GL2  678  15.146   7.808  10.855 -0.0233 -0.0375  0.0089
   43loPI   C1A  679  14.702   7.691  10.585 -0.1908  0.1866  0.0392
   43loPI   C2A  680  14.646   7.681  10.177 -0.0387  0.4084  0.0788
   43loPI   C3A  681  14.706   7.637   9.657 -0.1557 -0.0207  0.1690
   43loPI   C4A  682  14.738   7.597   9.178  0.0091 -0.0064 -0.0615
   43loPI   C5A  683  14.918   8.003   8.915 -0.2677 -0.0051 -0.0643
   43loPI   C6A  684  14.831   8.408   8.638  0.0188  0.0353 -0.2645
   43loPI   C1B  685  15.199   7.747  10.421  0.0363  0.2445 -0.1207
   43loPI   C2B  686  15.181   7.782   9.926  0.0267 -0.1640  0.2478
   43loPI   C3B  687  15.155   7.746   9.406  0.0301  0.1753  0.1086
   43loPI   C4B  688  15.233   7.608   8.996  0.2322 -0.1558 -0.0097
   44loPI    C1  689   2.259  17.397  11.340  0.0068  0.0770 -0.0753
   44loPI    C2  690   2.040  17.110  11.511 -0.0896  0.1677 -0.0454
   44loPI    C3  691   2.263  17.353  11.737 -0.0105  0.1188 -0.0705
   44loPI   PO4  692   2.284  17.291  11.054  0.1025  0.2184  0.1854
   44loPI   GL1  693   2.067  17.376  10.714 -0.1839 -0.0164 -0.1709
   44loPI   GL2  694   2.454  17.340  10.594 -0.1074  0.0244 -0.2621
   44loPI   C1A  695   1.993  17.276  10.328  0.0648 -0.2253 -0.3071
   44loPI   C2A  696   2.005  17.188   9.833 -0.1619  0.1753  0.2489
   44loPI   C3A  697   1.971  17.160   9.346  0.2124  0.2969  0.0227
   44loPI   C4A  698   2.061  17.328   8.951  0.0700  0.0261 -0.1041
   44loPI   C5A  699   2.288  17.508   8.660  0.0226  0.0515  0.2295
   44loPI   C6A  700   2.224  17.726   8.309  0.0171 -0.0033 -0.2281
   44loPI   C1B  701   2.690  17.094  10.247 -0.0532 -0.1815  0.0122
   44loPI   C2B  702   2.759  16.970   9.796 -0.0971  0.0985 -0.0561
   44loPI   C3B  703   2.775  16.918   9.342  0.2536  0.0745 -0.1110
   44loPI   C4B  704   2.816  16.784   8.972  0.0496 -0.0266  0.4129
   45loPI    C1  705  14.878   5.153  11.813 -0.2844 -0.0910  0.1346
   45loPI    C2  706  14.874   5.506  12.001  0.1054 -0.0597  0.0927
   45loPI    C3  707  14.976   5.174  12.200  0.3455 -0.0529 -0.0159
   45loPI   PO4  708  14.924   5.239  11.532  0.0885  0.1268  0.2492
   45loPI   GL1  709  15.196   5.142  11.142 -0.0330  0.0097  0.0446
   45loPI   GL2  710  15.512   5.172  11.211  0.1122  0.0478  0.1367
   45loPI   C1A  711  15.132   5.072  10.693  0.1231  0.3817  0.2917
   45loPI   C2A  712  15.115   4.999  10.285 -0.3841  0.1575 -0.2101
   45loPI   C3A  713  15.124   4.968   9.833 -0.0076  0.2587 -0.0234
   45loPI   C4A  714  15.034   4.965   9.360  0.1767  0.5115  0.0797
   45loPI   C5A  715  15.083   4.701   8.916 -0.4800 -0.1051  0.0216
   45loPI   C6A  716  15.176   4.299   8.699 -0.0516 -0.1055 -0.0573
   45loPI   C1B  717  15.661   5.153  10.752 -0.0381 -0.0751 -0.0834
   45loPI   C2B  718  15.625   5.083  10.361  0.0965 -0.1327  0.0191
   45loPI   C3B  719  15.604   5.072   9.899  0.1622  0.0506  0.1276
   45loPI   C4B  720  15.604   5.069   9.459  0.2730  0.0864 -0.0609
   46loPI    C1  721  11.252  14.432  11.642 -0.3197  0.0231 -0.1588
   46loPI    C2  722  11.402  14.775  11.783  0.3246 -0.2554 -0.1295
   46loPI    C3  723  11.289  14.486  12.036  0.1760 -0.2271 -0.1626
   46loPI   PO4  724  11.188  14.474  11.478 -0.0895  0.0396  0.1448
   46loPI   GL1  725  11.225  14.356  11.085  0.0030 -0.0716 -0.1684
   46loPI   GL2  726  10.912  14.262  10.988  0.0187  0.1535 -0.0373
   46loPI   C1A  727  11.329  14.453  10.625  0.2915  0.0277  0.0453
   46loPI   C2A  728  11.454  14.526  10.189  0.0445 -0.0960 -0.1145
   46loPI   C3A  729  11.331  14.426   9.790  0.1501  0.1674  0.1088
   46loPI   C4A  730  11.311  14.526   9.366  0.0067  0.1314 -0.1048
   46loPI   C5A  731  11.216  14.404   8.984  0.0688  0.2996 -0.5024
   46loPI   C6A  732  10.807  14.426   8.771  0.1370  0.3582  0.2785
   46loPI   C1B  733  10.865  14.242  10.543  0.2501 -0.0420  0.0026
   46loPI   C2B  734  10.931  14.369  10.136 -0.3794  0.3135  0.1982
   46loPI   C3B  735  10.828  14.352   9.707  0.0235  0.0365  0.0983
   46loPI   C4B  736  10.822  14.491   9.323  0.0939  0.0497 -0.0466
   47loPI    C1  737   6.911   7.890  11.798  0.0487 -0.1475  0.0259
   47loPI    C2  738   6.666   8.046  12.073  0.1811  0.1036  0.0043
   47loPI    C3  739   6.935   7.768  12.178  0.1396  0.0996  0.1013
   47loPI   PO4  740   6.779   7.930  11.541  0.0294  0.0123 -0.0393
   47loPI   GL1  741   6.603   7.842  11.117  0.2986  0.0707  0.0587
   47loPI   GL2  742   6.257   8.045  11.169  0.0072  0.1308  0.3020
   47loPI   C1A  743   6.638   7.691  10.729 -0.0000 -0.1006 -0.1353
   47loPI   C2A  744   6.655   7.590  10.235  0.1145  0.0958 -0.2207
   47loPI   C3A  745   6.553   7.588   9.807 -0.3181  0.0187 -0.1739
   47loPI   C4A  746   6.588   7.418   9.402  0.1747 -0.4270  0.0123
   47loPI   C5A  747   6.565   7.417   8.996 -0.1447  0.1431  0.1812
   47loPI   C6A  748   6.599   7.369   8.560 -0.1768 -0.0059  0.1739
   47loPI   C1B  749   6.267   8.034  10.816  0.0828 -0.1638 -0.2383
   47loPI   C2B  750   6.194   8.063  10.314 -0.4214  0.3520 -0.1647
   47loPI   C3B  751   6.237   8.000   9.861  0.1534 -0.1257 -0.0011
   47loPI   C4B  752   6.317   7.847   9.418 -0.1828  0.0604 -0.2156
   48loPI    C1  753  11.064  10.500  11.759  0.0285  0.0504  0.1837
   48loPI    C2  754  10.810  10.283  11.979 -0.1610  0.2495  0.1639
   48loPI    C3  755  10.805  10.682  12.003  0.0229  0.2613  0.0226
   48loPI   PO4  756  11.085  10.493  11.505 -0.2679  0.2048  0.0754
   48loPI   GL1  757  11.059  10.272  11.164  0.0906  0.1806  0.1018
   48loPI   GL2  758  10.880   9.953  11.098 -0.3475 -0.1306  0.1837
   48loPI   C1A  759  11.317  10.310  10.847  0.0492  0.2314 -0.1925
   48loPI   C2A  760  11.321  10.209  10.424 -0.0140  0.3256  0.0514
   48loPI   C3A  761  11.361  10.219   9.929  0.0567  0.0824 -0.1246
   48loPI   C4A  762  11.300  10.325   9.417  0.0377 -0.0450  0.2323
   48loPI   C5A  763  11.290  10.353   9.020  0.0263  0.2483  0.0272
   48loPI   C6A  764  11.541  10.110   8.752  0.1229 -0.3431 -0.1471
   48loPI   C1B  765  10.779  10.148  10.693  0.0810  0.2487  0.1952
   48loPI   C2B  766  10.841  10.145  10.201 -0.1783 -0.0175 -0.0242
   48loPI   C3B  767  10.928  10.080   9.674 -0.0035  0.0725 -0.0361
   48loPI   C4B  768  10.857  10.200   9.229  0.2258 -0.0917  0.3035
   49loPI    C1  769   7.317  11.426  12.175  0.0401  0.1870 -0.1447
   49loPI    C2  770   7.310  11.144  12.459 -0.0541  0.2466 -0.0874
   49loPI    C3  771   7.628  11.384  12.423  0.0481  0.1004 -0.1690
   49loPI   PO4  772   7.230  11.217  11.911 -0.1714 -0.0625 -0.1627
   49loPI   GL1  773   7.093  11.285  11.512 -0.3172  0.0076 -0.0055
   49loPI   GL2  774   6.909  11.594  11.364 -0.0982  0.1739  0.0118
   49loPI   C1A  775   7.207  11.157  11.099 -0.1083  0.0585 -0.3681
   49loPI   C2A  776   7.284  11.002  10.634 -0.0026 -0.1272 -0.2440
   49loPI   C3A  777   7.304  10.966  10.189 -0.2429  0.0867 -0.0001
   49loPI   C4A  778   7.186  10.847   9.808  0.1337 -0.0602 -0.1075
   49loPI   C5A  779   7.152  10.777   9.368 -0.0643 -0.1981  0.0375
   49loPI   C6A  780   7.466  10.686   9.060  0.0388 -0.1441 -0.0812
   49loPI   C1B  781   6.789  11.406  11.088  0.2675  0.2141 -0.0957
   49loPI   C2B  782   6.926  11.351  10.693  0.0509  0.3539  0.1236
   49loPI   C3B  783   6.860  11.307  10.372  0.3313 -0.2799  0.1480
   49loPI   C4B  784   6.945  11.300   9.958  0.0548 -0.1287 -0.3023
   50loPI    C1  785   7.825   7.902  11.891 -0.1437 -0.0859 -0.4468
   50loPI    C2  786   7.429   7.861  11.933 -0.0993 -0.2183 -0.1296
   50loPI    C3  787   7.637   8.077  12.197  0.0612 -0.2729 -0.2097
   50loPI   PO4  788   7.798   8.011  11.556 -0.3711 -0.1121  0.2503
   50loPI   GL1  789   7.814   8.323  11.286  0.0482  0.1900  0.0468
   50loPI   GL2  790   7.936   8.556  11.225 -0.1150 -0.0510 -0.0623
   50loPI   C1A  791   7.801   8.203  10.827  0.0363 -0.0026 -0.0740
   50loPI   C2A  792   7.781   8.223  10.380  0.2740 -0.1617  0.1241
   50loPI   C3A  793   7.747   8.190   9.899 -0.1056 -0.1661  0.0572
   50loPI   C4A  794   7.688   8.194   9.449 -0.2535  0.2799 -0.1624
   50loPI   C5A  795   7.829   7.955   9.121  0.1600  0.1170 -0.0291
   50loPI   C6A  796   7.879   7.586   8.985  0.0004 -0.0882  0.2797
   50loPI   C1B  797   7.909   8.739  10.830 -0.0738 -0.1640 -0.1579
   50loPI   C2B  798   7.941   8.759  10.430  0.2844  0.2449  0.4400
   50loPI   C3B  799   7.915   8.645   9.994 -0.1357 -0.0859 -0.0056
   50loPI   C4B  800   7.926   8.735   9.529 -0.5177  0.3342 -0.1433
   51loPI    C1  801   4.052   7.016  11.591 -0.1295  0.0663 -0.0091
   51loPI    C2  802   4.394   7.163  11.736  0.0111 -0.1268 -0.1394
   51loPI    C3  803   4.195   6.883  11.940 -0.2144  0.1786  0.0691
   51loPI   PO4  804   4.037   6.985  11.369 -0.3148 -0.3319  0.3455
   51loPI   GL1  805   4.147   6.974  10.969 -0.1447 -0.1286  0.0334
   51loPI   GL2  806   3.858   6.803  10.948 -0.0286 -0.0048 -0.2882
   51loPI   C1A  807   3.966   7.128  10.588 -0.2884 -0.1565 -0.1317
   51loPI   C2A  808   3.966   7.209  10.181  0.1337 -0.0788 -0.0402
   51loPI   C3A  809   4.053   7.042   9.801 -0.1380  0.2375  0.3902
   51loPI   C4A  810   4.069   7.024   9.413  0.0756 -0.0993  0.0631
   51loPI   C5A  811   4.263   7.408   9.205 -0.1030 -0.0076 -0.1046
   51loPI   C6A  812   4.355   7.811   9.194  0.1637  0.1609 -0.0183
   51loPI   C1B  813   3.869   6.674  10.477 -0.0498  0.1695 -0.1029
   51loPI   C2B  814   3.828   6.531   9.975  0.0340 -0.3361  0.2282
   51loPI   C3B  815   3.889   6.543   9.506  0.2728  0.0757  0.1497
   51loPI   C4B  816   3.892   6.543   9.035  0.0170 -0.0335 -0.1627
   52loPI    C1  817   7.652   5.839  11.516 -0.2482 -0.2377 -0.1137
   52loPI    C2  818   7.626   6.147  11.262  0.0806 -0.0262  0.1007
   52loPI    C3  819   7.371   6.118  11.570 -0.0218 -0.0306  0.0160
   52loPI   PO4  820   7.665   5.632  11.411 -0.2135 -0.0202  0.1910
   52loPI   GL1  821   7.698   5.224  11.089 -0.0308  0.1025  0.0714
   52loPI   GL2  822   7.288   5.240  10.984 -0.0340  0.2874  0.3107
   52loPI   C1A  823   7.740   5.541  10.790 -0.2411  0.1625 -0.0376
   52loPI   C2A  824   7.697   5.461  10.276  0.0300 -0.1170 -0.0093
   52loPI   C3A  825   7.775   5.522   9.907  0.2023  0.0675  0.1525
   52loPI   C4A  826   7.698   5.462   9.411 -0.1107 -0.0029  0.1049
   52loPI   C5A  827   7.605   5.202   8.977  0.0225 -0.0982  0.0703
   52loPI   C6A  828   7.288   5.206   8.576  0.0062 -0.0413  0.0911
   52loPI   C1B  829   7.242   5.368  10.465 -0.0518 -0.1033 -0.0956
   52loPI   C2B  830   7.268   5.406  10.001 -0.0445 -0.2212  0.1224
   52loPI   C3B  831   7.216   5.407   9.591 -0.1645 -0.0286  0.0806
   52loPI   C4B  832   7.309   5.508   9.142  0.2435  0.1595  0.0442
   53loPI    C1  833  11.068   8.036  11.691  0.0157  0.3314 -0.1824
   53loPI    C2  834  10.850   8.310  11.883 -0.0001  0.0567  0.2023
   53loPI    C3  835  10.787   7.921  11.951  0.1141 -0.0434 -0.2356
   53loPI   PO4  836  11.077   8.104  11.409  0.4172 -0.2020  0.2578
   53loPI   GL1  837  11.414   8.129  11.106  0.0086 -0.4461 -0.1918
   53loPI   GL2  838  11.474   8.556  11.181  0.1003  0.2892  0.1014
   53loPI   C1A  839  11.333   7.985  10.744  0.4130  0.2361  0.1866
   53loPI   C2A  840  11.404   8.049  10.391 -0.1544  0.0004  0.0390
   53loPI   C3A  841  11.370   7.977   9.946  0.1776  0.3007  0.2883
   53loPI   C4A  842  11.495   7.997   9.547 -0.1853  0.0095  0.1343
   53loPI   C5A  843  11.557   7.831   9.055  0.2774  0.1472 -0.2138
   53loPI   C6A  844  11.571   7.665   8.715 -0.0370  0.1728 -0.1985
   53loPI   C1B  845  11.530   8.480  10.763  0.5149  0.4373  0.4439
   53loPI   C2B  846  11.575   8.513  10.345  0.0620 -0.0030 -0.1395
   53loPI   C3B  847  11.685   8.452   9.875 -0.0228  0.0861 -0.0528
   53loPI   C4B  848  11.599   8.434   9.443 -0.0633 -0.4513  0.3471
   54loPI    C1  849  15.462   3.716  11.645  0.0989 -0.4053  0.1828
   54loPI    C2  850  15.645   3.610  11.985  0.2243 -0.0575  0.2276
   54loPI    C3  851  15.598   3.997  11.895 -0.2069 -0.1422  0.0604
   54loPI   PO4  852  15.565   3.553  11.459  0.2149 -0.1750 -0.1251
   54loPI   GL1  853  15.389   3.529  11.084  0.1034 -0.2841 -0.0411
   54loPI   GL2  854  15.496   3.244  10.951 -0.2550  0.1627 -0.0649
   54loPI   C1A  855  15.155   3.689  10.782 -0.0533 -0.1434 -0.0242
   54loPI   C2A  856  15.070   3.701  10.347  0.1488 -0.1127  0.2549
   54loPI   C3A  857  15.075   3.631   9.936  0.1500 -0.0185 -0.2569
   54loPI   C4A  858  15.147   3.613   9.435  0.2252  0.1074  0.2526
   54loPI   C5A  859  15.148   3.819   9.057  0.1345  0.0145 -0.0498
   54loPI   C6A  860  14.773   4.004   8.761 -0.0612  0.3546  0.0922
   54loPI   C1B  861  15.393   3.264  10.493 -0.2892  0.0035 -0.1982
   54loPI   C2B  862  15.430   3.182  10.102  0.1866  0.1194  0.0897
   54loPI   C3B  863  15.527   3.201   9.582 -0.0906 -0.1417  0.1323
   54loPI   C4B  864  15.494   3.406   9.127  0.0250 -0.3581  0.1650
   55loPI    C1  865   0.057  12.052  11.653 -0.0703 -0.1708 -0.1512
   55loPI    C2  866  -0.304  11.958  11.798 -0.0807  0.1766  0.0587
   55loPI    C3  867  -0.132  12.305  11.898  0.2492  0.0806 -0.1582
   55loPI   PO4  868  -0.028  12.050  11.368 -0.3546 -0.2139 -0.1367
   55loPI   GL1  869  -0.147  12.019  10.901 -0.0340  0.0134  0.0655
   55loPI   GL2  870   0.110  11.813  10.870  0.1414 -0.0982  0.1263
   55loPI   C1A  871  -0.287  12.224  10.532  0.2085 -0.1038  0.1221
   55loPI   C2A  872  -0.247  12.354  10.074  0.1331  0.0805 -0.0436
   55loPI   C3A  873  -0.268  12.256   9.723 -0.1836  0.2003 -0.0997
   55loPI   C4A  874  -0.342  12.199   9.306 -0.1956  0.2357 -0.0807
   55loPI   C5A  875  -0.316  12.093   8.852 -0.0285  0.0536  0.2401
   55loPI   C6A  876  -0.419  11.915   8.480  0.0997 -0.2021  0.0618
   55loPI   C1B  877   0.043  11.886  10.451  0.2235 -0.2628  0.0193
   55loPI   C2B  878  -0.021  11.856   9.958  0.0622 -0.0718 -0.0143
   55loPI   C3B  879  -0.004  11.834   9.469 -0.1364 -0.4772  0.0204
   55loPI   C4B  880   0.056  11.840   9.014  0.1251  0.0833  0.1278
   56loPI    C1  881  16.285  14.466  11.706  0.1828  0.0080 -0.0094
   56loPI    C2  882  16.352  14.718  12.010  0.2415 -0.0100 -0.0071
   56loPI    C3  883  16.234  14.343  12.083 -0.2048  0.1226 -0.0208
   56loPI   PO4  884  16.416  14.579  11.546 -0.3324 -0.2757 -0.0208
   56loPI   GL1  885  16.428  14.662  11.148  0.2584  0.0591  0.2816
   56loPI   GL2  886  16.180  14.408  11.095 -0.1139  0.1709  0.1565
   56loPI   C1A  887  16.536  14.580  10.713  0.0384 -0.1290 -0.2935
   56loPI   C2A  888  16.520  14.543  10.261 -0.1348 -0.3521 -0.4354
   56loPI   C3A  889  16.486  14.433   9.864 -0.1058  0.0297 -0.0136
   56loPI   C4A  890  16.462  14.421   9.394  0.0219 -0.0154  0.0071
   56loPI   C5A  891  16.394  14.451   9.009 -0.1973  0.0900  0.1557
   56loPI   C6A  892  16.540  14.446   8.660  0.2220  0.3912  0.2478
   56loPI   C1B  893  16.085  14.335  10.702  0.2072  0.3619  0.0333
   56loPI   C2B  894  16.113  14.363  10.204  0.1837  0.1422 -0.0486
   56loPI   C3B  895  16.018  14.295   9.826  0.3049 -0.0605  0.1347
   56loPI   C4B  896  15.926  14.394   9.375 -0.0491 -0.0478  0.0742
   57loPI    C1  897  10.363   0.631  11.643  0.0917  0.0305  0.0869
   57loPI    C2  898  10.657   0.614  11.914 -0.0341 -0.0440  0.2199
   57loPI    C3  899  10.309   0.788  12.007  0.0768  0.3275 -0.0413
   57loPI   PO4  900  10.319   0.776  11.473 -0.2370 -0.0499 -0.0616
   57loPI   GL1  901  10.195   0.723  11.163  0.2308  0.3018  0.1788
   57loPI   GL2  902  10.342   0.490  11.088  0.1884  0.0989  0.1412
   57loPI   C1A  903   9.913   0.826  10.791 -0.1174 -0.0380 -0.0542
   57loPI   C2A  904   9.804   0.764  10.431 -0.0706  0.3612 -0.0072
   57loPI   C3A  905   9.930   0.830  10.062 -0.1123  0.2059  0.5077
   57loPI   C4A  906   9.815   0.841   9.637 -0.2095  0.0630 -0.0528
   57loPI   C5A  907   9.920   0.850   9.262  0.4146  0.0875  0.0880
   57loPI   C6A  908  10.107   0.863   8.955 -0.2668  0.0998  0.3170
   57loPI   C1B  909  10.323   0.495  10.679 -0.0022  0.0271 -0.3740
   57loPI   C2B  910  10.146   0.369  10.244 -0.2030  0.2443 -0.1555
   57loPI   C3B  911  10.209   0.433   9.733 -0.2036  0.0671  0.2974
   57loPI   C4B  912  10.199   0.389   9.263  0.1074  0.2859  0.1646
   58loPI    C1  913   4.120  11.508  11.814  0.1806  0.1677  0.0496
   58loPI    C2  914   4.133  11.126  11.931 -0.0876  0.1143 -0.0893
   58loPI    C3  915   4.440  11.369  12.011  0.0692 -0.1196  0.0326
   58loPI   PO4  916   4.006  11.467  11.599 -0.0301  0.0355  0.1444
   58loPI   GL1  917   3.857  11.407  11.238 -0.1685  0.2176  0.2050
   58loPI   GL2  918   4.061  11.261  11.106 -0.0217 -0.1752  0.2237
   58loPI   C1A  919   3.665  11.257  10.849  0.1642  0.1931  0.0856
   58loPI   C2A  920   3.615  11.135  10.453  0.3196 -0.2548 -0.0054
   58loPI   C3A  921   3.576  11.256  10.017 -0.1894  0.0836  0.0981
   58loPI   C4A  922   3.619  11.209   9.507  0.1914  0.0212 -0.2552
   58loPI   C5A  923   3.608  11.120   9.075  0.2155 -0.1664  0.2396
   58loPI   C6A  924   3.941  11.096   8.788 -0.1713  0.0154 -0.0886
   58loPI   C1B  925   4.119  11.324  10.563  0.0142  0.0900 -0.2575
   58loPI   C2B  926   4.093  11.319  10.150  0.4498  0.1775  0.1628
   58loPI   C3B  927   4.186  11.190   9.729  0.2862 -0.3140  0.1146
   58loPI   C4B  928   4.161  11.197   9.275  0.2100  0.1238 -0.4464
   59loPI    C1  929   8.652   3.161  11.954 -0.0134  0.1207 -0.1029
   59loPI    C2  930   8.856   2.833  12.057  0.0167  0.0842 -0.2755
   59loPI    C3  931   8.680   3.056  12.339 -0.1370 -0.1660 -0.1696
   59loPI   PO4  932   8.712   3.210  11.664  0.1385  0.0887  0.0726
   59loPI   GL1  933   8.696   3.037  11.204  0.2826  0.0347 -0.1507
   59loPI   GL2  934   8.887   3.233  11.157 -0.0879 -0.0069  0.0913
   59loPI   C1A  935   8.660   2.907  10.827  0.0630  0.1550  0.1290
   59loPI   C2A  936   8.786   2.909  10.416  0.0814 -0.0033  0.3189
   59loPI   C3A  937   8.766   2.962  10.026  0.1324  0.0913  0.0892
   59loPI   C4A  938   8.607   2.898   9.607 -0.2786 -0.4867  0.2919
   59loPI   C5A  939   8.667   2.792   9.218  0.2338 -0.0307  0.0365
   59loPI   C6A  940   8.630   2.628   8.744  0.2915  0.2122 -0.0915
   59loPI   C1B  941   8.833   3.361  10.693 -0.1181  0.1963 -0.0471
   59loPI   C2B  942   8.955   3.377  10.255  0.1148 -0.0236  0.0684
   59loPI   C3B  943   8.895   3.439   9.822 -0.0738  0.3263  0.1971
   59loPI   C4B  944   8.824   3.274   9.384 -0.1382 -0.0227 -0.1358
   60loPI    C1  945   1.979  15.791  11.450 -0.1939 -0.3086 -0.2185
   60loPI    C2  946   2.035  15.421  11.592 -0.0054 -0.2359 -0.0994
   60loPI    C3  947   1.887  15.706  11.830  0.0729 -0.1764 -0.1212
   60loPI   PO4  948   1.851  15.781  11.238  0.2354  0.0734 -0.0482
   60loPI   GL1  949   1.934  15.861  10.825 -0.3414  0.0617 -0.1992
   60loPI   GL2  950   1.928  15.615  10.760  0.1444 -0.3366 -0.0832
   60loPI   C1A  951   1.920  15.978  10.437 -0.2715 -0.0522 -0.0192
   60loPI   C2A  952   1.989  15.950  10.025  0.0082 -0.1979  0.2035
   60loPI   C3A  953   1.960  15.885   9.643 -0.0086 -0.1156 -0.0075
   60loPI   C4A  954   1.941  15.786   9.231 -0.0517  0.1124 -0.1192
   60loPI   C5A  955   1.829  15.828   8.840  0.4708  0.2109  0.1457
   60loPI   C6A  956   2.085  15.877   8.588 -0.1980 -0.2215  0.3163
   60loPI   C1B  957   1.706  15.485  10.361 -0.1073 -0.1117 -0.0103
   60loPI   C2B  958   1.725  15.410   9.886  0.1860  0.2640  0.0370
   60loPI   C3B  959   1.698  15.427   9.385 -0.0335  0.1608 -0.2331
   60loPI   C4B  960   1.827  15.343   8.983 -0.1431  0.3496 -0.0244
   61loPI    C1  961   1.298   1.434  11.335  0.0200 -0.1013 -0.1098
   61loPI    C2  962   1.402   1.563  11.699 -0.0291  0.0939 -0.1634
   61loPI    C3  963   1.112   1.290  11.658  0.1048 -0.0683 -0.0458
   61loPI   PO4  964   1.460   1.547  11.166 -0.1729  0.0815 -0.1003
   61loPI   GL1  965   1.607   1.640  10.777  0.1791  0.1672  0.2471
   61loPI   GL2  966   1.883   1.628  10.914  0.1235  0.0923 -0.1060
   61loPI   C1A  967   1.669   1.633  10.381 -0.0212 -0.1904 -0.1722
   61loPI   C2A  968   1.706   1.614   9.870 -0.2289 -0.0709  0.1594
   61loPI   C3A  969   1.606   1.553   9.488  0.0332  0.2108 -0.0564
   61loPI   C4A  970   1.728   1.317   9.135  0.1928 -0.1592  0.1592
   61loPI   C5A  971   2.045   1.027   8.882  0.2823 -0.0369 -0.0945
   61loPI   C6A  972   2.320   1.141   8.578  0.2286  0.2784 -0.1091
   61loPI   C1B  973   2.102   1.632  10.521  0.1226 -0.4465 -0.0527
   61loPI   C2B  974   2.143   1.749  10.132 -0.2370 -0.3153 -0.1638
   61loPI   C3B  975   2.181   1.722   9.697  0.0498  0.1347 -0.0001
   61loPI   C4B  976   2.079   1.604   9.327 -0.1479  0.1826  0.0079
   62loPI    C1  977   3.904   0.772  11.411  0.2846 -0.0505 -0.1069
   62loPI    C2  978   3.679   0.476  11.559  0.3082  0.0118  0.0565
   62loPI    C3  979   4.009   0.593  11.753  0.1952  0.2734  0.0950
   62loPI   PO4  980   3.839   0.726  11.134  0.2435  0.0663 -0.1486
   62loPI   GL1  981   4.075   0.800  10.759 -0.0967 -0.2316 -0.3990
   62loPI   GL2  982   4.388   0.810  10.711  0.1374 -0.0220 -0.1663
   62loPI   C1A  983   3.975   1.108  10.454 -0.0628 -0.1118 -0.3590
   62loPI   C2A  984   3.932   1.128  10.070  0.2323  0.4240  0.0978
   62loPI   C3A  985   3.780   1.130   9.691 -0.1353 -0.0327 -0.2694
   62loPI   C4A  986   3.848   1.054   9.238  0.0260 -0.0393  0.0115
   62loPI   C5A  987   3.855   0.906   8.877 -0.2049  0.1896  0.1701
   62loPI   C6A  988   4.001   0.527   8.651  0.2828  0.1018  0.2511
   62loPI   C1B  989   4.247   0.644  10.338  0.0319 -0.1010  0.0347
   62loPI   C2B  990   4.213   0.676   9.921  0.5495 -0.1826 -0.0140
   62loPI   C3B  991   4.182   0.744   9.519  0.1293 -0.1882  0.1403
   62loPI   C4B  992   4.184   0.584   9.115 -0.0397  0.0006  0.1228
   63loPI    C1  993  12.129  15.371  11.740 -0.4182 -0.1181  0.0476
   63loPI    C2  994  12.346  15.521  12.041 -0.1797 -0.3253 -0.0177
   63loPI    C3  995  12.060  15.742  11.870  0.0715  0.0041 -0.0210
   63loPI   PO4  996  12.262  15.265  11.445  0.2130 -0.1597 -0.1687
   63loPI   GL1  997  12.133  15.265  11.003 -0.0448 -0.0277  0.0906
   63loPI   GL2  998  12.168  15.481  10.896  0.4135  0.2160  0.0260
   63loPI   C1A  999  12.040  15.012  10.630 -0.1001 -0.0386  0.4470
   63loPI   C2A 1000  12.028  15.032  10.160 -0.0663 -0.2750 -0.1413
   63loPI   C3A 1001  11.993  15.017   9.715  0.3023  0.2915 -0.1926
   63loPI   C4A 1002  12.044  14.998   9.270 -0.0986 -0.1567  0.1010
   63loPI   C5A 1003  12.030  15.124   8.915  0.0388 -0.2508  0.1679
   63loPI   C6A 1004  11.774  14.953   8.555 -0.1210 -0.2794 -0.2850
   63loPI   C1B 1005  12.244  15.534  10.507  0.1811 -0.0086 -0.1974
   63loPI   C2B 1006  12.174  15.556  10.171  0.1647 -0.0413 -0.0604
   63loPI   C3B 1007  12.167  15.464   9.737 -0.1835  0.1918  0.1655
   63loPI   C4B 1008  12.220  15.467   9.307  0.0793  0.1436 -0.0576
   64loPI    C1 1009   5.690   5.835  11.656 -0.1236 -0.2534 -0.2132
   64loPI    C2 1010   5.502   6.165  11.781 -0.1220 -0.1895 -0.3777
   64loPI    C3 1011   5.665   5.915  12.047 -0.0695 -0.0265 -0.2550
   64loPI   PO4 1012   5.848   5.954  11.465 -0.0588 -0.2668 -0.0505
   64loPI   GL1 1013   5.735   6.133  11.071  0.0696  0.2495  0.3155
   64loPI   GL2 1014   6.077   6.069  10.972  0.1476 -0.0424 -0.1611
   64loPI   C1A 1015   5.570   6.008  10.690  0.1294  0.3556  0.2856
   64loPI   C2A 1016   5.539   5.965  10.236  0.0867  0.1791 -0.2344
   64loPI   C3A 1017   5.583   5.982   9.776  0.0671 -0.1307 -0.0714
   64loPI   C4A 1018   5.572   5.888   9.364  0.0362  0.2741 -0.1597
   64loPI   C5A 1019   5.525   5.807   8.935  0.2504  0.1916 -0.1705
   64loPI   C6A 1020   5.297   6.031   8.611 -0.0630  0.3294 -0.0732
   64loPI   C1B 1021   6.067   6.091  10.494  0.1078  0.1896 -0.1208
   64loPI   C2B 1022   6.058   6.046  10.011 -0.2358  0.0686 -0.0412
   64loPI   C3B 1023   6.065   6.011   9.633  0.0779  0.0510  0.0648
   64loPI   C4B 1024   6.054   5.998   9.178 -0.1478 -0.0787  0.3147
   65loPI    C1 1025   9.063   5.954  11.526 -0.1409 -0.1412  0.0090
   65loPI    C2 1026   8.935   6.313  11.646  0.0691 -0.1196  0.1741
   65loPI    C3 1027   8.910   5.999  11.893  0.1367 -0.1603  0.1293
   65loPI   PO4 1028   8.951   5.985  11.271  0.0046  0.1969 -0.1499
   65loPI   GL1 1029   9.014   5.989  10.934  0.1039 -0.0920  0.1092
   65loPI   GL2 1030   9.179   5.673  10.881 -0.3468 -0.0852 -0.0525
   65loPI   C1A 1031   8.985   6.169  10.560  0.3526  0.3555  0.3839
   65loPI   C2A 1032   9.014   6.201  10.105  0.2833 -0.2473  0.0795
   65loPI   C3A 1033   8.985   6.144   9.709 -0.0651  0.0979 -0.1035
   65loPI   C4A 1034   8.896   6.187   9.201  0.1108 -0.0801  0.0982
   65loPI   C5A 1035   8.868   5.983   8.852 -0.1976 -0.3309  0.0979
   65loPI   C6A 1036   9.022   5.581   8.830 -0.0929 -0.0915 -0.0398
   65loPI   C1B 1037   9.241   5.754  10.528 -0.2776  0.0139 -0.1901
   65loPI   C2B 1038   9.361   5.783  10.074 -0.0569  0.1504 -0.7596
   65loPI   C3B 1039   9.214   5.718   9.655 -0.0703 -0.3460 -0.1270
   65loPI   C4B 1040   9.225   5.815   9.275 -0.0062 -0.1336 -0.1883
   66loPI    C1 1041   7.548   6.646  11.889 -0.1505  0.2019 -0.1029
   66loPI    C2 1042   7.584   6.275  12.035  0.2474  0.2697 -0.0179
   66loPI    C3 1043   7.301   6.520  12.177  0.0287  0.0245 -0.0246
   66loPI   PO4 1044   7.713   6.559  11.633 -0.1183 -0.0689  0.0315
   66loPI   GL1 1045   7.745   6.741  11.196  0.0801  0.3600  0.1486
   66loPI   GL2 1046   7.698   6.944  11.090  0.0588 -0.2961  0.0109
   66loPI   C1A 1047   7.618   6.451  10.884 -0.0091  0.1145  0.4124
   66loPI   C2A 1048   7.640   6.428  10.416  0.1161 -0.0758  0.0397
   66loPI   C3A 1049   7.667   6.338  10.008 -0.1777 -0.0915 -0.0654
   66loPI   C4A 1050   7.556   6.336   9.567 -0.0388  0.3024 -0.1145
   66loPI   C5A 1051   7.528   6.164   9.063  0.1716 -0.2122  0.0526
   66loPI   C6A 1052   7.215   6.081   8.795 -0.2089  0.0689 -0.0923
   66loPI   C1B 1053   7.816   6.894  10.629 -0.0765  0.0778  0.0212
   66loPI   C2B 1054   7.876   6.798  10.161  0.1585 -0.0910  0.1504
   66loPI   C3B 1055   7.765   6.771   9.622  0.2750  0.0740 -0.2900
   66loPI   C4B 1056   7.654   6.671   9.188  0.0370 -0.2243  0.0814
   67loPI    C1 1057   5.602  16.853  11.358 -0.0748  0.1167 -0.0809
   67loPI    C2 1058   5.720  16.899  11.737 -0.0402  0.2164 -0.1034
   67loPI    C3 1059   5.605  16.539  11.606  0.1312  0.1415 -0.0504
   67loPI   PO4 1060   5.446  17.094  11.263 -0.0645 -0.0027  0.2078
   67loPI   GL1 1061   5.170  17.173  10.907  0.3257  0.2259 -0.0226
   67loPI   GL2 1062   4.946  17.498  10.831 -0.3808  0.2312  0.0759
   67loPI   C1A 1063   5.200  17.006  10.461  0.4409  0.2599  0.0613
   67loPI   C2A 1064   5.216  16.915  10.028  0.1354  0.1017  0.1176
   67loPI   C3A 1065   5.173  16.845   9.575 -0.2296  0.2987  0.1396
   67loPI   C4A 1066   5.213  16.988   9.137  0.4168 -0.2124  0.0426
   67loPI   C5A 1067   4.977  17.005   8.697  0.0142  0.0511  0.2046
   67loPI   C6A 1068   4.915  17.049   8.212  0.2628 -0.1834 -0.0386
   67loPI   C1B 1069   4.898  17.344  10.382 -0.1268 -0.1710 -0.2439
   67loPI   C2B 1070   4.876  17.347   9.915 -0.1372 -0.4253  0.0026
   67loPI   C3B 1071   4.912  17.252   9.433 -0.0779  0.0163  0.0231
   67loPI   C4B 1072   4.911  17.342   9.042 -0.2240 -0.0596  0.1694
   68loPI    C1 1073   6.425   5.648  11.629  0.0980  0.1013  0.1310
   68loPI    C2 1074   6.628   5.859  11.901  0.0320  0.3183  0.0146
   68loPI    C3 1075   6.228   5.862  11.904  0.0307  0.1890  0.0154
   68loPI   PO4 1076   6.535   5.715  11.390 -0.2010  0.1426 -0.0858
   68loPI   GL1 1077   6.394   5.597  10.989 -0.0610  0.0699  0.2170
   68loPI   GL2 1078   6.648   5.349  10.851  0.3903 -0.2044 -0.1057
   68loPI   C1A 1079   6.393   5.642  10.468  0.0060  0.2056  0.0762
   68loPI   C2A 1080   6.456   5.688   9.992 -0.3800 -0.2438 -0.2183
   68loPI   C3A 1081   6.386   5.659   9.619 -0.3887  0.1702 -0.1108
   68loPI   C4A 1082   6.414   5.652   9.177  0.2706  0.1240 -0.0035
   68loPI   C5A 1083   6.437   5.755   8.757 -0.2152 -0.2123  0.1969
   68loPI   C6A 1084   6.462   5.959   8.375  0.2842  0.2589 -0.0595
   68loPI   C1B 1085   6.738   5.286  10.436 -0.0675  0.1008 -0.0916
   68loPI   C2B 1086   6.747   5.295   9.989 -0.3120 -0.0401 -0.0601
   68loPI   C3B 1087   6.743   5.257   9.548  0.0157 -0.0240 -0.1510
   68loPI   C4B 1088   6.889   5.240   9.126  0.0987  0.2575  0.0908
   69loPI    C1 1089   7.278   8.810  11.977 -0.2901 -0.1382  0.2053
   69loPI    C2 1090   7.549   8.631  12.211  0.0074  0.0406  0.0052
   69loPI    C3 1091   7.517   9.029  12.210 -0.0927  0.0333 -0.1505
   69loPI   PO4 1092   7.314   8.737  11.751  0.3484  0.3259 -0.3659
   69loPI   GL1 1093   7.415   8.765  11.278 -0.2435 -0.1109  0.1898
   69loPI   GL2 1094   7.039   8.768  11.257 -0.3174  0.0971 -0.0855
   69loPI   C1A 1095   7.412   8.624  10.979 -0.0610  0.1376 -0.0624
   69loPI   C2A 1096   7.519   8.618  10.598 -0.0666 -0.4668  0.0095
   69loPI   C3A 1097   7.471   8.651  10.204 -0.2387  0.0691 -0.2131
   69loPI   C4A 1098   7.469   8.614   9.755 -0.0002  0.1646 -0.1964
   69loPI   C5A 1099   7.438   8.667   9.334 -0.3068 -0.0644  0.1580
   69loPI   C6A 1100   7.557   8.397   8.961 -0.0631 -0.0257 -0.1942
   69loPI   C1B 1101   6.913   8.643  10.817  0.0128 -0.3857  0.1366
   69loPI   C2B 1102   7.066   8.459  10.404 -0.0042  0.0132 -0.1419
   69loPI   C3B 1103   6.996   8.461   9.980  0.3438  0.1951 -0.0252
   69loPI   C4B 1104   6.984   8.392   9.540  0.0101 -0.0599  0.0975
   70loPI    C1 1105  15.935   5.213  11.971  0.1526  0.0517 -0.1030
   70loPI    C2 1106  15.871   5.010  12.310 -0.0485  0.2006 -0.0492
   70loPI    C3 1107  16.086   5.347  12.316  0.2843 -0.0046 -0.1382
   70loPI   PO4 1108  15.811   5.003  11.794  0.1890  0.0972 -0.1303
   70loPI   GL1 1109  15.924   4.925  11.379 -0.0548 -0.1403 -0.2648
   70loPI   GL2 1110  15.858   4.646  11.407 -0.0209  0.1221  0.1459
   70loPI   C1A 1111  15.974   4.788  10.938  0.0314  0.0911 -0.2021
   70loPI   C2A 1112  15.993   4.743  10.570  0.0520 -0.1226 -0.1410
   70loPI   C3A 1113  15.921   4.705  10.125  0.2135 -0.0066  0.1128
   70loPI   C4A 1114  15.921   4.662   9.667  0.0222  0.0676 -0.2745
   70loPI   C5A 1115  15.999   4.694   9.250  0.3307 -0.2136  0.1539
   70loPI   C6A 1116  16.001   4.613   8.883 -0.3007 -0.0922 -0.1598
   70loPI   C1B 1117  15.522   4.700  11.101 -0.0392  0.4723  0.1054
   70loPI   C2B 1118  15.463   4.654  10.621 -0.0104  0.0967  0.0565
   70loPI   C3B 1119  15.452   4.593  10.207 -0.0737 -0.4221  0.0973
   70loPI   C4B 1120  15.425   4.580   9.746  0.0600  0.0722 -0.0854
   71loPI    C1 1121  11.518   0.699  11.688  0.0852  0.0982 -0.0689
   71loPI    C2 1122  11.124   0.651  11.643  0.1013 -0.1202  0.0081
   71loPI    C3 1123  11.296   0.571  11.995  0.2563 -0.3121 -0.1096
   71loPI   PO4 1124  11.614   0.620  11.448 -0.2634  0.1196 -0.0303
   71loPI   GL1 1125  11.631   0.548  11.131 -0.0275  0.0187  0.3922
   71loPI   GL2 1126  11.505   0.176  10.913  0.0536  0.2608 -0.2476
   71loPI   C1A 1127  11.841   0.663  10.772 -0.2710  0.2287 -0.0391
   71loPI   C2A 1128  11.801   0.725  10.372 -0.3616 -0.0730  0.0327
   71loPI   C3A 1129  11.746   0.647   9.876 -0.1095 -0.1536  0.1684
   71loPI   C4A 1130  11.788   0.644   9.442 -0.2328 -0.0771  0.0677
   71loPI   C5A 1131  11.697   0.728   8.979 -0.3865  0.3577  0.2231
   71loPI   C6A 1132  11.389   0.887   8.733 -0.0459 -0.0217 -0.4103
   71loPI   C1B 1133  11.679   0.259  10.507  0.3452 -0.3900  0.0126
   71loPI   C2B 1134  11.565   0.207  10.043 -0.0410  0.0269  0.3213
   71loPI   C3B 1135  11.604   0.183   9.631 -0.1654  0.2068  0.0439
   71loPI   C4B 1136  11.514   0.214   9.220 -0.0916 -0.0033 -0.0044
   72loPI    C1 1137   6.622  13.560  11.731 -0.4032 -0.0352 -0.0125
   72loPI    C2 1138   6.633  13.337  12.063 -0.2354  0.0213  0.0208
   72loPI    C3 1139   6.939  13.579  11.974 -0.2891  0.0232 -0.1641
   72loPI   PO4 1140   6.545  13.294  11.510 -0.0133 -0.1308  0.0550
   72loPI   GL1 1141   6.554  13.212  11.074  0.0147 -0.1908 -0.0813
   72loPI   GL2 1142   6.408  13.433  11.015  0.0105 -0.1596  0.0217
   72loPI   C1A 1143   6.714  13.085  10.680 -0.1002  0.0578 -0.0165
   72loPI   C2A 1144   6.707  13.085  10.305  0.1096 -0.0391  0.0264
   72loPI   C3A 1145   6.631  13.080   9.924  0.1527  0.2012 -0.2859
   72loPI   C4A 1146   6.698  13.018   9.496  0.4175  0.0079 -0.0465
   72loPI   C5A 1147   6.532  12.957   9.061  0.3611  0.2293 -0.5845
   72loPI   C6A 1148   6.399  13.009   8.667  0.1398  0.0511 -0.1561
   72loPI   C1B 1149   6.366  13.492  10.576 -0.0442  0.0013 -0.2611
   72loPI   C2B 1150   6.325  13.466  10.159  0.0293 -0.0922 -0.0257
   72loPI   C3B 1151   6.272  13.311   9.704  0.1883  0.3173  0.0786
   72loPI   C4B 1152   6.389  13.362   9.253 -0.0073 -0.4504  0.0569
   73loPI    C1 1153   1.556   2.838  11.660  0.2691  0.2082 -0.1985
   73loPI    C2 1154   1.317   2.965  11.366  0.2349  0.1235 -0.2077
   73loPI    C3 1155   1.243   3.073  11.744  0.2060  0.1306 -0.2153
   73loPI   PO4 1156   1.797   2.872  11.519  0.1929 -0.1263  0.2095
   73loPI   GL1 1157   1.728   2.946  11.069  0.0652  0.0575 -0.2260
   73loPI   GL2 1158   1.667   2.632  11.024 -0.1407  0.3289 -0.0125
   73loPI   C1A 1159   1.688   3.032  10.671  0.0697 -0.0789 -0.0534
   73loPI   C2A 1160   1.637   2.952  10.184 -0.2967 -0.1155  0.0691
   73loPI   C3A 1161   1.678   2.973   9.781  0.0353 -0.0300  0.4102
   73loPI   C4A 1162   1.690   2.856   9.425  0.4042 -0.2513 -0.1883
   73loPI   C5A 1163   1.644   2.883   9.002  0.0183  0.0559  0.0365
   73loPI   C6A 1164   1.625   2.864   8.603  0.0924 -0.0583  0.0422
   73loPI   C1B 1165   1.489   2.506  10.652 -0.3822  0.3854  0.0579
   73loPI   C2B 1166   1.464   2.467  10.169 -0.0755 -0.2405  0.0268
   73loPI   C3B 1167   1.486   2.440   9.752 -0.1604  0.5289 -0.0035
   73loPI   C4B 1168   1.398   2.426   9.268 -0.3067  0.0063 -0.0960
   74loPI    C1 1169   8.412  14.614  11.693 -0.0852 -0.0774  0.0113
   74loPI    C2 1170   8.792  14.551  11.802 -0.0937  0.0618  0.1249
   74loPI    C3 1171   8.517  14.642  12.078 -0.1836  0.0894  0.0268
   74loPI   PO4 1172   8.308  14.798  11.425  0.0798  0.1622 -0.0332
   74loPI   GL1 1173   8.356  14.932  11.083 -0.0920 -0.0578 -0.1792
   74loPI   GL2 1174   8.676  14.961  10.875 -0.1047 -0.2127 -0.0191
   74loPI   C1A 1175   8.208  14.848  10.687 -0.0791  0.4105  0.1314
   74loPI   C2A 1176   8.188  14.800  10.214 -0.0282  0.0263 -0.1121
   74loPI   C3A 1177   8.154  14.630   9.755 -0.0631 -0.0614 -0.1105
   74loPI   C4A 1178   8.210  14.671   9.355 -0.0762 -0.0970  0.1837
   74loPI   C5A 1179   8.283  14.592   8.924  0.1457 -0.0553 -0.1109
   74loPI   C6A 1180   8.451  14.442   8.630  0.1649 -0.1024 -0.0955
   74loPI   C1B 1181   8.657  14.869  10.494 -0.2385  0.1848 -0.1456
   74loPI   C2B 1182   8.690  14.818  10.043 -0.1923  0.0123 -0.0555
   74loPI   C3B 1183   8.617  14.768   9.653 -0.2513 -0.0112  0.1359
   74loPI   C4B 1184   8.656  14.740   9.254  0.2446  0.0850 -0.0036
   75loPI    C1 1185  17.322   2.196  11.636 -0.2248 -0.0667 -0.0497
   75loPI    C2 1186  17.570   2.375  11.894 -0.0578 -0.0135 -0.2444
   75loPI    C3 1187  17.339   2.073  12.016 -0.0609  0.0823 -0.0069
   75loPI   PO4 1188  17.434   2.182  11.456  0.4214  0.0565  0.3968
   75loPI   GL1 1189  17.547   2.407  11.112  0.1536  0.0370 -0.0883
   75loPI   GL2 1190  17.817   2.359  11.053 -0.1839  0.1148  0.0332
   75loPI   C1A 1191  17.477   2.239  10.692 -0.3972 -0.0298 -0.0292
   75loPI   C2A 1192  17.471   2.236  10.264  0.1351 -0.3364  0.3312
   75loPI   C3A 1193  17.518   2.234   9.858 -0.1819  0.0207 -0.0220
   75loPI   C4A 1194  17.470   2.140   9.445  0.3738 -0.2238  0.0663
   75loPI   C5A 1195  17.423   2.266   9.059  0.2877 -0.1301 -0.0565
   75loPI   C6A 1196  17.389   2.249   8.695 -0.3678  0.0934 -0.1068
   75loPI   C1B 1197  17.946   2.371  10.584 -0.0405  0.0375  0.0019
   75loPI   C2B 1198  17.976   2.254  10.086  0.0698  0.0557 -0.1108
   75loPI   C3B 1199  17.973   2.230   9.669 -0.1621 -0.0194  0.3765
   75loPI   C4B 1200  17.942   2.270   9.266  0.3497 -0.1136  0.2329
   76loPI    C1 1201   7.873  11.980  11.801 -0.3400  0.1006 -0.2221
   76loPI    C2 1202   7.673  11.859  12.125  0.1015 -0.2199 -0.0593
   76loPI    C3 1203   7.990  12.101  12.164  0.0509 -0.1176 -0.2695
   76loPI   PO4 1204   7.679  11.844  11.584 -0.2009  0.0041  0.1444
   76loPI   GL1 1205   7.775  11.933  11.233 -0.0695 -0.0985 -0.0770
   76loPI   GL2 1206   7.705  12.065  11.003  0.0174  0.1078  0.1615
   76loPI   C1A 1207   7.949  11.619  10.957 -0.0093  0.2503  0.2353
   76loPI   C2A 1208   8.075  11.557  10.465 -0.1273  0.0310  0.3788
   76loPI   C3A 1209   7.898  11.517   9.967  0.0821  0.2658  0.0040
   76loPI   C4A 1210   7.746  11.455   9.560 -0.3570 -0.1633  0.3972
   76loPI   C5A 1211   7.994  11.242   9.233 -0.1074  0.0862  0.1623
   76loPI   C6A 1212   8.216  11.293   8.832 -0.0314  0.1216 -0.1897
   76loPI   C1B 1213   7.734  11.930  10.593 -0.4104  0.0097 -0.0127
   76loPI   C2B 1214   7.658  11.951  10.156  0.1652  0.1483  0.1739
   76loPI   C3B 1215   7.608  11.927   9.760  0.0714 -0.0721 -0.2943
   76loPI   C4B 1216   7.488  11.801   9.289  0.3621  0.2743 -0.0900
   77loPI    C1 1217  17.276  14.308  11.709  0.1163 -0.0505  0.1482
   77loPI    C2 1218  17.300  14.706  11.735 -0.1736 -0.0121 -0.1013
   77loPI    C3 1219  17.233  14.487  12.064  0.1104  0.1319  0.0563
   77loPI   PO4 1220  17.058  14.263  11.493  0.1634 -0.2646 -0.0676
   77loPI   GL1 1221  16.983  14.235  11.029 -0.1752  0.1137  0.0682
   77loPI   GL2 1222  17.319  14.310  10.787  0.1954 -0.1143 -0.1192
   77loPI   C1A 1223  16.848  14.143  10.594 -0.0730  0.0835  0.0061
   77loPI   C2A 1224  16.824  14.064  10.182  0.0724  0.3782 -0.0168
   77loPI   C3A 1225  16.850  14.107   9.663  0.3135  0.1157 -0.2936
   77loPI   C4A 1226  16.846  14.098   9.242  0.0259  0.1608 -0.2372
   77loPI   C5A 1227  16.768  14.021   8.802 -0.0352 -0.0086 -0.0232
   77loPI   C6A 1228  16.805  13.758   8.362 -0.0021  0.0996  0.2514
   77loPI   C1B 1229  17.276  14.253  10.364 -0.3186 -0.3094 -0.0482
   77loPI   C2B 1230  17.296  14.170   9.865 -0.1644 -0.1047 -0.0953
   77loPI   C3B 1231  17.366  14.142   9.433 -0.1923  0.2866  0.1067
   77loPI   C4B 1232  17.269  14.146   8.997 -0.2197  0.1185  0.1161
   78loPI    C1 1233  11.674  15.912  11.579  0.0056 -0.0951  0.2201
   78loPI    C2 1234  11.360  15.987  11.815  0.0547  0.1659  0.2056
   78loPI    C3 1235  11.574  15.653  11.866 -0.2149 -0.0062  0.2252
   78loPI   PO4 1236  11.619  16.002  11.359 -0.1057 -0.0144 -0.1479
   78loPI   GL1 1237  11.938  16.345  11.077 -0.0854 -0.0328  0.0860
   78loPI   GL2 1238  12.248  16.151  11.100 -0.0062 -0.1670 -0.0906
   78loPI   C1A 1239  12.082  16.382  10.641  0.0284 -0.0903 -0.0188
   78loPI   C2A 1240  12.083  16.410  10.230 -0.0656 -0.1353 -0.2093
   78loPI   C3A 1241  12.120  16.369   9.763  0.0053 -0.4564 -0.0301
   78loPI   C4A 1242  12.037  16.313   9.255  0.0716  0.3139 -0.0622
   78loPI   C5A 1243  11.816  16.542   9.001  0.1063 -0.2417  0.2770
   78loPI   C6A 1244  11.506  16.911   8.824 -0.1258  0.1746 -0.0462
   78loPI   C1B 1245  12.342  15.934  10.729  0.0162  0.1796 -0.1112
   78loPI   C2B 1246  12.377  16.019  10.342 -0.1284  0.1574 -0.1208
   78loPI   C3B 1247  12.420  15.960   9.936 -0.0293  0.0683  0.0483
   78loPI   C4B 1248  12.273  15.913   9.441  0.2172 -0.0122  0.2773
   79loPI    C1 1249   7.093   0.849  11.512 -0.1937  0.2796  0.0405
   79loPI    C2 1250   7.223   0.773  11.883  0.0433 -0.3178 -0.1535
   79loPI    C3 1251   6.841   0.702  11.786 -0.0920  0.1095  0.0441
   79loPI   PO4 1252   7.176   0.989  11.399  0.3269 -0.2273  0.0346
   79loPI   GL1 1253   7.468   1.060  11.050  0.1761  0.2056  0.2960
   79loPI   GL2 1254   7.618   0.834  10.988 -0.0167 -0.0635  0.0576
   79loPI   C1A 1255   7.197   1.218  10.566 -0.2024 -0.1057 -0.2106
   79loPI   C2A 1256   7.225   1.140  10.199  0.0853  0.0926  0.2213
   79loPI   C3A 1257   7.225   1.118   9.790 -0.1396 -0.1133 -0.0535
   79loPI   C4A 1258   7.209   1.077   9.384 -0.0454 -0.1846  0.1785
   79loPI   C5A 1259   7.188   1.084   8.899  0.1995  0.1327  0.1185
   79loPI   C6A 1260   7.252   1.127   8.490 -0.1978  0.0279 -0.1649
   79loPI   C1B 1261   7.557   0.887  10.581 -0.2511  0.0836 -0.0057
   79loPI   C2B 1262   7.569   0.801  10.070 -0.1505  0.1350  0.4098
   79loPI   C3B 1263   7.536   0.763   9.629 -0.0969  0.0358 -0.0412
   79loPI   C4B 1264   7.574   0.897   9.217 -0.0475  0.0041  0.1351
   80loPI    C1 1265  14.447   9.674  11.837 -0.1136  0.0552 -0.1024
   80loPI    C2 1266  14.487   9.292  11.948 -0.0292  0.1284  0.1248
   80loPI    C3 1267  14.261   9.541  12.165 -0.0797  0.2094 -0.0196
   80loPI   PO4 1268  14.535   9.664  11.550  0.0019  0.2025 -0.0462
   80loPI   GL1 1269  14.510   9.590  11.084  0.1244  0.0923  0.0403
   80loPI   GL2 1270  14.672   9.807  11.044 -0.1175 -0.1386 -0.2090
   80loPI   C1A 1271  14.318   9.588  10.618  0.0005  0.0766  0.0975
   80loPI   C2A 1272  14.275   9.602  10.204  0.3789  0.0998 -0.2071
   80loPI   C3A 1273  14.291   9.453   9.755 -0.0367 -0.0282  0.0313
   80loPI   C4A 1274  14.305   9.366   9.350  0.0644  0.1761  0.3290
   80loPI   C5A 1275  14.206   9.660   9.031  0.0491 -0.0676 -0.0379
   80loPI   C6A 1276  14.219   9.671   8.593 -0.1887  0.2567  0.0180
   80loPI   C1B 1277  14.651  10.015  10.680  0.1779 -0.0909 -0.2065
   80loPI   C2B 1278  14.557  10.001  10.312 -0.2578 -0.3986 -0.2403
   80loPI   C3B 1279  14.538  10.000   9.896  0.0514  0.0268  0.1640
   80loPI   C4B 1280  14.458   9.872   9.514 -0.0383  0.0983 -0.1123
   81loPI    C1 1281   2.010   7.773  11.982  0.2819 -0.2382  0.1771
   81loPI    C2 1282   1.695   7.924  12.177  0.3240  0.1449 -0.0403
   81loPI    C3 1283   2.062   7.953  12.335  0.2944 -0.0053  0.0585
   81loPI   PO4 1284   1.901   7.884  11.698  0.0215 -0.1972  0.2953
   81loPI   GL1 1285   1.791   7.707  11.359  0.0600 -0.3111  0.0108
   81loPI   GL2 1286   1.969   7.589  11.167 -0.3341 -0.0397  0.1258
   81loPI   C1A 1287   1.685   7.957  10.923  0.1912 -0.1264 -0.0106
   81loPI   C2A 1288   1.601   8.004  10.595  0.0489  0.2016 -0.0379
   81loPI   C3A 1289   1.637   8.093  10.135  0.0430 -0.1927  0.0123
   81loPI   C4A 1290   1.541   8.037   9.732  0.2180 -0.1022 -0.2246
   81loPI   C5A 1291   1.433   8.104   9.323  0.1088 -0.0662  0.1446
   81loPI   C6A 1292   1.369   7.894   8.901  0.1610 -0.1071 -0.0637
   81loPI   C1B 1293   2.000   7.615  10.723  0.2915 -0.0418 -0.0078
   81loPI   C2B 1294   1.908   7.716  10.344 -0.1124  0.0623  0.2831
   81loPI   C3B 1295   1.886   7.698   9.923 -0.0999 -0.2308 -0.3258
   81loPI   C4B 1296   1.811   7.587   9.465  0.1629  0.0726 -0.3139
   82loPI    C1 1297   1.427   3.771  11.604  0.0110 -0.0745 -0.0983
   82loPI    C2 1298   1.695   3.811  11.899  0.0020  0.2025 -0.1251
   82loPI    C3 1299   1.401   3.542  11.932  0.1602  0.0415 -0.0036
   82loPI   PO4 1300   1.505   3.814  11.368  0.2245  0.4084 -0.2699
   82loPI   GL1 1301   1.598   3.655  10.996  0.2083 -0.0783 -0.0458
   82loPI   GL2 1302   1.799   3.482  10.841 -0.2055  0.0453 -0.1175
   82loPI   C1A 1303   1.525   3.816  10.560 -0.1175 -0.0822 -0.0419
   82loPI   C2A 1304   1.491   3.782  10.232 -0.2231 -0.2326 -0.3673
   82loPI   C3A 1305   1.427   3.819   9.752 -0.2383  0.1389  0.2164
   82loPI   C4A 1306   1.487   3.717   9.328  0.1116 -0.0212 -0.2093
   82loPI   C5A 1307   1.552   3.982   8.927 -0.2211  0.2746 -0.1437
   82loPI   C6A 1308   1.378   4.187   8.623 -0.2254 -0.2617  0.0712
   82loPI   C1B 1309   1.820   3.424  10.357  0.2166 -0.0615 -0.0780
   82loPI   C2B 1310   1.772   3.435   9.970 -0.0866  0.1150  0.1847
   82loPI   C3B 1311   1.775   3.416   9.599  0.0077  0.0291 -0.0338
   82loPI   C4B 1312   1.812   3.339   9.262 -0.1341 -0.0065 -0.0593
   83loPI    C1 1313   9.928  16.192  11.691  0.1835  0.0317 -0.1059
   83loPI    C2 1314   9.817  16.491  11.931  0.0235 -0.0808 -0.0377
   83loPI    C3 1315  10.203  16.390  11.903  0.0613  0.0356  0.0505
   83loPI   PO4 1316   9.817  16.184  11.490  0.1104  0.3770  0.1480
   83loPI   GL1 1317   9.581  16.408  11.186 -0.1698  0.1514  0.1820
   83loPI   GL2 1318   9.286  16.488  11.037  0.0816  0.2450  0.0659
   83loPI   C1A 1319   9.720  16.805  10.971 -0.4990  0.0039  0.1133
   83loPI   C2A 1320   9.800  16.941  10.638 -0.0870  0.1472  0.1316
   83loPI   C3A 1321   9.821  16.998  10.169  0.2954 -0.2496 -0.0671
   83loPI   C4A 1322   9.853  17.000   9.773  0.0422 -0.3605  0.0269
   83loPI   C5A 1323   9.736  17.028   9.356  0.0802 -0.0161 -0.0734
   83loPI   C6A 1324   9.436  17.269   9.216  0.0958  0.1547 -0.1262
   83loPI   C1B 1325   9.163  16.277  10.602 -0.2074  0.0970 -0.0495
   83loPI   C2B 1326   9.147  16.288  10.272 -0.1631  0.1235  0.1998
   83loPI   C3B 1327   9.155  16.289   9.732 -0.0096 -0.0740 -0.0364
   83loPI   C4B 1328   9.219  16.353   9.277 -0.0975 -0.1737  0.1886
   84loPI    C1 1329   3.790  13.187  11.593  0.1660  0.1435  0.1118
   84loPI    C2 1330   3.602  13.322  11.919  0.1568  0.0159  0.1598
   84loPI    C3 1331   3.992  13.394  11.870  0.1542  0.0511  0.1899
   84loPI   PO4 1332   3.702  13.233  11.331 -0.2060 -0.3807  0.3838
   84loPI   GL1 1333   3.873  13.240  10.956 -0.1751 -0.1956 -0.1019
   84loPI   GL2 1334   4.081  13.004  11.072 -0.0370  0.0621 -0.0512
   84loPI   C1A 1335   3.792  13.128  10.559  0.0267 -0.1505 -0.1627
   84loPI   C2A 1336   3.752  13.064  10.132 -0.0790  0.0422  0.1604
   84loPI   C3A 1337   3.817  12.966   9.704 -0.0135 -0.2090 -0.1733
   84loPI   C4A 1338   3.713  13.029   9.283 -0.1778  0.1607  0.2723
   84loPI   C5A 1339   3.709  12.916   8.849 -0.0080  0.1001  0.1247
   84loPI   C6A 1340   3.978  12.961   8.471  0.0105  0.3653 -0.3063
   84loPI   C1B 1341   4.054  12.753  10.708  0.1168  0.1208 -0.2110
   84loPI   C2B 1342   4.083  12.612  10.261  0.0952  0.0494 -0.0179
   84loPI   C3B 1343   4.141  12.598   9.819 -0.1151 -0.1818 -0.0650
   84loPI   C4B 1344   4.074  12.589   9.355  0.0867 -0.0122  0.3788
   85loPI    C1 1345   3.228  16.038  11.176 -0.1182 -0.1259 -0.0167
   85loPI    C2 1346   3.020  16.263  11.433  0.2764  0.2334  0.0002
   85loPI    C3 1347   3.348  16.070  11.556  0.2497  0.0922 -0.1458
   85loPI   PO4 1348   3.273  16.184  10.992  0.1331  0.0308 -0.1340
   85loPI   GL1 1349   3.295  16.493  10.655  0.0156  0.2726  0.0297
   85loPI   GL2 1350   2.956  16.348  10.577 -0.1330 -0.1142  0.3197
   85loPI   C1A 1351   3.481  16.363  10.247  0.0595  0.1394  0.2805
   85loPI   C2A 1352   3.491  16.314   9.856  0.0154 -0.0324 -0.0967
   85loPI   C3A 1353   3.529  16.232   9.440 -0.0442  0.0496 -0.2547
   85loPI   C4A 1354   3.531  16.153   8.999 -0.0689 -0.3221 -0.0507
   85loPI   C5A 1355   3.544  16.136   8.596 -0.0708 -0.0565  0.0315
   85loPI   C6A 1356   3.828  16.205   8.206 -0.0867 -0.0905  0.2042
   85loPI   C1B 1357   3.017  16.189  10.140 -0.0499  0.0836 -0.0211
   85loPI   C2B 1358   3.024  16.167   9.674  0.0633 -0.2830  0.1086
   85loPI   C3B 1359   3.063  16.035   9.294  0.2156 -0.0962 -0.0573
   85loPI   C4B 1360   3.057  16.007   8.885 -0.0477  0.0571 -0.1461
   86loPI    C1 1361   5.618   8.370  11.670  0.0880  0.0183 -0.1741
   86loPI    C2 1362   5.981   8.475  11.802  0.1142 -0.1591 -0.1018
   86loPI    C3 1363   5.654   8.622  11.979  0.1495 -0.3454  0.1239
   86loPI   PO4 1364   5.592   8.402  11.424  0.1207 -0.1965  0.2765
   86loPI   GL1 1365   5.673   8.736  11.124 -0.0080 -0.0780  0.0945
   86loPI   GL2 1366   5.421   8.845  11.147 -0.1387  0.0565  0.0304
   86loPI   C1A 1367   5.557   8.785  10.673  0.0133  0.1908 -0.2800
   86loPI   C2A 1368   5.593   8.855  10.205  0.0058 -0.2942  0.2778
   86loPI   C3A 1369   5.510   8.744   9.759 -0.4304  0.0519  0.0668
   86loPI   C4A 1370   5.647   8.654   9.364  0.2379  0.1264  0.0804
   86loPI   C5A 1371   5.864   8.600   8.950 -0.1333 -0.0527 -0.0729
   86loPI   C6A 1372   6.342   8.454   8.807 -0.2035 -0.1029 -0.3246
   86loPI   C1B 1373   5.139   9.086  10.719  0.5735  0.1655 -0.4047
   86loPI   C2B 1374   5.280   9.228  10.417 -0.1322  0.0547  0.0147
   86loPI   C3B 1375   5.220   9.127   9.951  0.2932 -0.0672  0.2233
   86loPI   C4B 1376   5.225   9.150   9.503 -0.1594 -0.3008 -0.1384
   87loPI    C1 1377  17.265  11.524  11.522  0.0223  0.0716  0.0578
   87loPI    C2 1378  17.543  11.494  11.808  0.0588  0.0972  0.0253
   87loPI    C3 1379  17.239  11.234  11.796  0.0347  0.1209  0.1116
   87loPI   PO4 1380  17.362  11.559  11.268 -0.7799  0.4375  0.3380
   87loPI   GL1 1381  17.453  11.358  10.972 -0.0502  0.1847 -0.2043
   87loPI   GL2 1382  17.806  11.341  10.949 -0.0906 -0.0109 -0.0413
   87loPI   C1A 1383  17.405  11.292  10.609  0.0576  0.1223  0.1993
   87loPI   C2A 1384  17.328  11.438  10.250  0.1560 -0.0760 -0.2621
   87loPI   C3A 1385  17.292  11.371   9.840 -0.3048 -0.0023 -0.0300
   87loPI   C4A 1386  17.355  11.345   9.444 -0.1379 -0.0017 -0.0410
   87loPI   C5A 1387  17.410  11.325   9.056 -0.2982  0.1749  0.0593
   87loPI   C6A 1388  17.354  11.564   8.627 -0.1071 -0.0314 -0.0460
   87loPI   C1B 1389  17.954  11.510  10.624 -0.2784 -0.0595  0.0590
   87loPI   C2B 1390  17.899  11.547  10.192 -0.0856 -0.0762  0.0430
   87loPI   C3B 1391  17.806  11.489   9.737  0.0048  0.1641  0.1063
   87loPI   C4B 1392  17.824  11.403   9.320 -0.0611 -0.4740  0.2600
   88loPI    C1 1393   4.362  14.067  11.525 -0.0026  0.0201 -0.2092
   88loPI    C2 1394   4.149  13.836  11.772 -0.0436  0.1312 -0.1401
   88loPI    C3 1395   4.432  14.077  11.919  0.1940 -0.0821 -0.2400
   88loPI   PO4 1396   4.198  13.994  11.325 -0.4645 -0.1611  0.0886
   88loPI   GL1 1397   4.203  14.205  11.010  0.0566  0.2483  0.0450
   88loPI   GL2 1398   4.281  14.452  10.885  0.0665  0.1640 -0.1981
   88loPI   C1A 1399   4.135  14.022  10.609 -0.1280  0.2478  0.1268
   88loPI   C2A 1400   4.066  14.028  10.233 -0.0221 -0.0936 -0.1895
   88loPI   C3A 1401   4.176  13.987   9.879  0.2428  0.0205  0.0860
   88loPI   C4A 1402   4.052  13.973   9.466 -0.2370  0.2137 -0.3337
   88loPI   C5A 1403   4.044  13.943   9.019  0.2899 -0.0788 -0.0677
   88loPI   C6A 1404   4.265  13.975   8.585  0.2408  0.0135  0.3474
   88loPI   C1B 1405   4.326  14.519  10.504 -0.0791  0.1425 -0.1344
   88loPI   C2B 1406   4.301  14.446  10.124 -0.0507 -0.2304  0.0914
   88loPI   C3B 1407   4.256  14.476   9.639  0.0460 -0.1311 -0.3994
   88loPI   C4B 1408   4.213  14.387   9.160 -0.1044  0.2996  0.2229
   89loPI    C1 1409   9.308   5.058  11.685  0.1442  0.3351 -0.1053
   89loPI    C2 1410   8.996   4.933  11.902  0.0413 -0.0941 -0.4850
   89loPI    C3 1411   9.266   5.180  12.064  0.0256 -0.4766  0.1624
   89loPI   PO4 1412   9.331   4.889  11.518  0.0293 -0.0351  0.2007
   89loPI   GL1 1413   9.257   5.006  11.094  0.0388  0.2482 -0.0424
   89loPI   GL2 1414   9.064   5.197  10.905  0.0698 -0.1549  0.0399
   89loPI   C1A 1415   9.415   4.947  10.663 -0.1968  0.1738 -0.1554
   89loPI   C2A 1416   9.396   4.849  10.212  0.1429 -0.1380  0.3147
   89loPI   C3A 1417   9.416   4.846   9.772  0.1911  0.4074 -0.0969
   89loPI   C4A 1418   9.433   4.790   9.351  0.0126 -0.0903  0.3045
   89loPI   C5A 1419   9.206   4.657   8.949  0.1701  0.0220  0.0332
   89loPI   C6A 1420   9.136   4.628   8.449  0.1044  0.0025 -0.0683
   89loPI   C1B 1421   9.011   5.293  10.490 -0.1046 -0.0795 -0.1385
   89loPI   C2B 1422   9.098   5.372  10.070  0.0555 -0.6283  0.1394
   89loPI   C3B 1423   9.092   5.212   9.597 -0.0359  0.1824 -0.0949
   89loPI   C4B 1424   9.187   5.171   9.166 -0.0037 -0.3853 -0.4459
   90loPI    C1 1425   9.148   9.688  11.699  0.0542 -0.1081 -0.0730
   90loPI    C2 1426   8.818   9.572  11.504 -0.1174  0.3222 -0.0505
   90loPI    C3 1427   8.791   9.708  11.879  0.1452 -0.0242  0.0996
   90loPI   PO4 1428   9.296   9.581  11.602 -0.2320 -0.1622  0.0122
   90loPI   GL1 1429   9.329   9.449  11.224 -0.1270  0.1141 -0.1524
   90loPI   GL2 1430   9.586   9.586  11.183  0.1659  0.0568 -0.0146
   90loPI   C1A 1431   9.102   9.422  10.832  0.1265  0.3408 -0.0461
   90loPI   C2A 1432   9.026   9.419  10.382 -0.2501 -0.0834 -0.4042
   90loPI   C3A 1433   9.131   9.407   9.925 -0.0329  0.0934 -0.0991
   90loPI   C4A 1434   9.172   9.425   9.468  0.2755  0.2315  0.1107
   90loPI   C5A 1435   9.243   9.500   9.078 -0.1055  0.3618  0.0663
   90loPI   C6A 1436   9.333   9.569   8.642 -0.0440 -0.2149 -0.0407
   90loPI   C1B 1437   9.634   9.470  10.688  0.3488 -0.1035  0.1958
   90loPI   C2B 1438   9.564   9.496  10.225  0.1605 -0.1708 -0.1182
   90loPI   C3B 1439   9.659   9.464   9.828  0.0862 -0.2130 -0.2105
   90loPI   C4B 1440   9.676   9.516   9.396 -0.0366  0.1487  0.2158
   91loPI    C1 1441  14.320  16.217  11.722 -0.0544  0.0111  0.0584
   91loPI    C2 1442  14.334  16.559  11.930  0.0450  0.0567 -0.0215
   91loPI    C3 1443  14.360  16.207  12.120  0.1950  0.0989  0.0378
   91loPI   PO4 1444  14.460  16.291  11.536 -0.1404  0.1016 -0.1740
   91loPI   GL1 1445  14.487  16.549  11.183  0.2332  0.0286 -0.0959
   91loPI   GL2 1446  14.581  16.905  11.116  0.2906 -0.1265 -0.0434
   91loPI   C1A 1447  14.482  16.377  10.839 -0.0415  0.1105 -0.1006
   91loPI   C2A 1448  14.462  16.411  10.387 -0.0681 -0.0889  0.0824
   91loPI   C3A 1449  14.367  16.339   9.910  0.0855 -0.0221  0.1637
   91loPI   C4A 1450  14.400  16.222   9.545 -0.0385 -0.2459  0.1620
   91loPI   C5A 1451  14.343  16.188   9.006  0.0418  0.1395  0.1522
   91loPI   C6A 1452  14.347  16.117   8.608 -0.0996  0.0587  0.1256
   91loPI   C1B 1453  14.610  16.860  10.695  0.0506 -0.1652  0.0156
   91loPI   C2B 1454  14.578  16.862  10.337  0.2917 -0.0656 -0.3812
   91loPI   C3B 1455  14.538  16.778   9.831 -0.3173 -0.0302  0.1461
   91loPI   C4B 1456  14.495  16.777   9.407 -0.0429  0.1479 -0.2541
   92loPI    C1 1457  10.700  17.099  11.618 -0.0773  0.1636  0.0728
   92loPI    C2 1458  10.529  16.762  11.750  0.0590 -0.0245 -0.2192
   92loPI    C3 1459  10.671  17.030  12.011 -0.2478 -0.0873  0.0191
   92loPI   PO4 1460  10.574  17.273  11.406 -0.0529 -0.2133  0.0347
   92loPI   GL1 1461  10.687  17.511  11.060  0.2461  0.2140 -0.1133
   92loPI   GL2 1462  10.978  17.555  11.002  0.1196  0.0540  0.2467
   92loPI   C1A 1463  10.533  17.464  10.649 -0.0881  0.3560  0.1030
   92loPI   C2A 1464  10.506  17.517  10.148 -0.3841  0.1467 -0.3105
   92loPI   C3A 1465  10.545  17.502   9.735  0.0581  0.0105 -0.0798
   92loPI   C4A 1466  10.554  17.421   9.384  0.3915 -0.1276 -0.2909
   92loPI   C5A 1467  10.607  17.245   9.015 -0.0795  0.3915  0.1052
   92loPI   C6A 1468  10.901  17.212   8.619  0.0817 -0.1503  0.0316
   92loPI   C1B 1469  11.143  17.592  10.540 -0.2656 -0.0918 -0.0235
   92loPI   C2B 1470  10.948  17.699  10.138  0.2432 -0.0585 -0.0096
   92loPI   C3B 1471  11.084  17.602   9.789  0.1208  0.0650  0.1368
   92loPI   C4B 1472  11.039  17.534   9.349 -0.1757 -0.1225 -0.2918
   93loPI    C1 1473  15.673   2.199  11.690  0.1948 -0.0262 -0.1494
   93loPI    C2 1474  15.493   2.144  12.043  0.1066 -0.0934 -0.2044
   93loPI    C3 1475  15.890   2.192  12.026  0.1008  0.0015 -0.0876
   93loPI   PO4 1476  15.509   2.062  11.524  0.1411  0.1763 -0.3076
   93loPI   GL1 1477  15.566   1.998  11.076 -0.0175 -0.0134  0.2592
   93loPI   GL2 1478  15.459   1.740  11.009  0.1014  0.1136 -0.0367
   93loPI   C1A 1479  15.816   1.955  10.706 -0.1655 -0.1548 -0.0051
   93loPI   C2A 1480  15.907   1.983  10.402  0.1040 -0.0069  0.0363
   93loPI   C3A 1481  15.909   1.915   9.930 -0.1024  0.0124  0.2314
   93loPI   C4A 1482  15.923   1.954   9.627 -0.0839  0.1805 -0.0461
   93loPI   C5A 1483  15.894   1.934   9.160  0.1727 -0.0465 -0.1479
   93loPI   C6A 1484  15.632   1.964   8.790 -0.1159 -0.0615  0.2638
   93loPI   C1B 1485  15.376   1.842  10.478  0.1698 -0.2567 -0.0259
   93loPI   C2B 1486  15.442   1.804  10.079 -0.0946 -0.2139 -0.1369
   93loPI   C3B 1487  15.430   1.846   9.659 -0.0890 -0.0717  0.3439
   93loPI   C4B 1488  15.378   1.920   9.204 -0.0074  0.0749  0.0991
   94loPI    C1 1489  10.450  11.232  11.601 -0.1338 -0.2417 -0.0318
   94loPI    C2 1490  10.725  11.168  11.885 -0.1402  0.1278  0.0627
   94loPI    C3 1491  10.380  10.966  11.891 -0.0554 -0.0151  0.1991
   94loPI   PO4 1492  10.589  11.223  11.362  0.2076  0.0371  0.0487
   94loPI   GL1 1493  10.553  11.597  11.062 -0.2061 -0.0303 -0.0937
   94loPI   GL2 1494  10.849  11.530  11.064 -0.3174 -0.1370  0.0686
   94loPI   C1A 1495  10.332  11.409  10.737 -0.0636 -0.0841 -0.1040
   94loPI   C2A 1496  10.382  11.425  10.296  0.1355  0.0327 -0.0635
   94loPI   C3A 1497  10.303  11.418   9.832  0.0606  0.0201 -0.2928
   94loPI   C4A 1498  10.322  11.475   9.365 -0.3661 -0.2624  0.1083
   94loPI   C5A 1499  10.453  11.768   8.962 -0.0577  0.0675 -0.1421
   94loPI   C6A 1500  10.815  11.897   8.852  0.0697 -0.2124  0.1679
   94loPI   C1B 1501  10.853  11.531  10.570  0.1765  0.1057 -0.1153
   94loPI   C2B 1502  10.883  11.505  10.141 -0.1863  0.1357  0.0383
   94loPI   C3B 1503  10.822  11.595   9.716  0.1040  0.1236  0.1371
   94loPI   C4B 1504  10.818  11.585   9.258  0.1869 -0.2138  0.1492
   95loPI    C1 1505  11.769   5.314  11.716  0.1052 -0.0548 -0.0779
   95loPI    C2 1506  11.689   4.952  11.866 -0.0616  0.1013  0.2194
   95loPI    C3 1507  11.788   5.253  12.111  0.1361  0.2439 -0.0307
   95loPI   PO4 1508  11.613   5.359  11.515 -0.1329 -0.0252 -0.0847
   95loPI   GL1 1509  11.418   5.334  11.149 -0.0558  0.1925  0.1730
   95loPI   GL2 1510  11.784   5.122  11.110  0.1230 -0.1783 -0.0517
   95loPI   C1A 1511  11.465   5.392  10.725  0.1481  0.1811  0.0192
   95loPI   C2A 1512  11.466   5.306  10.358  0.0818 -0.0965  0.0600
   95loPI   C3A 1513  11.496   5.283   9.928  0.0861 -0.0100  0.0367
   95loPI   C4A 1514  11.430   5.238   9.459  0.2627 -0.0546  0.2511
   95loPI   C5A 1515  11.396   5.010   9.087  0.1692  0.0621 -0.1727
   95loPI   C6A 1516  11.423   4.993   8.673  0.0812  0.1144  0.0658
   95loPI   C1B 1517  11.749   4.986  10.656 -0.2170 -0.3645  0.0446
   95loPI   C2B 1518  11.811   4.859  10.159 -0.1114  0.0346  0.2060
   95loPI   C3B 1519  11.754   4.797   9.670  0.0683 -0.0605  0.1287
   95loPI   C4B 1520  11.700   4.637   9.278 -0.1314 -0.1838  0.0248
   96loPI    C1 1521  12.182   1.236  11.445 -0.0059  0.0672  0.0288
   96loPI    C2 1522  12.016   0.971  11.196 -0.2284  0.2803 -0.0522
   96loPI    C3 1523  11.906   0.980  11.580 -0.0276  0.0816  0.0117
   96loPI   PO4 1524  12.184   1.483  11.299  0.0181  0.0429 -0.1324
   96loPI   GL1 1525  11.847   1.683  11.011  0.3120 -0.0307  0.1737
   96loPI   GL2 1526  12.085   1.706  10.813  0.4460  0.2374  0.3523
   96loPI   C1A 1527  11.663   1.591  10.610 -0.1304  0.0284  0.1665
   96loPI   C2A 1528  11.550   1.606  10.264 -0.2543 -0.0809  0.3129
   96loPI   C3A 1529  11.541   1.520   9.841 -0.0378  0.1342  0.1063
   96loPI   C4A 1530  11.607   1.528   9.390 -0.2000  0.1281 -0.0977
   96loPI   C5A 1531  11.551   1.576   8.879 -0.1987 -0.1128 -0.0886
   96loPI   C6A 1532  11.577   1.525   8.445  0.0704  0.2750 -0.0633
   96loPI   C1B 1533  12.068   1.655  10.368 -0.2174 -0.1081 -0.0523
   96loPI   C2B 1534  12.026   1.623   9.977  0.0937 -0.1132  0.2118
   96loPI   C3B 1535  12.095   1.636   9.535  0.0742  0.0717  0.0455
   96loPI   C4B 1536  11.990   1.634   9.055 -0.0369  0.2680 -0.0533
   97loPI    C1 1537   3.410  14.541  11.291  0.1939 -0.2305  0.1617
   97loPI    C2 1538   3.065  14.663  11.453  0.1173 -0.0927 -0.1004
   97loPI    C3 1539   3.316  14.435  11.665 -0.0627 -0.0646  0.1465
   97loPI   PO4 1540   3.360  14.417  11.098 -0.0247 -0.1533 -0.0972
   97loPI   GL1 1541   3.206  14.498  10.641  0.0112  0.1436  0.0574
   97loPI   GL2 1542   3.009  14.689  10.512 -0.0002  0.3639 -0.0447
   97loPI   C1A 1543   3.338  14.345  10.257  0.1430  0.3759  0.2062
   97loPI   C2A 1544   3.284  14.303   9.838  0.1536  0.1120  0.0388
   97loPI   C3A 1545   3.240  14.283   9.368 -0.0556  0.0497  0.2969
   97loPI   C4A 1546   3.017  14.252   8.965 -0.0526  0.0636  0.0269
   97loPI   C5A 1547   2.766  14.108   8.683 -0.0504 -0.2510  0.1396
   97loPI   C6A 1548   2.533  13.806   8.586 -0.0721  0.2337 -0.0119
   97loPI   C1B 1549   2.941  14.610  10.069  0.0466 -0.1852 -0.1706
   97loPI   C2B 1550   3.051  14.680   9.621  0.0449 -0.2157 -0.1021
   97loPI   C3B 1551   3.002  14.729   9.182 -0.1494 -0.2328  0.0301
   97loPI   C4B 1552   3.063  14.764   8.774 -0.1016 -0.0135 -0.1474
   98loPI    C1 1553   9.573   4.290  11.689 -0.3489  0.0479  0.0138
   98loPI    C2 1554   9.564   4.649  11.865  0.1456  0.1261 -0.1062
   98loPI    C3 1555   9.799   4.361  12.011 -0.1072 -0.0923 -0.1226
   98loPI   PO4 1556   9.542   4.348  11.450 -0.0007 -0.1973  0.2716
   98loPI   GL1 1557   9.607   4.629  11.108  0.1133  0.1339 -0.1166
   98loPI   GL2 1558   9.311   4.537  11.011 -0.0927  0.1530  0.1558
   98loPI   C1A 1559   9.786   4.579  10.731 -0.0805 -0.0209 -0.2164
   98loPI   C2A 1560   9.821   4.546  10.221  0.1520 -0.1022 -0.0100
   98loPI   C3A 1561   9.724   4.407   9.788 -0.1154 -0.0658  0.1908
   98loPI   C4A 1562   9.815   4.428   9.309 -0.1955  0.0896 -0.0013
   98loPI   C5A 1563   9.632   4.120   8.961  0.1131  0.1614  0.0621
   98loPI   C6A 1564   9.816   3.790   8.668  0.0009 -0.0547 -0.3694
   98loPI   C1B 1565   9.325   4.458  10.452 -0.0548  0.0378  0.2247
   98loPI   C2B 1566   9.277   4.377  10.009  0.2831 -0.2168  0.3258
   98loPI   C3B 1567   9.226   4.371   9.691 -0.1330  0.0392 -0.0420
   98loPI   C4B 1568   9.223   4.290   9.369  0.0868  0.0275  0.1742
   99loPI    C1 1569   5.890   4.183  11.325 -0.1385 -0.0886 -0.0241
   99loPI    C2 1570   6.185   4.218  11.592 -0.0021  0.0247 -0.1875
   99loPI    C3 1571   5.815   4.125  11.714  0.0561  0.0850  0.0405
   99loPI   PO4 1572   5.934   4.221  11.009 -0.0150  0.0245  0.1158
   99loPI   GL1 1573   6.137   3.901  10.760  0.2055  0.2150 -0.1022
   99loPI   GL2 1574   5.886   4.176  10.553 -0.1070 -0.0669  0.1369
   99loPI   C1A 1575   6.266   3.885  10.334 -0.0952 -0.3011 -0.1272
   99loPI   C2A 1576   6.249   3.812   9.909  0.0273  0.0980  0.2043
   99loPI   C3A 1577   6.190   3.863   9.473 -0.0928 -0.1739 -0.2999
   99loPI   C4A 1578   6.245   3.722   9.063 -0.0266 -0.0270 -0.0563
   99loPI   C5A 1579   6.219   3.873   8.538 -0.1434 -0.0938 -0.3939
   99loPI   C6A 1580   6.593   3.795   8.222 -0.1125 -0.1585 -0.3373
   99loPI   C1B 1581   5.883   4.260  10.137 -0.0389  0.2580  0.0645
   99loPI   C2B 1582   5.905   4.229   9.685  0.0508  0.0910 -0.1474
   99loPI   C3B 1583   5.832   4.211   9.268 -0.1331  0.1559  0.1675
   99loPI   C4B 1584   5.927   4.129   8.886 -0.0027 -0.0491  0.0546
  100loPI    C1 1585   7.205   2.270  11.456  0.0315 -0.1152 -0.2153
  100loPI    C2 1586   6.847   2.173  11.607  0.0966 -0.4278 -0.2534
  100loPI    C3 1587   7.164   2.206  11.849 -0.0189  0.1921 -0.1680
  100loPI   PO4 1588   7.239   2.536  11.315 -0.0532  0.1926  0.1945
  100loPI   GL1 1589   7.307   2.947  11.027  0.3363 -0.0982  0.2409
  100loPI   GL2 1590   7.305   3.220  10.978 -0.0265  0.2334  0.0103
  100loPI   C1A 1591   7.224   2.685  10.564 -0.0726 -0.0817  0.1632
  100loPI   C2A 1592   7.255   2.684  10.193 -0.0087 -0.0411 -0.0980
  100loPI   C3A 1593   7.265   2.545   9.748  0.1794 -0.4077  0.1175
  100loPI   C4A 1594   7.120   2.423   9.369  0.2670  0.1161  0.2475
  100loPI   C5A 1595   7.097   2.200   8.904  0.2887  0.1565  0.1594
  100loPI   C6A 1596   7.114   2.176   8.468 -0.0470  0.2984 -0.0019
  100loPI   C1B 1597   7.333   3.255  10.567  0.0032 -0.1311 -0.0154
  100loPI   C2B 1598   7.409   3.158  10.170 -0.2722 -0.0343 -0.0945
  100loPI   C3B 1599   7.413   3.103   9.722 -0.1202 -0.3262 -0.1845
  100loPI   C4B 1600   7.263   3.020   9.326 -0.1573 -0.3594 -0.1153
  101loPI    C1 1601  11.267   2.283  11.556  0.1222  0.1434 -0.1360
  101loPI    C2 1602  11.044   2.616  11.557 -0.1020 -0.0031  0.1184
  101loPI    C3 1603  11.168   2.457  11.903  0.4428  0.1007 -0.0198
  101loPI   PO4 1604  11.360   2.393  11.262  0.0199 -0.0693 -0.1592
  101loPI   GL1 1605  11.377   2.387  10.916  0.1527 -0.1214  0.3224
  101loPI   GL2 1606  11.295   2.084  10.831  0.0689  0.0227 -0.0818
  101loPI   C1A 1607  11.425   2.462  10.499 -0.3568 -0.2319 -0.1444
  101loPI   C2A 1608  11.389   2.380  10.049 -0.3576 -0.0168 -0.0564
  101loPI   C3A 1609  11.416   2.380   9.521 -0.0034 -0.1739  0.1100
  101loPI   C4A 1610  11.303   2.622   9.099  0.2491  0.1038 -0.0943
  101loPI   C5A 1611  11.150   2.913   8.791 -0.1536 -0.1666 -0.2538
  101loPI   C6A 1612  10.836   2.959   8.582 -0.1620 -0.0505 -0.0437
  101loPI   C1B 1613  11.219   1.992  10.396  0.0310 -0.1313  0.0680
  101loPI   C2B 1614  11.251   1.897  10.008 -0.2664 -0.1995  0.0432
  101loPI   C3B 1615  11.287   1.882   9.526  0.1704  0.1945  0.0539
  101loPI   C4B 1616  11.284   2.021   9.120 -0.0221  0.1594  0.1318
  102loPI    C1 1617  10.842   0.192  11.589  0.0712 -0.0726 -0.1250
  102loPI    C2 1618  10.570   0.088  11.863  0.0818 -0.0168 -0.0933
  102loPI    C3 1619  10.930   0.218  11.978  0.0720  0.0459 -0.1329
  102loPI   PO4 1620  10.707   0.381  11.425 -0.2442  0.2280  0.3173
  102loPI   GL1 1621  10.778   0.523  10.950 -0.0953 -0.3810 -0.2200
  102loPI   GL2 1622  11.070   0.565  11.082 -0.0724  0.2847  0.2166
  102loPI   C1A 1623  10.830   0.492  10.507 -0.0448  0.0639 -0.2272
  102loPI   C2A 1624  10.578   0.537  10.192 -0.1533 -0.1222 -0.0748
  102loPI   C3A 1625  10.740   0.488   9.777  0.0757 -0.0239  0.0390
  102loPI   C4A 1626  10.737   0.446   9.399 -0.1907  0.2692  0.2277
  102loPI   C5A 1627  10.742   0.245   8.987  0.0480 -0.0260 -0.2035
  102loPI   C6A 1628  10.835   0.294   8.552  0.1982  0.0442 -0.0856
  102loPI   C1B 1629  11.319   0.573  10.748  0.0169 -0.0994 -0.0200
  102loPI   C2B 1630  11.325   0.608  10.293 -0.0607  0.1063  0.3054
  102loPI   C3B 1631  11.315   0.532   9.830  0.0451  0.1450 -0.0251
  102loPI   C4B 1632  11.223   0.566   9.378  0.0353 -0.2662  0.1566
  103loPI    C1 1633  10.076  10.671  11.396 -0.0027 -0.0004  0.0700
  103loPI    C2 1634  10.304  10.506  11.680  0.2633 -0.1737 -0.2372
  103loPI    C3 1635  10.092  10.273  11.432  0.0727 -0.0259 -0.2154
  103loPI   PO4 1636  10.220  10.845  11.350  0.1752 -0.0326 -0.0606
  103loPI   GL1 1637  10.352  10.941  11.027  0.1073  0.0897  0.0106
  103loPI   GL2 1638  10.591  11.021  10.847  0.0675  0.2675 -0.0615
  103loPI   C1A 1639  10.130  10.916  10.663  0.0111 -0.0563  0.1591
  103loPI   C2A 1640  10.197  11.003  10.232  0.3954  0.0809 -0.2967
  103loPI   C3A 1641  10.145  10.955   9.763 -0.1062  0.0582  0.1366
  103loPI   C4A 1642  10.161  11.024   9.305  0.2046 -0.2886 -0.1713
  103loPI   C5A 1643  10.264  11.221   8.936  0.0189  0.1300 -0.0188
  103loPI   C6A 1644  10.187  11.367   8.519  0.3103  0.1306  0.2908
  103loPI   C1B 1645  10.712  11.050  10.429  0.1141  0.1326 -0.2018
  103loPI   C2B 1646  10.738  11.059  10.013  0.0646 -0.0364 -0.2280
  103loPI   C3B 1647  10.641  11.053   9.628 -0.2563  0.4021  0.3331
  103loPI   C4B 1648  10.675  11.114   9.239  0.1196  0.3489  0.0386
  104loPI    C1 1649  15.211  11.579  11.501 -0.0222  0.0294  0.0800
  104loPI    C2 1650  15.470  11.349  11.701 -0.0476  0.0956  0.1900
  104loPI    C3 1651  15.112  11.433  11.860 -0.0185  0.2537  0.1743
  104loPI   PO4 1652  15.264  11.657  11.345 -0.0450  0.2326  0.1924
  104loPI   GL1 1653  15.327  11.876  11.005  0.3021  0.0688  0.1674
  104loPI   GL2 1654  15.148  12.046  10.820 -0.0951 -0.0036  0.1774
  104loPI   C1A 1655  15.516  11.684  10.626 -0.0840  0.1079 -0.0186
  104loPI   C2A 1656  15.583  11.581  10.164 -0.0867  0.2587  0.1379
  104loPI   C3A 1657  15.508  11.621   9.816  0.0605 -0.2817 -0.0746
  104loPI   C4A 1658  15.412  11.545   9.391 -0.1036 -0.2389  0.1089
  104loPI   C5A 1659  15.307  11.401   8.910  0.3029  0.0134  0.0348
  104loPI   C6A 1660  14.968  11.348   8.531 -0.0752 -0.1140 -0.2180
  104loPI   C1B 1661  15.206  11.978  10.371 -0.0056 -0.1045  0.0241
  104loPI   C2B 1662  15.197  12.043   9.977  0.0428 -0.2349 -0.1476
  104loPI   C3B 1663  15.162  11.963   9.568  0.0042  0.0656  0.1611
  104loPI   C4B 1664  15.194  11.856   9.113 -0.1247 -0.1550  0.0321
  105loPI    C1 1665  17.290   3.558  11.863 -0.2914  0.1845  0.2845
  105loPI    C2 1666  17.414   3.701  12.215  0.1338 -0.0521  0.2378
  105loPI    C3 1667  17.473   3.316  12.124  0.0721  0.0174 -0.1122
  105loPI   PO4 1668  17.453   3.715  11.537  0.0690 -0.0855 -0.3307
  105loPI   GL1 1669  17.278   3.638  11.160 -0.1405  0.1270  0.0849
  105loPI   GL2 1670  17.294   3.907  11.011  0.1332  0.1734  0.0808
  105loPI   C1A 1671  17.506   3.559  10.794 -0.2079  0.1429  0.2076
  105loPI   C2A 1672  17.454   3.591  10.329 -0.0075 -0.0236  0.0367
  105loPI   C3A 1673  17.407   3.488   9.772 -0.0896 -0.1430  0.1977
  105loPI   C4A 1674  17.403   3.554   9.370  0.1822 -0.2063  0.0680
  105loPI   C5A 1675  17.049   3.492   9.063 -0.3096 -0.2638  0.1652
  105loPI   C6A 1676  17.171   3.491   8.622 -0.0065  0.1103 -0.1241
  105loPI   C1B 1677  17.224   3.989  10.555  0.0993 -0.0280 -0.1947
  105loPI   C2B 1678  17.126   3.956  10.115  0.1283 -0.2921  0.1960
  105loPI   C3B 1679  17.213   3.954   9.683  0.2295  0.2606 -0.1855
  105loPI   C4B 1680  17.099   3.960   9.268 -0.1016  0.2473  0.0467
  106loPI    C1 1681  10.474   5.897  11.778 -0.1007  0.0233 -0.0045
  106loPI    C2 1682  10.570   5.619  12.049  0.0868  0.1169  0.0271
  106loPI    C3 1683  10.190   5.663  11.933  0.0193  0.0142  0.2059
  106loPI   PO4 1684  10.751   5.859  11.564  0.0859  0.0155  0.0094
  106loPI   GL1 1685  11.062   5.918  11.220 -0.2825  0.1523 -0.3262
  106loPI   GL2 1686  10.804   6.090  11.109  0.1323 -0.0884  0.1396
  106loPI   C1A 1687  11.138   5.702  10.920 -0.0841 -0.1935  0.0828
  106loPI   C2A 1688  11.109   5.658  10.525  0.3157  0.0413 -0.1186
  106loPI   C3A 1689  11.119   5.620  10.089  0.0971 -0.1669 -0.2369
  106loPI   C4A 1690  11.159   5.596   9.635  0.3786 -0.0792  0.0762
  106loPI   C5A 1691  10.995   5.494   9.206  0.1003 -0.0777  0.1127
  106loPI   C6A 1692  11.015   5.356   8.860  0.0751  0.1651  0.0526
  106loPI   C1B 1693  10.785   6.038  10.643  0.0886 -0.0047  0.1560
  106loPI   C2B 1694  10.862   6.070  10.196  0.3149  0.0088 -0.0953
  106loPI   C3B 1695  10.732   5.996   9.755  0.1300  0.1084  0.0828
  106loPI   C4B 1696  10.798   5.955   9.372  0.2411  0.1385  0.1862
  107loPI    C1 1697  11.800   8.635  11.744 -0.2000  0.2887 -0.0764
  107loPI    C2 1698  11.806   8.894  12.049  0.0491  0.3170 -0.1029
  107loPI    C3 1699  11.560   8.578  12.059  0.1739  0.2266  0.2039
  107loPI   PO4 1700  11.783   8.755  11.519  0.0037 -0.1181  0.3497
  107loPI   GL1 1701  12.104   8.764  11.259  0.3076  0.1464 -0.1548
  107loPI   GL2 1702  12.016   9.027  11.159  0.1310 -0.1139  0.1591
  107loPI   C1A 1703  12.315   8.994  10.817 -0.0079  0.0713  0.2946
  107loPI   C2A 1704  12.249   9.055  10.398  0.3662  0.0302  0.1097
  107loPI   C3A 1705  12.296   9.009   9.951  0.3503  0.0312  0.0701
  107loPI   C4A 1706  12.338   8.991   9.542 -0.0007 -0.2721  0.2222
  107loPI   C5A 1707  12.481   8.904   9.119  0.3318 -0.0987  0.1883
  107loPI   C6A 1708  12.941   8.789   8.999  0.1798 -0.4959 -0.0788
  107loPI   C1B 1709  11.802   8.940  10.695  0.1140 -0.2401 -0.1375
  107loPI   C2B 1710  11.811   8.921  10.225  0.3225 -0.3226 -0.1427
  107loPI   C3B 1711  11.836   8.915   9.766 -0.1945  0.2169 -0.3459
  107loPI   C4B 1712  11.855   8.910   9.339 -0.0182 -0.1151  0.0828
  108loPI    C1 1713   4.578   8.231  11.941  0.0332  0.0006  0.0670
  108loPI    C2 1714   4.214   8.391  11.978  0.0658  0.1264 -0.1451
  108loPI    C3 1715   4.503   8.493  12.234 -0.0043  0.1501 -0.0749
  108loPI   PO4 1716   4.609   8.184  11.648  0.0056 -0.0979 -0.0907
  108loPI   GL1 1717   4.611   8.173  11.288 -0.1243  0.1660 -0.2730
  108loPI   GL2 1718   4.413   8.326  11.191  0.0309 -0.3266 -0.1322
  108loPI   C1A 1719   4.789   8.104  10.844  0.1255  0.2884 -0.0541
  108loPI   C2A 1720   4.847   8.234  10.378  0.0412  0.0587  0.2935
  108loPI   C3A 1721   4.853   8.195   9.925 -0.1934  0.3228 -0.0908
  108loPI   C4A 1722   4.949   8.171   9.485  0.0646  0.1645 -0.1285
  108loPI   C5A 1723   4.827   8.253   9.121 -0.1024  0.0969  0.2829
  108loPI   C6A 1724   4.787   8.558   8.823  0.4467 -0.3378  0.2075
  108loPI   C1B 1725   4.476   8.463  10.736  0.0823 -0.0717 -0.0972
  108loPI   C2B 1726   4.548   8.700  10.313  0.0234  0.3967 -0.2735
  108loPI   C3B 1727   4.580   8.631   9.896  0.2053  0.0059 -0.2466
  108loPI   C4B 1728   4.637   8.598   9.404 -0.0239 -0.1781 -0.2372
  109loPI    C1 1729   2.875   8.382  11.791  0.2578  0.0860  0.0447
  109loPI    C2 1730   3.093   8.049  11.757  0.3183  0.1317 -0.0174
  109loPI    C3 1731   2.966   8.168  12.117 -0.1674 -0.2540 -0.0515
  109loPI   PO4 1732   2.740   8.392  11.541  0.0291  0.1616  0.2219
  109loPI   GL1 1733   2.834   8.657  11.186 -0.0768  0.3335  0.2409
  109loPI   GL2 1734   2.690   8.898  11.051  0.0650  0.0520 -0.0142
  109loPI   C1A 1735   3.106   8.458  10.858  0.1206  0.0410  0.0274
  109loPI   C2A 1736   3.097   8.456  10.316 -0.0510 -0.1198 -0.1974
  109loPI   C3A 1737   3.057   8.317   9.865  0.2065  0.2020 -0.1674
  109loPI   C4A 1738   3.065   8.259   9.358 -0.0932 -0.2242 -0.1471
  109loPI   C5A 1739   3.087   8.249   8.979 -0.0396  0.4281 -0.3033
  109loPI   C6A 1740   3.189   7.821   8.860  0.1772  0.1902  0.0253
  109loPI   C1B 1741   2.754   8.784  10.604  0.1129  0.3944  0.0594
  109loPI   C2B 1742   2.648   8.813  10.175  0.0695  0.0726 -0.5465
  109loPI   C3B 1743   2.629   8.692   9.712  0.2565 -0.0885 -0.2615
  109loPI   C4B 1744   2.841   8.682   9.338  0.1038 -0.0997  0.1002
  110loPI    C1 1745   9.521   8.081  12.014 -0.0749  0.0887 -0.2026
  110loPI    C2 1746   9.266   8.200  12.298  0.0609 -0.1106  0.0067
  110loPI    C3 1747   9.585   7.980  12.396  0.2100 -0.0255 -0.2779
  110loPI   PO4 1748   9.329   8.148  11.822 -0.3203  0.0588  0.0429
  110loPI   GL1 1749   9.243   8.059  11.427  0.1750 -0.1437 -0.0147
  110loPI   GL2 1750   9.456   8.225  11.363 -0.3116 -0.1611  0.0150
  110loPI   C1A 1751   9.141   8.056  10.929  0.0341 -0.0713 -0.1339
  110loPI   C2A 1752   9.071   7.983  10.546  0.1355 -0.0838 -0.0225
  110loPI   C3A 1753   9.142   8.064  10.135  0.3313 -0.2681 -0.1999
  110loPI   C4A 1754   9.148   8.006   9.667  0.0865  0.1703 -0.0631
  110loPI   C5A 1755   9.516   8.147   9.422  0.3050 -0.5328  0.1344
  110loPI   C6A 1756   9.748   8.047   8.990  0.1212  0.3077 -0.3269
  110loPI   C1B 1757   9.637   8.168  11.063 -0.1791 -0.2484  0.3629
  110loPI   C2B 1758   9.565   8.073  10.673 -0.2329 -0.0217 -0.0190
  110loPI   C3B 1759   9.630   8.134  10.299 -0.1373  0.0262 -0.0341
  110loPI   C4B 1760   9.622   8.125   9.887  0.2183  0.0063  0.0742
  111loPI    C1 1761  15.671  15.837  11.617  0.1291  0.1449  0.1427
  111loPI    C2 1762  15.984  15.920  11.851  0.2747 -0.0827  0.0331
  111loPI    C3 1763  15.793  15.571  11.890 -0.0469  0.1049  0.1839
  111loPI   PO4 1764  15.500  16.110  11.529  0.0347  0.0836 -0.1730
  111loPI   GL1 1765  15.501  16.274  11.093 -0.0533 -0.1874  0.0778
  111loPI   GL2 1766  15.812  16.368  10.929  0.0056 -0.0829 -0.2272
  111loPI   C1A 1767  15.247  16.165  10.702 -0.1224  0.1119  0.1643
  111loPI   C2A 1768  15.224  16.092  10.267  0.0094  0.0231  0.4427
  111loPI   C3A 1769  15.206  15.988   9.804  0.2608 -0.3157 -0.4168
  111loPI   C4A 1770  15.154  15.996   9.429  0.0913  0.0376 -0.3541
  111loPI   C5A 1771  15.059  15.910   8.933  0.1266 -0.0597 -0.5049
  111loPI   C6A 1772  14.851  16.223   8.661 -0.0171  0.2047 -0.0682
  111loPI   C1B 1773  15.765  16.217  10.430  0.3033  0.1121 -0.1796
  111loPI   C2B 1774  15.727  16.207  10.041 -0.2813 -0.4486  0.2911
  111loPI   C3B 1775  15.652  16.047   9.607 -0.1950 -0.2576  0.2459
  111loPI   C4B 1776  15.662  16.074   9.199  0.0482  0.1082  0.2219
  112loPI    C1 1777   5.948  13.598  11.679  0.1154 -0.2471  0.1768
  112loPI    C2 1778   6.073  13.314  11.427  0.2270  0.0767 -0.1419
  112loPI    C3 1779   6.132  13.272  11.821  0.1789 -0.3688 -0.1769
  112loPI   PO4 1780   5.921  13.848  11.577 -0.1011 -0.0268 -0.1809
  112loPI   GL1 1781   5.973  13.996  11.199 -0.1626 -0.0499  0.0861
  112loPI   GL2 1782   5.885  13.629  11.101 -0.3206  0.0668 -0.1309
  112loPI   C1A 1783   6.079  13.883  10.739  0.0342 -0.1604 -0.0048
  112loPI   C2A 1784   6.005  13.906  10.377  0.0872  0.0888 -0.0236
  112loPI   C3A 1785   6.046  13.897   9.995 -0.0394  0.1935  0.2937
  112loPI   C4A 1786   5.967  13.789   9.585  0.0616  0.2267  0.2460
  112loPI   C5A 1787   5.920  13.876   9.165  0.0468  0.2596 -0.0874
  112loPI   C6A 1788   6.027  14.244   8.969  0.3790 -0.0375 -0.2174
  112loPI   C1B 1789   5.885  13.450  10.656 -0.1119  0.0785  0.0631
  112loPI   C2B 1790   5.832  13.355  10.230 -0.0593  0.2300  0.2867
  112loPI   C3B 1791   5.753  13.365   9.777  0.0950 -0.4475 -0.0073
  112loPI   C4B 1792   5.724  13.400   9.299 -0.0819 -0.1120  0.0014
  113loPI    C1 1793   5.372  14.848  11.743  0.1224 -0.1588  0.0632
  113loPI    C2 1794   5.608  14.609  11.961  0.2278  0.1046  0.2426
  113loPI    C3 1795   5.246  14.711  12.097  0.2020  0.0864  0.1883
  113loPI   PO4 1796   5.472  14.696  11.462  0.1609 -0.0023 -0.0090
  113loPI   GL1 1797   5.267  14.499  11.181 -0.1635 -0.0242  0.0268
  113loPI   GL2 1798   5.640  14.360  11.075 -0.3267  0.0822  0.1311
  113loPI   C1A 1799   5.382  14.682  10.755 -0.2784  0.0473 -0.2641
  113loPI   C2A 1800   5.327  14.712  10.352  0.2128  0.1581 -0.1439
  113loPI   C3A 1801   5.335  14.650   9.967  0.0914 -0.3484 -0.1897
  113loPI   C4A 1802   5.358  14.605   9.616  0.1891 -0.1457 -0.0120
  113loPI   C5A 1803   5.218  14.594   9.206 -0.1244 -0.0206 -0.3962
  113loPI   C6A 1804   5.497  14.397   8.883 -0.1027  0.1008 -0.2859
  113loPI   C1B 1805   5.742  14.220  10.646  0.0913 -0.0137  0.0746
  113loPI   C2B 1806   5.623  14.286  10.143 -0.1990  0.0896 -0.1789
  113loPI   C3B 1807   5.636  14.194   9.731 -0.1999  0.0273  0.1552
  113loPI   C4B 1808   5.617  14.224   9.378 -0.1145  0.0270  0.2558
  114loPI    C1 1809  13.386   6.165  11.768  0.0630 -0.2010  0.1595
  114loPI    C2 1810  13.244   5.835  11.943 -0.0576 -0.0880  0.2775
  114loPI    C3 1811  13.255   6.179  12.146  0.2394 -0.0592  0.2167
  114loPI   PO4 1812  13.258   6.206  11.503 -0.0446  0.2118  0.0222
  114loPI   GL1 1813  13.280   6.063  11.133  0.1768 -0.0926 -0.2632
  114loPI   GL2 1814  13.674   6.144  11.114  0.1628 -0.2198 -0.0868
  114loPI   C1A 1815  13.127   5.987  10.738  0.0683 -0.1120  0.2933
  114loPI   C2A 1816  13.207   6.003  10.374  0.0755 -0.4322  0.3189
  114loPI   C3A 1817  13.109   6.011   9.937  0.0881 -0.1417  0.0685
  114loPI   C4A 1818  13.135   5.992   9.531  0.0943  0.0273  0.1592
  114loPI   C5A 1819  13.258   5.661   9.167  0.0100  0.1117  0.1875
  114loPI   C6A 1820  13.478   5.453   8.895 -0.0529 -0.0115 -0.0379
  114loPI   C1B 1821  13.655   6.073  10.669  0.0004 -0.0673 -0.0141
  114loPI   C2B 1822  13.683   6.025  10.157  0.0506  0.0698  0.1151
  114loPI   C3B 1823  13.585   6.081   9.705  0.3264  0.1228 -0.2322
  114loPI   C4B 1824  13.532   6.105   9.274  0.0910 -0.0793 -0.2256
  115loPI    C1 1825  10.706   8.830  11.723  0.0556  0.1885  0.0130
  115loPI    C2 1826  11.048   8.761  11.919  0.0237  0.0699  0.0276
  115loPI    C3 1827  10.698   8.723  12.108 -0.0024  0.0790 -0.0184
  115loPI   PO4 1828  10.798   8.604  11.484 -0.0079  0.3822 -0.0466
  115loPI   GL1 1829  10.989   8.499  11.050  0.1110  0.1195 -0.1071
  115loPI   GL2 1830  10.713   8.343  10.948  0.3200  0.1228  0.0674
  115loPI   C1A 1831  11.093   8.363  10.542 -0.0314 -0.1194 -0.2091
  115loPI   C2A 1832  11.138   8.387  10.128 -0.0161  0.0027 -0.1148
  115loPI   C3A 1833  11.109   8.402   9.663  0.2442 -0.0210 -0.2513
  115loPI   C4A 1834  11.119   8.481   9.215 -0.0929  0.0702  0.1155
  115loPI   C5A 1835  11.292   8.521   8.848  0.2389  0.3492  0.2809
  115loPI   C6A 1836  11.248   8.396   8.401 -0.4492  0.1172 -0.1636
  115loPI   C1B 1837  10.538   8.272  10.555  0.3174 -0.0020 -0.2305
  115loPI   C2B 1838  10.560   8.396  10.112 -0.1475 -0.2458 -0.1551
  115loPI   C3B 1839  10.559   8.324   9.689  0.0754  0.2230 -0.0809
  115loPI   C4B 1840  10.635   8.331   9.296 -0.1131 -0.0915  0.1541
  116loPI    C1 1841  14.335   7.007  11.873  0.0357  0.0147 -0.0761
  116loPI    C2 1842  14.684   6.834  11.963  0.1428  0.1292 -0.2626
  116loPI    C3 1843  14.341   6.637  12.025  0.2398  0.0122 -0.0879
  116loPI   PO4 1844  14.320   7.108  11.637 -0.0625  0.1726  0.3707
  116loPI   GL1 1845  14.290   6.968  11.254 -0.0269  0.3763 -0.0457
  116loPI   GL2 1846  14.107   7.126  10.983 -0.1759 -0.0783 -0.2543
  116loPI   C1A 1847  14.330   6.726  10.804 -0.2202 -0.2863  0.0741
  116loPI   C2A 1848  14.298   6.646  10.319  0.0940 -0.0940 -0.1765
  116loPI   C3A 1849  14.324   6.712   9.786  0.1032 -0.0009 -0.1797
  116loPI   C4A 1850  14.349   6.628   9.376 -0.0791  0.0384 -0.1532
  116loPI   C5A 1851  14.111   6.770   9.030  0.3487  0.1328 -0.1326
  116loPI   C6A 1852  14.076   6.595   8.587 -0.3835 -0.2277 -0.1435
  116loPI   C1B 1853  13.949   7.046  10.641  0.0470  0.0057  0.0300
  116loPI   C2B 1854  14.019   7.033  10.302  0.5918  0.0489  0.0385
  116loPI   C3B 1855  14.039   7.081   9.878 -0.0291  0.2684 -0.1546
  116loPI   C4B 1856  14.001   7.070   9.480  0.1767  0.3164  0.0471
  117loPI    C1 1857  16.109   7.380  11.860 -0.1645 -0.1044 -0.0358
  117loPI    C2 1858  15.881   7.052  11.887  0.0883 -0.2756  0.0429
  117loPI    C3 1859  16.271   7.034  11.977  0.1486 -0.0000 -0.1503
  117loPI   PO4 1860  16.023   7.456  11.633 -0.1143 -0.1639 -0.0551
  117loPI   GL1 1861  16.110   7.348  11.211 -0.0704  0.2685  0.1796
  117loPI   GL2 1862  16.286   7.246  11.068  0.3213  0.6079 -0.3045
  117loPI   C1A 1863  15.979   7.435  10.760 -0.2299 -0.2213  0.1118
  117loPI   C2A 1864  15.950   7.443  10.264  0.4280  0.0209 -0.0236
  117loPI   C3A 1865  15.935   7.517   9.839 -0.0263  0.2263  0.2939
  117loPI   C4A 1866  16.051   7.478   9.455 -0.1342  0.1527  0.1242
  117loPI   C5A 1867  16.096   7.454   9.088  0.0259  0.0933  0.0234
  117loPI   C6A 1868  16.030   7.284   8.755  0.2275  0.2293  0.0594
  117loPI   C1B 1869  16.265   7.079  10.653 -0.0687  0.1307  0.1319
  117loPI   C2B 1870  16.290   7.063  10.261  0.0592  0.1610 -0.1145
  117loPI   C3B 1871  16.344   7.019   9.824 -0.1824 -0.0250 -0.0981
  117loPI   C4B 1872  16.391   7.108   9.410 -0.0396 -0.0452  0.2253
  118loPI    C1 1873   2.342   5.392  11.786 -0.0628 -0.1101  0.0631
  118loPI    C2 1874   2.314   5.772  11.908  0.0484 -0.1279  0.1460
  118loPI    C3 1875   2.267   5.474  12.171  0.0952 -0.1694  0.1074
  118loPI   PO4 1876   2.357   5.391  11.487  0.1136  0.0907  0.1475
  118loPI   GL1 1877   2.507   5.532  11.169 -0.2168  0.2870  0.0850
  118loPI   GL2 1878   2.686   5.469  11.020 -0.2314 -0.1910 -0.0194
  118loPI   C1A 1879   2.245   5.767  10.824  0.3203 -0.2629 -0.2182
  118loPI   C2A 1880   2.201   5.920  10.326 -0.4025 -0.0599 -0.0805
  118loPI   C3A 1881   2.185   5.811   9.898  0.0720 -0.1002  0.2173
  118loPI   C4A 1882   2.216   5.667   9.531  0.2792 -0.0964 -0.0085
  118loPI   C5A 1883   2.195   5.692   9.077 -0.1499  0.3159  0.1209
  118loPI   C6A 1884   2.332   5.804   8.755 -0.2641 -0.0823 -0.1187
  118loPI   C1B 1885   2.621   5.387  10.608 -0.1990  0.1085 -0.2748
  118loPI   C2B 1886   2.553   5.480  10.168  0.0843  0.1799  0.2220
  118loPI   C3B 1887   2.514   5.353   9.762  0.1089  0.1722  0.0505
  118loPI   C4B 1888   2.493   5.186   9.321 -0.3344 -0.0603  0.0703
  119loPI    C1 1889  10.233  13.504  11.730 -0.2116  0.3093 -0.2453
  119loPI    C2 1890  10.108  13.719  12.043 -0.0217  0.1481 -0.0556
  119loPI    C3 1891  10.046  13.324  12.034 -0.0205  0.1508 -0.2193
  119loPI   PO4 1892  10.172  13.586  11.539 -0.1087 -0.2826  0.0315
  119loPI   GL1 1893  10.420  13.546  11.196 -0.0483 -0.1279 -0.1710
  119loPI   GL2 1894  10.606  13.902  11.136 -0.0934  0.0663  0.0583
  119loPI   C1A 1895  10.581  13.306  10.764  0.0609 -0.0782  0.1148
  119loPI   C2A 1896  10.528  13.218  10.274  0.0060 -0.2880  0.0782
  119loPI   C3A 1897  10.552  13.374   9.825 -0.0501  0.1175  0.2199
  119loPI   C4A 1898  10.240  13.346   9.483 -0.1176 -0.0059  0.0314
  119loPI   C5A 1899   9.881  13.173   9.246 -0.1504  0.0926 -0.1025
  119loPI   C6A 1900   9.703  13.261   8.872  0.0759 -0.2182  0.1263
  119loPI   C1B 1901  10.683  13.809  10.669  0.4233 -0.3199 -0.0714
  119loPI   C2B 1902  10.617  13.858  10.114  0.0367  0.0481 -0.0957
  119loPI   C3B 1903  10.618  13.850   9.656 -0.2080 -0.0586  0.4279
  119loPI   C4B 1904  10.652  13.508   9.281  0.1300  0.1280  0.0952
  120loPI    C1 1905   0.211   5.358  11.646  0.0306 -0.0220  0.0883
  120loPI    C2 1906   0.285   5.022  11.850  0.1452  0.0061  0.0941
  120loPI    C3 1907   0.379   5.376  12.009  0.1428  0.0337  0.0342
  120loPI   PO4 1908   0.278   5.225  11.301  0.0362  0.0075  0.1931
  120loPI   GL1 1909   0.466   5.096  10.861  0.0996  0.2373 -0.1724
  120loPI   GL2 1910   0.483   5.532  10.907 -0.3487  0.0730  0.1826
  120loPI   C1A 1911   0.533   4.958  10.396 -0.3882 -0.1344 -0.1165
  120loPI   C2A 1912   0.488   5.036   9.961  0.1189 -0.0566 -0.3282
  120loPI   C3A 1913   0.476   4.975   9.596  0.2139  0.0865 -0.0438
  120loPI   C4A 1914   0.500   5.108   9.259 -0.3827 -0.1862 -0.0075
  120loPI   C5A 1915   0.726   4.877   8.985  0.2016  0.0703  0.1396
  120loPI   C6A 1916   0.870   4.981   8.464  0.0031  0.0643  0.0717
  120loPI   C1B 1917   0.691   5.560  10.483  0.2407 -0.3217 -0.1236
  120loPI   C2B 1918   0.724   5.448  10.105 -0.0140 -0.1051  0.1719
  120loPI   C3B 1919   0.656   5.505   9.595 -0.0115 -0.0685 -0.1101
  120loPI   C4B 1920   0.752   5.593   9.154  0.0228 -0.0574  0.0373
  121loPI    C1 1921   1.742   6.851  11.712 -0.0725  0.1103 -0.1278
  121loPI    C2 1922   1.496   7.111  11.891  0.0229  0.1039  0.0147
  121loPI    C3 1923   1.682   6.831  12.107  0.0564  0.0273 -0.1119
  121loPI   PO4 1924   1.635   6.795  11.499 -0.2608 -0.1419  0.2954
  121loPI   GL1 1925   1.485   6.719  11.086  0.1127  0.1578  0.0907
  121loPI   GL2 1926   1.519   6.417  10.941  0.1289 -0.3638 -0.2052
  121loPI   C1A 1927   1.353   7.046  10.671  0.3287 -0.0630  0.0038
  121loPI   C2A 1928   1.327   7.016  10.280 -0.0613 -0.1682 -0.0143
  121loPI   C3A 1929   1.102   6.953   9.870 -0.2206  0.1708 -0.1030
  121loPI   C4A 1930   1.146   7.020   9.519  0.1686  0.0627  0.0156
  121loPI   C5A 1931   1.245   7.110   9.123 -0.0691  0.2178 -0.1744
  121loPI   C6A 1932   1.456   7.341   8.824 -0.1177 -0.1908 -0.0509
  121loPI   C1B 1933   1.478   6.593  10.499 -0.1973  0.2762 -0.0363
  121loPI   C2B 1934   1.528   6.581  10.031  0.2675  0.1285 -0.2337
  121loPI   C3B 1935   1.559   6.600   9.571  0.1799  0.2991 -0.3356
  121loPI   C4B 1936   1.726   6.462   9.132  0.2137 -0.2053 -0.0192
  122loPI    C1 1937   2.905  10.604  11.738  0.0131  0.0219  0.1685
  122loPI    C2 1938   2.866  10.362  12.054 -0.1023  0.2068  0.2976
  122loPI    C3 1939   3.044  10.718  12.095  0.0589  0.1491  0.1104
  122loPI   PO4 1940   2.698  10.611  11.583 -0.2060  0.5288  0.1322
  122loPI   GL1 1941   2.733  10.541  11.117  0.1301 -0.1272 -0.0916
  122loPI   GL2 1942   2.777  10.227  10.939  0.0612 -0.0476 -0.0575
  122loPI   C1A 1943   2.878  10.689  10.702 -0.4749 -0.1931 -0.0755
  122loPI   C2A 1944   2.841  10.640  10.254  0.2589  0.1646  0.1219
  122loPI   C3A 1945   2.824  10.750   9.830 -0.0893  0.0589  0.3136
  122loPI   C4A 1946   2.942  10.686   9.477 -0.1093  0.1451 -0.3354
  122loPI   C5A 1947   3.039  10.613   9.130 -0.0192  0.0283  0.2378
  122loPI   C6A 1948   2.834  10.600   8.810  0.2264  0.0144 -0.0943
  122loPI   C1B 1949   2.735  10.156  10.512 -0.0659  0.0639 -0.1878
  122loPI   C2B 1950   2.685  10.168  10.071 -0.1167 -0.0876 -0.3283
  122loPI   C3B 1951   2.789  10.194   9.656  0.3643  0.0555 -0.0788
  122loPI   C4B 1952   2.710  10.228   9.299  0.0551  0.1434 -0.0964
  123loPI    C1 1953  14.699   0.946  12.032  0.2806  0.0074 -0.0605
  123loPI    C2 1954  14.533   1.309  12.014  0.0362 -0.0954  0.0686
  123loPI    C3 1955  14.817   1.232  12.285  0.1271  0.0130  0.0053
  123loPI   PO4 1956  14.702   0.880  11.786  0.2374 -0.3991 -0.1050
  123loPI   GL1 1957  14.825   0.684  11.263 -0.0116 -0.1567 -0.2179
  123loPI   GL2 1958  15.108   0.771  10.980 -0.1453  0.0480 -0.0292
  123loPI   C1A 1959  14.634   0.799  10.866  0.0544 -0.2877  0.1542
  123loPI   C2A 1960  14.540   0.805  10.422 -0.0762  0.0165 -0.2539
  123loPI   C3A 1961  14.531   0.652  10.048 -0.2071 -0.2533  0.0282
  123loPI   C4A 1962  14.483   0.600   9.531  0.2344 -0.0138  0.2277
  123loPI   C5A 1963  14.479   0.737   9.195  0.1653 -0.0872  0.0956
  123loPI   C6A 1964  14.110   0.624   8.949  0.0174 -0.0568  0.2154
  123loPI   C1B 1965  15.020   0.906  10.556 -0.0899  0.0431 -0.1437
  123loPI   C2B 1966  15.063   0.912  10.139 -0.1224 -0.0220 -0.0435
  123loPI   C3B 1967  15.046   0.826   9.728  0.2770  0.0922  0.0422
  123loPI   C4B 1968  15.040   0.668   9.371  0.1511  0.0709  0.0426
  124loPI    C1 1969  12.159  10.073  11.844  0.1809  0.0920 -0.1498
  124loPI    C2 1970  12.040  10.421  12.002 -0.1421 -0.1204  0.0905
  124loPI    C3 1971  12.334  10.213  12.176  0.0020 -0.0057 -0.0123
  124loPI   PO4 1972  11.992  10.106  11.608 -0.1072 -0.0726 -0.0872
  124loPI   GL1 1973  12.025  10.122  11.148 -0.1301  0.1581  0.0465
  124loPI   GL2 1974  11.883  10.379  11.001 -0.0996  0.1554 -0.0420
  124loPI   C1A 1975  12.045   9.992  10.689 -0.1240 -0.0541 -0.1161
  124loPI   C2A 1976  12.032   9.961  10.247 -0.1133 -0.1126 -0.3264
  124loPI   C3A 1977  12.104   9.953   9.791  0.3681 -0.2735 -0.0495
  124loPI   C4A 1978  12.087  10.005   9.414  0.3057 -0.0358 -0.0631
  124loPI   C5A 1979  12.074  10.040   8.958  0.1055  0.1729 -0.0420
  124loPI   C6A 1980  12.023  10.307   8.588  0.2373 -0.4195 -0.2543
  124loPI   C1B 1981  11.760  10.366  10.531 -0.3185  0.1137  0.2772
  124loPI   C2B 1982  11.838  10.404  10.101 -0.0921  0.0108 -0.1131
  124loPI   C3B 1983  11.785  10.388   9.588 -0.2880 -0.1359  0.2614
  124loPI   C4B 1984  11.830  10.405   9.079 -0.0760  0.2331 -0.2793
  125loPI    C1 1985  15.477   9.927  11.539  0.0285  0.0546  0.0837
  125loPI    C2 1986  15.366  10.223  11.784 -0.1177  0.1290 -0.0697
  125loPI    C3 1987  15.738  10.214  11.637  0.0115  0.0131  0.2535
  125loPI   PO4 1988  15.396   9.913  11.344  0.2066  0.1394  0.1671
  125loPI   GL1 1989  15.509   9.770  10.998  0.0226 -0.1239  0.1414
  125loPI   GL2 1990  15.762   9.789  10.757  0.1866  0.1384  0.0639
  125loPI   C1A 1991  15.238   9.697  10.667 -0.0083 -0.0772  0.2076
  125loPI   C2A 1992  15.271   9.623  10.219  0.0940  0.0951  0.1763
  125loPI   C3A 1993  15.295   9.624   9.781  0.3429 -0.0551 -0.2319
  125loPI   C4A 1994  15.211   9.557   9.421  0.0220 -0.2087 -0.0038
  125loPI   C5A 1995  15.254   9.544   9.024  0.1510 -0.1965 -0.2759
  125loPI   C6A 1996  15.061   9.463   8.576 -0.2637 -0.2061 -0.0511
  125loPI   C1B 1997  15.791   9.653  10.365 -0.0414 -0.1627  0.1408
  125loPI   C2B 1998  15.856   9.674   9.875  0.0420 -0.2113 -0.3781
  125loPI   C3B 1999  15.797   9.709   9.482  0.1520 -0.1025  0.0220
  125loPI   C4B 2000  15.767   9.730   9.115  0.0219 -0.0210  0.2854
  126loPI    C1 2001  12.583   5.222  11.664 -0.2099 -0.0374  0.0521
  126loPI    C2 2002  12.612   5.197  12.062 -0.1016 -0.0960  0.0408
  126loPI    C3 2003  12.851   4.975  11.830 -0.0732  0.0358 -0.0572
  126loPI   PO4 2004  12.381   5.198  11.609  0.4975  0.1478  0.0641
  126loPI   GL1 2005  12.230   5.297  11.220 -0.1059 -0.3247  0.2829
  126loPI   GL2 2006  11.963   5.567  11.104 -0.3343  0.0766  0.0400
  126loPI   C1A 2007  12.192   5.056  10.901 -0.0954 -0.1736  0.1348
  126loPI   C2A 2008  12.321   5.008  10.516  0.0066  0.2407 -0.1449
  126loPI   C3A 2009  12.271   4.951  10.113 -0.0265  0.2708 -0.0143
  126loPI   C4A 2010  12.265   4.837   9.688  0.3076  0.0605  0.0705
  126loPI   C5A 2011  12.208   4.838   9.268  0.3797 -0.2304 -0.1839
  126loPI   C6A 2012  12.515   5.104   8.983 -0.0466  0.0057 -0.0622
  126loPI   C1B 2013  11.969   5.505  10.691  0.1123 -0.1796 -0.0900
  126loPI   C2B 2014  11.954   5.306  10.267 -0.0559  0.0132 -0.7126
  126loPI   C3B 2015  12.039   5.298   9.858  0.0245  0.2267  0.1055
  126loPI   C4B 2016  11.942   5.231   9.413 -0.0195 -0.0438 -0.1124
  127loPI    C1 2017  16.000  16.798  11.662  0.0950 -0.0239  0.0715
  127loPI    C2 2018  15.884  17.153  11.805 -0.0196  0.0040 -0.0881
  127loPI    C3 2019  16.185  16.956  11.979 -0.0702  0.0980  0.1089
  127loPI   PO4 2020  15.947  16.866  11.422  0.1358  0.2122 -0.1995
  127loPI   GL1 2021  15.764  16.808  11.065 -0.2008 -0.0441  0.2149
  127loPI   GL2 2022  15.644  17.131  10.947 -0.0621 -0.0916  0.2283
  127loPI   C1A 2023  15.934  16.726  10.671 -0.3021 -0.1079  0.1343
  127loPI   C2A 2024  15.894  16.696  10.239  0.2842  0.0629 -0.0463
  127loPI   C3A 2025  15.862  16.649   9.804 -0.0337 -0.0286 -0.1535
  127loPI   C4A 2026  15.922  16.550   9.378  0.0797  0.3580  0.2158
  127loPI   C5A 2027  15.795  16.563   8.985 -0.0217 -0.1619  0.0706
  127loPI   C6A 2028  15.918  16.839   8.668  0.1194 -0.0531 -0.0236
  127loPI   C1B 2029  15.560  17.081  10.481 -0.2553  0.1369  0.1973
  127loPI   C2B 2030  15.546  17.020  10.044 -0.1108  0.0052  0.0017
  127loPI   C3B 2031  15.554  16.939   9.560 -0.4491  0.3067  0.1510
  127loPI   C4B 2032  15.483  16.880   9.143 -0.1671  0.1823 -0.1242
  128loPI    C1 2033  15.612   2.614  11.924 -0.0773  0.0151  0.0158
  128loPI    C2 2034  15.312   2.567  12.185  0.2407 -0.1738  0.3561
  128loPI    C3 2035  15.557   2.881  12.216  0.1009 -0.0356  0.0966
  128loPI   PO4 2036  15.499   2.681  11.601  0.0218 -0.0755  0.0334
  128loPI   GL1 2037  15.551   2.454  11.221 -0.2157 -0.2541  0.0245
  128loPI   GL2 2038  15.430   2.729  11.092  0.1221  0.0538 -0.0210
  128loPI   C1A 2039  15.584   2.357  10.743 -0.0680  0.2267  0.2191
  128loPI   C2A 2040  15.583   2.368  10.337  0.1362  0.1650 -0.0616
  128loPI   C3A 2041  15.492   2.305   9.919  0.0342 -0.0282  0.1857
  128loPI   C4A 2042  15.568   2.298   9.472  0.0076  0.4073  0.3159
  128loPI   C5A 2043  15.595   2.327   9.126 -0.0120  0.2478 -0.0034
  128loPI   C6A 2044  15.318   2.359   8.941 -0.0901 -0.1073 -0.0258
  128loPI   C1B 2045  15.225   2.807  10.711 -0.2367  0.0592  0.1158
  128loPI   C2B 2046  15.180   2.761  10.271  0.2717  0.0446  0.2249
  128loPI   C3B 2047  15.255   2.704   9.854 -0.0227  0.1574 -0.3154
  128loPI   C4B 2048  15.222   2.607   9.392  0.1252  0.4664  0.0972
  129loPI    C1 2049   9.029  10.118  12.049 -0.1711  0.0022 -0.0861
  129loPI    C2 2050   9.261   9.889  12.280 -0.0599  0.2117  0.0134
  129loPI    C3 2051   9.018  10.159  12.447 -0.2145  0.1453 -0.1015
  129loPI   PO4 2052   9.188  10.180  11.814  0.1346  0.2672 -0.1973
  129loPI   GL1 2053   9.065  10.132  11.361 -0.4550  0.1634 -0.1044
  129loPI   GL2 2054   9.204   9.968  11.189 -0.2314  0.2555 -0.1794
  129loPI   C1A 2055   8.953  10.303  10.996  0.0414  0.0889  0.0503
  129loPI   C2A 2056   8.941  10.299  10.549 -0.2169 -0.4100 -0.0666
  129loPI   C3A 2057   9.028  10.287  10.118 -0.0994 -0.0549 -0.1174
  129loPI   C4A 2058   8.943  10.266   9.639 -0.0022  0.1235  0.0001
  129loPI   C5A 2059   8.916  10.309   9.265 -0.0866  0.0075  0.2058
  129loPI   C6A 2060   8.765  10.181   8.869  0.0016 -0.0197  0.0332
  129loPI   C1B 2061   9.354   9.882  10.892 -0.1362  0.0118  0.2191
  129loPI   C2B 2062   9.333   9.913  10.408 -0.2291  0.2148 -0.0727
  129loPI   C3B 2063   9.306   9.870   9.994 -0.1308  0.0762 -0.1376
  129loPI   C4B 2064   9.327   9.897   9.516  0.0329 -0.0311 -0.1753
  130loPI    C1 2065   6.432   4.948  11.455 -0.1325  0.1393  0.0287
  130loPI    C2 2066   6.279   5.113  11.786  0.0311 -0.0026  0.1775
  130loPI    C3 2067   6.299   4.715  11.752  0.1732  0.0125  0.0708
  130loPI   PO4 2068   6.351   5.166  11.254 -0.1813 -0.1413  0.1672
  130loPI   GL1 2069   6.142   5.168  10.871  0.0986  0.0477  0.1084
  130loPI   GL2 2070   6.113   4.861  10.794 -0.0571  0.0046 -0.2804
  130loPI   C1A 2071   6.193   5.239  10.534 -0.1135 -0.1325 -0.1434
  130loPI   C2A 2072   6.270   5.260  10.144  0.1075 -0.2301 -0.1432
  130loPI   C3A 2073   6.292   5.168   9.781  0.0289 -0.1753  0.1213
  130loPI   C4A 2074   6.264   5.149   9.329  0.3633 -0.0216 -0.0686
  130loPI   C5A 2075   6.298   5.246   8.852  0.0447 -0.0845  0.1581
  130loPI   C6A 2076   6.425   5.404   8.431  0.3065  0.0959  0.1590
  130loPI   C1B 2077   6.065   4.757  10.455 -0.1606  0.0299  0.2360
  130loPI   C2B 2078   6.093   4.691  10.042  0.2304  0.1689 -0.0678
  130loPI   C3B 2079   6.078   4.690   9.561  0.2057  0.1490 -0.2296
  130loPI   C4B 2080   6.117   4.696   9.101  0.2336 -0.0619 -0.0023
  131loPI    C1 2081   5.078   4.162  11.576 -0.1657  0.1693  0.1287
  131loPI    C2 2082   5.343   4.414  11.738  0.2355 -0.0952 -0.1010
  131loPI    C3 2083   5.311   4.040  11.877 -0.0188 -0.0663 -0.0770
  131loPI   PO4 2084   5.111   4.153  11.337 -0.0439  0.3240  0.0881
  131loPI   GL1 2085   5.011   3.894  11.072  0.3348 -0.2080  0.1511
  131loPI   GL2 2086   5.178   3.702  11.060 -0.1039  0.1205  0.5977
  131loPI   C1A 2087   4.924   4.006  10.654 -0.0018  0.0324  0.1197
  131loPI   C2A 2088   4.885   4.016  10.233 -0.1305 -0.1767  0.2141
  131loPI   C3A 2089   4.847   4.085   9.856 -0.0957 -0.0020  0.0374
  131loPI   C4A 2090   4.894   4.007   9.457  0.3510 -0.1634 -0.1192
  131loPI   C5A 2091   5.128   3.745   9.143  0.1342 -0.1780  0.0051
  131loPI   C6A 2092   5.225   3.490   8.828  0.0237  0.2232  0.0172
  131loPI   C1B 2093   5.236   3.657  10.670 -0.1632  0.2931  0.2894
  131loPI   C2B 2094   5.301   3.604  10.257  0.0823  0.3090 -0.0550
  131loPI   C3B 2095   5.223   3.647   9.921 -0.1710  0.0986  0.1474
  131loPI   C4B 2096   5.195   3.501   9.584 -0.4343  0.2881  0.1857
  132loPI    C1 2097   1.300  12.046  11.600  0.1951  0.1558 -0.2740
  132loPI    C2 2098   1.670  12.173  11.683  0.2211 -0.0389 -0.0819
  132loPI    C3 2099   1.355  12.348  11.857  0.2426 -0.0832  0.0017
  132loPI   PO4 2100   1.271  12.025  11.384  0.0915  0.0409  0.3516
  132loPI   GL1 2101   1.304  12.116  10.820 -0.0064 -0.3707 -0.2354
  132loPI   GL2 2102   1.596  12.229  10.636  0.1773  0.1018  0.0236
  132loPI   C1A 2103   1.087  12.041  10.504  0.0364 -0.1951 -0.0754
  132loPI   C2A 2104   1.028  12.010  10.041  0.5304 -0.2284  0.0026
  132loPI   C3A 2105   1.002  12.085   9.635  0.1494  0.0934 -0.1895
  132loPI   C4A 2106   0.989  11.992   9.200 -0.0471 -0.1752 -0.0877
  132loPI   C5A 2107   0.975  11.842   8.827  0.0872  0.1074  0.0247
  132loPI   C6A 2108   0.964  11.489   8.566 -0.1391 -0.0272  0.1436
  132loPI   C1B 2109   1.506  12.175  10.191  0.0419 -0.0308  0.1044
  132loPI   C2B 2110   1.516  12.097   9.726 -0.1323  0.0618 -0.0258
  132loPI   C3B 2111   1.477  12.150   9.281 -0.2416  0.0521  0.0438
  132loPI   C4B 2112   1.465  12.036   8.807 -0.2511  0.2357  0.0885
  133loPI    C1 2113  14.976   9.890  11.662 -0.0622 -0.4074  0.2597
  133loPI    C2 2114  14.690  10.077  11.870  0.1196  0.0796  0.0858
  133loPI    C3 2115  15.031   9.971  12.049  0.0910  0.0837  0.1427
  133loPI   PO4 2116  14.932  10.072  11.395 -0.1567  0.2904 -0.0075
  133loPI   GL1 2117  15.067  10.131  10.958  0.1981  0.4113 -0.0222
  133loPI   GL2 2118  14.824  10.357  10.968 -0.2102 -0.1068 -0.1937
  133loPI   C1A 2119  15.042  10.148  10.423 -0.2023  0.3025  0.2305
  133loPI   C2A 2120  15.054  10.073   9.964 -0.2947 -0.3075 -0.0216
  133loPI   C3A 2121  14.952   9.954   9.597  0.0141 -0.0328  0.3303
  133loPI   C4A 2122  14.876   9.843   9.121 -0.0590 -0.1407 -0.0802
  133loPI   C5A 2123  14.694   9.518   9.113  0.0345 -0.2575 -0.1763
  133loPI   C6A 2124  14.406   9.151   8.883  0.2130 -0.2055  0.0219
  133loPI   C1B 2125  14.728  10.579  10.618 -0.1439 -0.0015 -0.0417
  133loPI   C2B 2126  14.699  10.537  10.151 -0.0873 -0.0216  0.0696
  133loPI   C3B 2127  14.655  10.454   9.698  0.1854 -0.1693  0.0169
  133loPI   C4B 2128  14.663  10.287   9.257  0.1585 -0.2150  0.1275
  134loPI    C1 2129  12.455   8.512  11.983 -0.0240 -0.1240  0.0125
  134loPI    C2 2130  12.291   8.783  12.229  0.1134  0.0081 -0.0399
  134loPI    C3 2131  12.080   8.463  12.114  0.0014  0.0158  0.1408
  134loPI   PO4 2132  12.668   8.623  11.812 -0.0752 -0.2949 -0.0914
  134loPI   GL1 2133  12.678   8.884  11.480  0.2351 -0.0152 -0.1514
  134loPI   GL2 2134  12.607   8.557  11.333  0.3995  0.2542 -0.0008
  134loPI   C1A 2135  12.786   9.148  11.020 -0.0023  0.1585 -0.2488
  134loPI   C2A 2136  12.741   9.199  10.595 -0.1238  0.0647  0.0637
  134loPI   C3A 2137  12.842   9.089  10.183 -0.0217 -0.1520  0.0734
  134loPI   C4A 2138  12.894   9.127   9.753 -0.0326 -0.1478  0.0960
  134loPI   C5A 2139  12.893   9.153   9.370 -0.1460  0.1355 -0.1321
  134loPI   C6A 2140  13.235   9.173   9.053  0.0739  0.1193 -0.0099
  134loPI   C1B 2141  12.593   8.602  10.871  0.1224 -0.0564 -0.0816
  134loPI   C2B 2142  12.535   8.627  10.395  0.2866 -0.4519 -0.2195
  134loPI   C3B 2143  12.600   8.591  10.001 -0.2585 -0.0988  0.4454
  134loPI   C4B 2144  12.706   8.547   9.532  0.1994 -0.0261 -0.1236
  135loPI    C1 2145  16.338   2.433  11.769  0.1757 -0.2011 -0.1320
  135loPI    C2 2146  16.504   2.142  11.987 -0.0209 -0.2263 -0.0136
  135loPI    C3 2147  16.496   2.516  12.128  0.0560 -0.1997 -0.0791
  135loPI   PO4 2148  16.429   2.467  11.512 -0.1284  0.0076  0.0469
  135loPI   GL1 2149  16.729   2.473  11.265  0.0107 -0.0925  0.0186
  135loPI   GL2 2150  17.045   2.340  11.182  0.2099 -0.0166 -0.1095
  135loPI   C1A 2151  16.678   2.656  10.834 -0.0362  0.2418  0.2351
  135loPI   C2A 2152  16.510   2.590  10.464 -0.1678  0.1041 -0.2771
  135loPI   C3A 2153  16.577   2.544  10.019  0.1049  0.0222  0.0638
  135loPI   C4A 2154  16.588   2.514   9.659  0.0283 -0.0568  0.1895
  135loPI   C5A 2155  16.554   2.513   9.197  0.1655 -0.2300 -0.0685
  135loPI   C6A 2156  16.386   2.423   8.820  0.0881 -0.0129 -0.2067
  135loPI   C1B 2157  16.928   2.161  10.820  0.1048  0.0207  0.1364
  135loPI   C2B 2158  16.923   2.191  10.339 -0.0572 -0.0639 -0.0897
  135loPI   C3B 2159  17.034   2.165   9.880  0.0800  0.0903  0.1598
  135loPI   C4B 2160  16.929   2.151   9.381  0.2386  0.3341  0.0419
  136loPI    C1 2161   1.781   9.518  11.895 -0.1693  0.0946  0.1582
  136loPI    C2 2162   2.058   9.577  12.176  0.1508 -0.0106 -0.1286
  136loPI    C3 2163   1.809   9.265  12.203  0.1651 -0.0077  0.0484
  136loPI   PO4 2164   1.745   9.749  11.772  0.0073  0.1100  0.0964
  136loPI   GL1 2165   1.769   9.835  11.354 -0.2669  0.1956  0.0518
  136loPI   GL2 2166   1.587   9.488  11.380 -0.0117 -0.1503 -0.1201
  136loPI   C1A 2167   1.768   9.989  10.887  0.1058 -0.0973 -0.2042
  136loPI   C2A 2168   1.692   9.949  10.369  0.0773 -0.1163 -0.1636
  136loPI   C3A 2169   1.682   9.928   9.909 -0.0285  0.1876 -0.0501
  136loPI   C4A 2170   1.707   9.912   9.512  0.0469 -0.3018 -0.1124
  136loPI   C5A 2171   1.656   9.751   9.126  0.2803 -0.1831  0.4556
  136loPI   C6A 2172   1.625   9.879   8.709  0.0877  0.0700 -0.1015
  136loPI   C1B 2173   1.656   9.493  10.904 -0.0546 -0.1028 -0.2629
  136loPI   C2B 2174   1.593   9.404  10.426  0.1271  0.0023 -0.2736
  136loPI   C3B 2175   1.596   9.419   9.935 -0.1714  0.1909 -0.5082
  136loPI   C4B 2176   1.536   9.440   9.528 -0.0035 -0.0868 -0.1922
  137loPI    C1 2177  14.039  12.925  11.657  0.0405 -0.4276  0.2362
  137loPI    C2 2178  13.813  13.007  11.976 -0.1020 -0.1123  0.0588
  137loPI    C3 2179  14.211  13.004  12.009 -0.1114  0.0637  0.2079
  137loPI   PO4 2180  13.833  12.838  11.418  0.0994 -0.1858 -0.0105
  137loPI   GL1 2181  13.541  12.933  11.141 -0.0528 -0.2272  0.1039
  137loPI   GL2 2182  13.622  13.236  11.119  0.1127 -0.0141 -0.3339
  137loPI   C1A 2183  13.493  12.741  10.743 -0.3259 -0.1638  0.0649
  137loPI   C2A 2184  13.566  12.588  10.341  0.1419  0.0715 -0.3790
  137loPI   C3A 2185  13.541  12.560   9.989  0.0950 -0.1094 -0.0168
  137loPI   C4A 2186  13.500  12.460   9.541  0.1832  0.2060 -0.1633
  137loPI   C5A 2187  13.498  12.558   9.083  0.2247  0.0826 -0.1565
  137loPI   C6A 2188  13.730  12.922   8.957 -0.0111  0.0637 -0.2617
  137loPI   C1B 2189  13.441  13.385  10.637 -0.0537  0.1324 -0.2585
  137loPI   C2B 2190  13.367  13.462  10.149 -0.0964  0.1274  0.1643
  137loPI   C3B 2191  13.371  13.460   9.646 -0.0215 -0.0422 -0.2416
  137loPI   C4B 2192  13.163  13.388   9.290 -0.0925  0.1234  0.1812
  138loPI    C1 2193   9.321  13.554  11.354 -0.2163 -0.0969  0.1697
  138loPI    C2 2194   9.270  13.930  11.480  0.0512 -0.1018  0.2998
  138loPI    C3 2195   9.123  13.626  11.695  0.0448 -0.0838  0.3211
  138loPI   PO4 2196   9.550  13.514  11.276 -0.1044  0.2543  0.2550
  138loPI   GL1 2197   9.775  13.600  11.008 -0.0829 -0.0395  0.3586
  138loPI   GL2 2198   9.982  13.827  11.163 -0.0386 -0.2556 -0.0606
  138loPI   C1A 2199   9.719  13.596  10.597 -0.2570  0.0232 -0.5630
  138loPI   C2A 2200   9.744  13.501  10.162  0.1806 -0.1070 -0.2264
  138loPI   C3A 2201   9.770  13.459   9.719  0.0149  0.1092  0.0491
  138loPI   C4A 2202   9.723  13.639   9.334 -0.1090  0.1850 -0.0626
  138loPI   C5A 2203   9.566  13.693   8.967 -0.1510  0.1286 -0.0473
  138loPI   C6A 2204   9.259  13.448   8.618 -0.0733 -0.2004  0.1240
  138loPI   C1B 2205  10.178  13.704  10.732  0.0146  0.2067 -0.3561
  138loPI   C2B 2206  10.259  13.639  10.336 -0.1496  0.0554  0.2396
  138loPI   C3B 2207  10.225  13.737   9.886  0.0355  0.4231  0.1696
  138loPI   C4B 2208  10.208  13.787   9.285  0.1567  0.0396  0.0341
  139loPI    C1 2209   3.191  17.069  11.359  0.0476  0.0619 -0.0560
  139loPI    C2 2210   2.911  17.304  11.522  0.1173  0.1715 -0.0928
  139loPI    C3 2211   3.178  17.119  11.756 -0.0971 -0.0805 -0.0416
  139loPI   PO4 2212   3.094  17.074  11.127 -0.2287 -0.1519  0.0417
  139loPI   GL1 2213   3.239  16.994  10.766 -0.0389  0.2227 -0.0653
  139loPI   GL2 2214   3.233  17.227  10.483  0.0969 -0.0339  0.0211
  139loPI   C1A 2215   3.038  16.807  10.399  0.0035  0.0506  0.0353
  139loPI   C2A 2216   3.100  16.672  10.056  0.0568 -0.2012 -0.2221
  139loPI   C3A 2217   3.170  16.691   9.621 -0.3971  0.3991  0.1193
  139loPI   C4A 2218   3.155  16.488   9.217  0.1040 -0.1018  0.2487
  139loPI   C5A 2219   3.158  16.490   8.829 -0.2728  0.0235  0.0725
  139loPI   C6A 2220   3.059  16.129   8.425  0.1160  0.1251  0.2797
  139loPI   C1B 2221   3.180  17.194  10.031 -0.1307  0.0297 -0.1955
  139loPI   C2B 2222   3.261  17.192   9.660  0.2166  0.2034 -0.0863
  139loPI   C3B 2223   3.343  17.016   9.319 -0.2717 -0.0540  0.0005
  139loPI   C4B 2224   3.364  16.951   8.910  0.0890 -0.2034  0.1867
  140loPI    C1 2225   1.526  10.740  11.925  0.0410 -0.0376 -0.1393
  140loPI    C2 2226   1.202  10.822  12.145  0.1378  0.0248 -0.0187
  140loPI    C3 2227   1.513  10.631  12.310  0.1658 -0.0282 -0.1319
  140loPI   PO4 2228   1.420  10.557  11.652 -0.1376 -0.2514 -0.3139
  140loPI   GL1 2229   1.524  10.311  11.214 -0.0025  0.1444  0.2416
  140loPI   GL2 2230   1.839  10.455  11.038 -0.3035 -0.0040  0.1500
  140loPI   C1A 2231   1.384  10.372  10.720 -0.1323  0.0030  0.2716
  140loPI   C2A 2232   1.399  10.298  10.228  0.1308 -0.0496  0.0029
  140loPI   C3A 2233   1.391  10.384   9.804 -0.0090 -0.2422 -0.1366
  140loPI   C4A 2234   1.381  10.319   9.360  0.1362 -0.2051 -0.1326
  140loPI   C5A 2235   1.157  10.675   9.056  0.0211 -0.1101 -0.0153
  140loPI   C6A 2236   1.023  11.011   8.791 -0.1478 -0.1512 -0.1606
  140loPI   C1B 2237   1.844  10.501  10.562  0.3504  0.1433  0.0566
  140loPI   C2B 2238   1.908  10.417  10.101 -0.1690  0.2239  0.1105
  140loPI   C3B 2239   1.926  10.459   9.745  0.1222  0.0580  0.1011
  140loPI   C4B 2240   1.936  10.396   9.307  0.0226 -0.0224 -0.2158
  141loPI    C1 2241  13.632  13.759  11.627 -0.0290 -0.4109 -0.2829
  141loPI    C2 2242  13.273  13.625  11.744 -0.0757  0.0310  0.1090
  141loPI    C3 2243  13.592  13.578  11.981 -0.0187  0.2688  0.0823
  141loPI   PO4 2244  13.695  13.710  11.399 -0.1181 -0.0652 -0.1745
  141loPI   GL1 2245  14.031  13.768  11.140 -0.1808 -0.0634  0.0539
  141loPI   GL2 2246  14.004  14.068  11.004  0.2016 -0.4420  0.1249
  141loPI   C1A 2247  13.915  13.638  10.735  0.1778  0.2239 -0.1269
  141loPI   C2A 2248  13.855  13.602  10.310 -0.4090  0.0795  0.1195
  141loPI   C3A 2249  13.810  13.536   9.854  0.3141  0.2073  0.2769
  141loPI   C4A 2250  13.788  13.460   9.394 -0.1104  0.1244 -0.1028
  141loPI   C5A 2251  13.833  13.471   8.927 -0.2355  0.1645 -0.0019
  141loPI   C6A 2252  13.760  13.661   8.515  0.0527 -0.1087  0.3192
  141loPI   C1B 2253  14.051  14.110  10.465 -0.0443  0.1242 -0.0208
  141loPI   C2B 2254  14.027  14.050  10.018  0.1573  0.0319 -0.0381
  141loPI   C3B 2255  13.999  13.929   9.575 -0.1476 -0.1812 -0.1644
  141loPI   C4B 2256  13.957  13.881   9.117  0.1860 -0.6920 -0.0438
  142loPI    C1 2257   4.895   9.014  11.813  0.0004 -0.1070  0.1484
  142loPI    C2 2258   4.917   9.322  12.068 -0.0971  0.0938 -0.0820
  142loPI    C3 2259   4.770   8.971  12.191  0.1042  0.1082  0.2092
  142loPI   PO4 2260   4.925   9.096  11.555  0.1602  0.4691  0.0563
  142loPI   GL1 2261   4.727   9.046  11.222  0.0686  0.1606 -0.1684
  142loPI   GL2 2262   4.414   8.867  11.282  0.1159  0.1877 -0.1479
  142loPI   C1A 2263   4.596   8.974  10.795  0.1511 -0.0711 -0.3037
  142loPI   C2A 2264   4.660   9.201  10.484  0.2551  0.2112  0.1388
  142loPI   C3A 2265   4.718   9.113  10.016  0.0218 -0.0331  0.0048
  142loPI   C4A 2266   4.737   9.068   9.547  0.0933 -0.0627 -0.2477
  142loPI   C5A 2267   4.811   9.079   9.172  0.0900  0.2456  0.1177
  142loPI   C6A 2268   5.085   9.040   8.984 -0.0634 -0.1572  0.1476
  142loPI   C1B 2269   4.119   8.783  10.974  0.0346 -0.0298 -0.1584
  142loPI   C2B 2270   4.075   8.664  10.530 -0.0943 -0.1329  0.0205
  142loPI   C3B 2271   4.083   8.544  10.052  0.0856 -0.4222  0.0553
  142loPI   C4B 2272   4.164   8.579   9.579 -0.1443 -0.1601  0.0968
  143loPI    C1 2273  12.779  14.053  11.628  0.0425 -0.1277 -0.1859
  143loPI    C2 2274  12.889  13.916  11.988 -0.1142 -0.0606 -0.1119
  143loPI    C3 2275  12.735  14.284  11.952 -0.0878 -0.0627 -0.2493
  143loPI   PO4 2276  12.972  13.940  11.478  0.2790 -0.0145 -0.0922
  143loPI   GL1 2277  13.318  14.090  11.318  0.0207  0.0742  0.1819
  143loPI   GL2 2278  13.132  14.287  11.095 -0.0537  0.0164 -0.4584
  143loPI   C1A 2279  13.520  13.994  10.821 -0.0559  0.2760  0.1057
  143loPI   C2A 2280  13.522  13.974  10.346  0.0892 -0.0442 -0.1424
  143loPI   C3A 2281  13.538  13.945   9.938  0.0665 -0.0416 -0.0194
  143loPI   C4A 2282  13.475  13.891   9.525  0.0825  0.3705 -0.0494
  143loPI   C5A 2283  13.361  13.766   9.084 -0.1043 -0.1652  0.0891
  143loPI   C6A 2284  13.179  13.827   8.720 -0.0466  0.0158  0.0850
  143loPI   C1B 2285  13.216  14.381  10.758  0.0193  0.0269 -0.0295
  143loPI   C2B 2286  13.208  14.324  10.229  0.1103  0.1038 -0.4077
  143loPI   C3B 2287  13.165  14.344   9.804 -0.0069 -0.0433 -0.2495
  143loPI   C4B 2288  13.202  14.275   9.284  0.1469  0.1999 -0.2316
  144loPI    C1 2289  12.966   6.493  11.797 -0.0574 -0.0485  0.0243
  144loPI    C2 2290  12.582   6.385  11.823 -0.1023  0.0427 -0.2312
  144loPI    C3 2291  12.870   6.111  11.865 -0.1879  0.0047  0.1460
  144loPI   PO4 2292  12.990   6.621  11.533  0.1297  0.2165  0.0898
  144loPI   GL1 2293  13.096   6.559  11.180  0.0433  0.4794  0.1235
  144loPI   GL2 2294  12.846   6.470  10.991 -0.0648 -0.3393 -0.0159
  144loPI   C1A 2295  13.336   6.485  10.836 -0.0958  0.1568  0.1158
  144loPI   C2A 2296  13.317   6.515  10.400  0.1120 -0.0743 -0.0214
  144loPI   C3A 2297  13.308   6.458  10.028 -0.0228  0.3974 -0.1745
  144loPI   C4A 2298  13.240   6.480   9.620 -0.0432  0.2278  0.2155
  144loPI   C5A 2299  13.252   6.469   9.153  0.1516  0.3632  0.0790
  144loPI   C6A 2300  13.175   6.505   8.660 -0.1510  0.3143 -0.0179
  144loPI   C1B 2301  12.813   6.390  10.549  0.0119 -0.1448  0.1979
  144loPI   C2B 2302  12.783   6.387  10.102 -0.1983  0.2202  0.1382
  144loPI   C3B 2303  12.749   6.366   9.663  0.1006 -0.0159 -0.0499
  144loPI   C4B 2304  12.730   6.428   9.176 -0.1963  0.0808  0.0085
  145loPI    C1 2305   8.628   4.187  11.814  0.0492 -0.0154  0.1885
  145loPI    C2 2306   8.280   4.245  12.004  0.1116  0.2492  0.2261
  145loPI    C3 2307   8.552   3.994  12.156 -0.1013 -0.0360  0.1441
  145loPI   PO4 2308   8.650   4.160  11.567  0.4420 -0.3374 -0.1466
  145loPI   GL1 2309   8.565   4.346  11.270 -0.0713 -0.0694 -0.1505
  145loPI   GL2 2310   8.811   4.600  11.148 -0.1755 -0.0755 -0.1400
  145loPI   C1A 2311   8.469   4.382  10.891 -0.1485 -0.1411  0.0028
  145loPI   C2A 2312   8.295   4.133  10.608 -0.2153  0.3645  0.0146
  145loPI   C3A 2313   8.203   4.145  10.166  0.0674 -0.0165  0.0633
  145loPI   C4A 2314   8.238   4.216   9.675 -0.0299 -0.2263  0.0512
  145loPI   C5A 2315   8.236   4.104   9.296 -0.0838  0.0125  0.1581
  145loPI   C6A 2316   8.203   4.289   8.918  0.0012  0.0424  0.0728
  145loPI   C1B 2317   8.944   4.750  10.749  0.3249 -0.2216 -0.0004
  145loPI   C2B 2318   8.861   4.862  10.317 -0.0618 -0.0772 -0.0782
  145loPI   C3B 2319   8.985   4.782   9.964  0.4061 -0.0714  0.0884
  145loPI   C4B 2320   8.962   4.733   9.495 -0.1814 -0.0526 -0.0896
  146loPI    C1 2321  10.950   1.075  11.832 -0.0254 -0.2236 -0.0599
  146loPI    C2 2322  11.170   1.090  12.166  0.2197  0.1421 -0.2317
  146loPI    C3 2323  10.773   1.135  12.186  0.1910 -0.1933  0.0447
  146loPI   PO4 2324  10.990   1.223  11.663  0.0660  0.0771  0.0241
  146loPI   GL1 2325  10.889   1.408  11.242 -0.2707  0.0075 -0.1901
  146loPI   GL2 2326  11.146   1.528  11.138 -0.1742  0.0579 -0.2362
  146loPI   C1A 2327  10.714   1.456  10.820 -0.2516  0.1929 -0.0763
  146loPI   C2A 2328  10.443   1.374  10.470  0.0321 -0.3634  0.0070
  146loPI   C3A 2329  10.434   1.382  10.059  0.3010 -0.0899  0.2576
  146loPI   C4A 2330  10.558   1.310   9.658  0.0501 -0.0500  0.3741
  146loPI   C5A 2331  10.583   1.243   9.213 -0.0112  0.0056  0.1992
  146loPI   C6A 2332  10.796   1.262   8.869  0.2417  0.1508  0.3260
  146loPI   C1B 2333  11.181   1.614  10.672 -0.3054 -0.1037 -0.0363
  146loPI   C2B 2334  11.073   1.531  10.313  0.0532 -0.1645 -0.0633
  146loPI   C3B 2335  10.969   1.421   9.940  0.1934  0.0889 -0.2526
  146loPI   C4B 2336  11.031   1.414   9.563 -0.1397 -0.0163  0.1110
  147loPI    C1 2337   3.430   3.445  11.621 -0.1099 -0.0487 -0.1847
  147loPI    C2 2338   3.168   3.501  11.918 -0.1432 -0.1742 -0.1898
  147loPI    C3 2339   3.478   3.253  11.969  0.0311  0.0492 -0.1496
  147loPI   PO4 2340   3.297   3.448  11.407  0.0024 -0.3310  0.0214
  147loPI   GL1 2341   3.328   3.354  10.880  0.0400  0.0992 -0.1854
  147loPI   GL2 2342   3.451   3.747  10.808 -0.1092 -0.0378 -0.2257
  147loPI   C1A 2343   3.082   3.353  10.449  0.0152 -0.0346 -0.2056
  147loPI   C2A 2344   3.255   3.240  10.120  0.2237 -0.0567 -0.0398
  147loPI   C3A 2345   3.171   3.168   9.718  0.1183  0.0620 -0.0005
  147loPI   C4A 2346   3.117   3.126   9.329  0.1222 -0.0264 -0.0531
  147loPI   C5A 2347   3.231   3.131   8.875  0.1653  0.0021 -0.0597
  147loPI   C6A 2348   3.381   2.855   8.473  0.1054  0.0320 -0.3765
  147loPI   C1B 2349   3.489   3.729  10.327  0.1172 -0.0841  0.0408
  147loPI   C2B 2350   3.389   3.675   9.915 -0.0271  0.0405  0.1985
  147loPI   C3B 2351   3.287   3.664   9.506 -0.1734 -0.0322 -0.1742
  147loPI   C4B 2352   3.370   3.591   9.020 -0.0639  0.2469 -0.2894
  148loPI    C1 2353   4.560   1.159  11.246  0.0332 -0.1327 -0.1118
  148loPI    C2 2354   4.321   1.030  11.540 -0.1305 -0.0437 -0.2047
  148loPI    C3 2355   4.437   1.413  11.530  0.2402 -0.1462 -0.0080
  148loPI   PO4 2356   4.537   1.111  11.083 -0.5498  0.3461 -0.3312
  148loPI   GL1 2357   4.711   1.242  10.754 -0.3747 -0.0822 -0.0262
  148loPI   GL2 2358   4.452   1.289  10.626 -0.2598  0.0378 -0.2749
  148loPI   C1A 2359   4.899   1.293  10.357 -0.2739  0.0259  0.0564
  148loPI   C2A 2360   4.922   1.188   9.910  0.0556  0.1091 -0.0384
  148loPI   C3A 2361   4.828   1.249   9.476 -0.2045 -0.2693 -0.1375
  148loPI   C4A 2362   4.853   1.298   8.991 -0.1338 -0.0224  0.1089
  148loPI   C5A 2363   4.970   1.380   8.630  0.1035  0.2111  0.1065
  148loPI   C6A 2364   4.905   1.629   8.238  0.2487 -0.1510 -0.1740
  148loPI   C1B 2365   4.468   1.111  10.165 -0.1941 -0.0249  0.1645
  148loPI   C2B 2366   4.387   1.147   9.712  0.0994  0.0678 -0.0753
  148loPI   C3B 2367   4.333   1.247   9.310  0.2900  0.4144  0.1762
  148loPI   C4B 2368   4.309   1.321   8.878  0.1820  0.1406 -0.2390
  149loPI    C1 2369   5.424   3.340  11.521  0.0535 -0.0836 -0.0641
  149loPI    C2 2370   5.090   3.559  11.526  0.0638 -0.0657 -0.1386
  149loPI    C3 2371   5.328   3.549  11.848  0.0779  0.0551 -0.1447
  149loPI   PO4 2372   5.481   3.375  11.354 -0.4276 -0.1466  0.2584
  149loPI   GL1 2373   5.548   3.329  10.965 -0.2608 -0.0723  0.1350
  149loPI   GL2 2374   5.153   3.208  10.941  0.0423 -0.0262  0.2936
  149loPI   C1A 2375   5.566   3.264  10.526 -0.0181 -0.0173 -0.1657
  149loPI   C2A 2376   5.624   3.299  10.099  0.2716 -0.1599  0.3260
  149loPI   C3A 2377   5.607   3.207   9.712 -0.0999 -0.2790 -0.1468
  149loPI   C4A 2378   5.451   3.164   9.342 -0.0660 -0.0590 -0.0183
  149loPI   C5A 2379   5.609   3.151   8.941  0.4543 -0.2155 -0.2193
  149loPI   C6A 2380   5.318   2.984   8.566  0.5798  0.2146 -0.1695
  149loPI   C1B 2381   5.096   3.200  10.473 -0.0182 -0.0242  0.1717
  149loPI   C2B 2382   5.117   3.178  10.010  0.3741  0.1040 -0.3153
  149loPI   C3B 2383   5.035   3.043   9.637 -0.1061 -0.1218 -0.1324
  149loPI   C4B 2384   5.018   3.159   9.181  0.1523  0.0978 -0.1298
  150loPI    C1 2385  17.107   5.417  11.678 -0.0702 -0.0417 -0.0734
  150loPI    C2 2386  17.334   5.424  12.007 -0.1671 -0.1107 -0.0044
  150loPI    C3 2387  16.936   5.442  12.038 -0.1671  0.1748 -0.1329
  150loPI   PO4 2388  17.267   5.626  11.540  0.1031  0.1444 -0.0791
  150loPI   GL1 2389  17.306   5.682  11.069 -0.1081 -0.2069 -0.0591
  150loPI   GL2 2390  17.438   5.430  10.954  0.2128 -0.1840  0.0500
  150loPI   C1A 2391  17.257   5.861  10.724  0.0038  0.1212  0.0514
  150loPI   C2A 2392  17.371   5.776  10.247 -0.2594  0.1139  0.0856
  150loPI   C3A 2393  17.259   5.755   9.808 -0.0731 -0.0541  0.0771
  150loPI   C4A 2394  17.267   5.826   9.416  0.0296 -0.2701 -0.0724
  150loPI   C5A 2395  17.351   6.032   8.952  0.0130  0.4362 -0.3847
  150loPI   C6A 2396  17.278   6.106   8.478 -0.2065 -0.2005  0.2387
  150loPI   C1B 2397  17.663   5.387  10.587  0.0827  0.0475 -0.0651
  150loPI   C2B 2398  17.768   5.421  10.239  0.2224 -0.4301  0.0321
  150loPI   C3B 2399  17.626   5.349   9.762  0.0278 -0.1470  0.1814
  150loPI   C4B 2400  17.622   5.420   9.290  0.2799  0.0753  0.0991
  151loPI    C1 2401  14.154  17.115  11.461 -0.2019  0.0710  0.1147
  151loPI    C2 2402  14.434  16.850  11.570 -0.0516  0.1881  0.0177
  151loPI    C3 2403  14.345  17.157  11.810 -0.1201  0.1332  0.0629
  151loPI   PO4 2404  14.071  16.997  11.256 -0.2228  0.2591  0.0939
  151loPI   GL1 2405  14.022  16.735  10.950 -0.0900  0.2429 -0.0920
  151loPI   GL2 2406  13.916  16.402  10.927 -0.1224  0.1014 -0.0828
  151loPI   C1A 2407  14.120  16.831  10.514 -0.0835 -0.0094  0.0545
  151loPI   C2A 2408  14.092  16.744  10.123 -0.4691  0.1294 -0.2939
  151loPI   C3A 2409  14.061  16.713   9.718  0.1551  0.2727 -0.0829
  151loPI   C4A 2410  14.062  16.591   9.302 -0.1049 -0.1159 -0.2990
  151loPI   C5A 2411  13.872  16.644   8.928  0.1428 -0.0124 -0.1418
  151loPI   C6A 2412  13.908  16.434   8.501 -0.0237  0.0035 -0.0583
  151loPI   C1B 2413  13.981  16.263  10.519 -0.0934  0.0390  0.0481
  151loPI   C2B 2414  13.941  16.233  10.151  0.0296  0.1417 -0.0379
  151loPI   C3B 2415  13.911  16.196   9.688 -0.2194  0.3009  0.0280
  151loPI   C4B 2416  13.910  16.146   9.255  0.0144  0.2551 -0.1008
  152loPI    C1 2417   5.153  12.758  11.733  0.3454 -0.0494 -0.0838
  152loPI    C2 2418   4.902  12.749  11.421  0.2190 -0.1939  0.0211
  152loPI    C3 2419   5.070  12.411  11.553  0.3088 -0.1265  0.0808
  152loPI   PO4 2420   5.276  12.987  11.670 -0.0860  0.0387 -0.3340
  152loPI   GL1 2421   5.342  12.969  11.217 -0.0847 -0.4313  0.0360
  152loPI   GL2 2422   5.729  13.006  11.195 -0.1188 -0.1343 -0.1096
  152loPI   C1A 2423   5.121  12.830  10.807 -0.0501  0.0550  0.1437
  152loPI   C2A 2424   5.181  12.830  10.365 -0.0652  0.1876  0.0639
  152loPI   C3A 2425   5.055  12.804   9.936  0.2104  0.0131  0.0103
  152loPI   C4A 2426   5.074  12.829   9.517 -0.1379  0.3639  0.1205
  152loPI   C5A 2427   5.251  12.825   9.116  0.0146  0.0376 -0.1350
  152loPI   C6A 2428   5.656  12.528   8.898  0.1209 -0.1385 -0.1467
  152loPI   C1B 2429   5.639  12.959  10.750  0.0010  0.0767 -0.0020
  152loPI   C2B 2430   5.669  12.850  10.263  0.1231 -0.2106  0.0902
  152loPI   C3B 2431   5.556  12.913   9.864  0.0729 -0.0819 -0.0144
  152loPI   C4B 2432   5.614  12.877   9.442 -0.0336 -0.1255 -0.0627
  153loPI    C1 2433   4.827   4.593  11.499  0.2077 -0.2782 -0.1360
  153loPI    C2 2434   4.970   4.787  11.818  0.1742 -0.1643 -0.1897
  153loPI    C3 2435   4.735   4.467  11.867 -0.0774  0.0309 -0.0964
  153loPI   PO4 2436   5.048   4.659  11.287  0.1253  0.0098  0.0341
  153loPI   GL1 2437   5.066   4.524  10.860  0.1947  0.1446  0.0721
  153loPI   GL2 2438   4.767   4.372  10.993  0.1982  0.1493  0.1183
  153loPI   C1A 2439   5.074   4.486  10.383 -0.1286  0.4345 -0.2203
  153loPI   C2A 2440   5.065   4.528   9.926  0.1620 -0.2553  0.0632
  153loPI   C3A 2441   5.065   4.500   9.515  0.2072  0.3001  0.0538
  153loPI   C4A 2442   5.148   4.655   9.046  0.1900  0.0571 -0.2352
  153loPI   C5A 2443   5.248   4.378   8.721  0.1532 -0.1618  0.0736
  153loPI   C6A 2444   5.431   3.931   8.780  0.1533  0.2421  0.1960
  153loPI   C1B 2445   4.628   4.398  10.527  0.3118  0.0989 -0.1431
  153loPI   C2B 2446   4.554   4.456  10.057 -0.0451 -0.3887 -0.3654
  153loPI   C3B 2447   4.546   4.375   9.632  0.0561  0.0458  0.0770
  153loPI   C4B 2448   4.670   4.514   9.158  0.0204  0.2299 -0.1007
  154loPI    C1 2449   4.541  13.538  11.894 -0.0900 -0.0840  0.1403
  154loPI    C2 2450   4.688  13.765  12.189 -0.2645 -0.1840  0.3062
  154loPI    C3 2451   4.784  13.378  12.168 -0.0406 -0.1181  0.0766
  154loPI   PO4 2452   4.625  13.681  11.667 -0.2113  0.3325 -0.2340
  154loPI   GL1 2453   4.772  13.674  11.199 -0.0644  0.1383  0.1133
  154loPI   GL2 2454   4.496  13.695  11.053  0.1384 -0.0774 -0.4536
  154loPI   C1A 2455   5.014  13.713  10.709  0.0545 -0.0851  0.3081
  154loPI   C2A 2456   4.987  13.712  10.234 -0.0136  0.0683  0.1499
  154loPI   C3A 2457   4.919  13.653   9.816 -0.0455 -0.2273  0.0235
  154loPI   C4A 2458   4.845  13.636   9.441 -0.1482 -0.0196 -0.1845
  154loPI   C5A 2459   4.932  13.644   8.981  0.0923  0.1481  0.0516
  154loPI   C6A 2460   4.635  13.601   8.624 -0.2346  0.0363 -0.1216
  154loPI   C1B 2461   4.544  13.683  10.544  0.2355  0.2064  0.2346
  154loPI   C2B 2462   4.490  13.581  10.091  0.0604  0.1078 -0.0163
  154loPI   C3B 2463   4.403  13.555   9.626  0.1585 -0.2953 -0.0596
  154loPI   C4B 2464   4.389  13.560   9.153  0.0740 -0.0857 -0.1891
  155loPI    C1 2465   1.863   5.547  11.723  0.0547 -0.1019  0.0747
  155loPI    C2 2466   1.519   5.603  11.920 -0.2343 -0.1311 -0.4070
  155loPI    C3 2467   1.773   5.318  12.038 -0.2895  0.0051  0.0586
  155loPI   PO4 2468   1.771   5.552  11.416  0.1266  0.2664  0.0391
  155loPI   GL1 2469   1.887   5.361  11.100 -0.1498 -0.2672 -0.2580
  155loPI   GL2 2470   2.159   5.201  10.933 -0.2638  0.1211 -0.3370
  155loPI   C1A 2471   1.615   5.247  10.708 -0.0503  0.2349  0.1600
  155loPI   C2A 2472   1.514   5.205  10.223  0.0453 -0.2435  0.1933
  155loPI   C3A 2473   1.503   5.180   9.832  0.0309  0.0892 -0.1237
  155loPI   C4A 2474   1.477   5.150   9.419 -0.0773 -0.1032  0.0278
  155loPI   C5A 2475   1.614   5.110   8.992 -0.3233 -0.0831  0.0780
  155loPI   C6A 2476   1.682   4.952   8.542 -0.2868 -0.4793 -0.0767
  155loPI   C1B 2477   2.053   5.394  10.492  0.2438 -0.1210 -0.2626
  155loPI   C2B 2478   2.067   5.372  10.070  0.1513  0.1657  0.2043
  155loPI   C3B 2479   1.963   5.265   9.659 -0.2576  0.1408 -0.0922
  155loPI   C4B 2480   2.027   5.165   9.259 -0.0707 -0.1192  0.2271
  156loPI    C1 2481   9.595   9.241  11.937 -0.1115  0.2139  0.0901
  156loPI    C2 2482   9.792   9.420  11.638  0.2931 -0.4565 -0.0653
  156loPI    C3 2483   9.951   9.411  12.005  0.0195 -0.0474  0.0701
  156loPI   PO4 2484   9.510   8.997  11.825 -0.1175  0.1497 -0.1000
  156loPI   GL1 2485   9.602   9.019  11.356  0.1052  0.1491 -0.1026
  156loPI   GL2 2486   9.483   8.869  11.325  0.2233  0.2761 -0.1122
  156loPI   C1A 2487   9.855   9.099  10.993  0.0514  0.1396  0.2443
  156loPI   C2A 2488   9.899   9.015  10.596 -0.0313 -0.0891 -0.0599
  156loPI   C3A 2489   9.926   9.149  10.189 -0.0260 -0.1648  0.0811
  156loPI   C4A 2490   9.994   9.149   9.680  0.2559 -0.0320 -0.0431
  156loPI   C5A 2491  10.006   9.124   9.195 -0.0355  0.3230 -0.0947
  156loPI   C6A 2492  10.186   9.049   8.797 -0.2858  0.2248 -0.0925
  156loPI   C1B 2493   9.433   8.949  10.739 -0.2298 -0.3695  0.0110
  156loPI   C2B 2494   9.384   9.019  10.326  0.2497  0.0615 -0.2866
  156loPI   C3B 2495   9.453   8.999   9.885 -0.2594  0.4817 -0.0499
  156loPI   C4B 2496   9.510   9.021   9.395 -0.2030  0.0645 -0.0171
  157loPI    C1 2497   7.012   4.901  11.665  0.1330  0.1646 -0.1043
  157loPI    C2 2498   6.736   4.822  11.942  0.0807  0.0160 -0.1973
  157loPI    C3 2499   7.123   4.823  12.041  0.0508  0.1833 -0.0761
  157loPI   PO4 2500   6.961   4.834  11.515  0.0473  0.0387  0.2512
  157loPI   GL1 2501   6.949   4.817  11.060 -0.2158 -0.0472  0.0176
  157loPI   GL2 2502   6.635   4.872  10.926  0.2742 -0.0782  0.1686
  157loPI   C1A 2503   7.053   4.934  10.598  0.0587  0.0710 -0.0430
  157loPI   C2A 2504   7.073   4.910  10.175  0.1142 -0.0604 -0.1650
  157loPI   C3A 2505   7.136   4.970   9.834 -0.0273  0.0026 -0.2655
  157loPI   C4A 2506   7.153   4.885   9.437  0.1357 -0.1485 -0.0419
  157loPI   C5A 2507   7.160   4.754   9.033 -0.0319  0.1233 -0.0869
  157loPI   C6A 2508   7.361   4.638   8.565  0.2931  0.4064  0.1876
  157loPI   C1B 2509   6.565   4.833  10.547 -0.0648  0.2659 -0.4118
  157loPI   C2B 2510   6.597   4.789  10.118 -0.0615 -0.0939  0.2466
  157loPI   C3B 2511   6.618   4.802   9.657  0.0403  0.1567  0.1845
  157loPI   C4B 2512   6.571   4.743   9.256  0.0745  0.1091  0.1180
  158loPI    C1 2513  12.807  13.490  11.561 -0.3491 -0.4060 -0.1055
  158loPI    C2 2514  12.539  13.524  11.857  0.0724 -0.0608  0.2494
  158loPI    C3 2515  12.872  13.309  11.912  0.1642  0.0231  0.0337
  158loPI   PO4 2516  12.738  13.471  11.404 -0.0010 -0.2175  0.4279
  158loPI   GL1 2517  12.504  13.691  10.978  0.0081  0.2530  0.1494
  158loPI   GL2 2518  12.856  13.839  10.999 -0.0376  0.3864 -0.0595
  158loPI   C1A 2519  12.507  13.700  10.601 -0.1050 -0.0104  0.1574
  158loPI   C2A 2520  12.539  13.758  10.186 -0.2206  0.1399  0.2328
  158loPI   C3A 2521  12.508  13.758   9.722  0.2250 -0.1417 -0.1579
  158loPI   C4A 2522  12.489  13.770   9.324 -0.3670 -0.0987  0.0504
  158loPI   C5A 2523  12.765  13.723   8.926  0.0551  0.1204  0.5133
  158loPI   C6A 2524  12.786  13.503   8.594 -0.3300  0.0749 -0.2604
  158loPI   C1B 2525  13.057  13.919  10.636  0.0066  0.0791 -0.0525
  158loPI   C2B 2526  13.040  13.827  10.163  0.0210  0.0356 -0.1919
  158loPI   C3B 2527  13.015  13.869   9.784  0.0760 -0.1628  0.0461
  158loPI   C4B 2528  12.979  13.827   9.416 -0.0247 -0.1802  0.2262
  159loPI    C1 2529   7.339   3.465  11.839  0.1054  0.1712 -0.1064
  159loPI    C2 2530   7.051   3.347  12.090 -0.0875  0.2197 -0.3024
  159loPI    C3 2531   7.416   3.185  12.114 -0.0956  0.2442  0.0261
  159loPI   PO4 2532   7.197   3.586  11.652  0.0941 -0.1485  0.1067
  159loPI   GL1 2533   7.342   3.723  11.226  0.1463  0.0128 -0.2960
  159loPI   GL2 2534   7.316   4.021  11.055 -0.0921 -0.3135 -0.0651
  159loPI   C1A 2535   7.614   3.644  10.872 -0.1553 -0.1851 -0.0348
  159loPI   C2A 2536   7.602   3.659  10.431  0.0599  0.3168 -0.2029
  159loPI   C3A 2537   7.585   3.672  10.080 -0.1065 -0.2476 -0.1179
  159loPI   C4A 2538   7.540   3.637   9.614  0.0768 -0.0291  0.2359
  159loPI   C5A 2539   7.491   3.569   9.212 -0.0995 -0.1830  0.1761
  159loPI   C6A 2540   7.617   3.511   8.795  0.3912  0.4255  0.0153
  159loPI   C1B 2541   7.253   4.040  10.718 -0.0723  0.0420 -0.1134
  159loPI   C2B 2542   7.256   4.069  10.278  0.0746 -0.1620 -0.1295
  159loPI   C3B 2543   7.207   4.038   9.933 -0.1238  0.1310  0.1489
  159loPI   C4B 2544   7.209   4.003   9.530  0.1803 -0.1468 -0.2602
  160loPI    C1 2545   2.164  13.175  11.560 -0.2374 -0.0783 -0.0967
  160loPI    C2 2546   1.790  13.116  11.688 -0.1640 -0.1785  0.0741
  160loPI    C3 2547   2.085  13.172  11.952 -0.0630 -0.0690 -0.0609
  160loPI   PO4 2548   2.116  13.061  11.297  0.0657  0.0137  0.1993
  160loPI   GL1 2549   1.930  13.177  10.906  0.1872  0.3348  0.0496
  160loPI   GL2 2550   2.272  13.373  10.879  0.0309 -0.0721 -0.1681
  160loPI   C1A 2551   1.868  13.332  10.459 -0.0961  0.2503  0.1005
  160loPI   C2A 2552   1.839  13.173  10.038  0.2558  0.1512  0.0378
  160loPI   C3A 2553   1.870  13.145   9.649 -0.0827  0.2810 -0.3207
  160loPI   C4A 2554   1.896  13.197   9.276  0.2171  0.0408 -0.0230
  160loPI   C5A 2555   1.887  13.217   8.893  0.0925 -0.0606 -0.0042
  160loPI   C6A 2556   1.576  13.333   8.500  0.1301 -0.2414 -0.0529
  160loPI   C1B 2557   2.431  13.295  10.430  0.2067 -0.1130 -0.0557
  160loPI   C2B 2558   2.346  13.348   9.988 -0.2155 -0.2622  0.3324
  160loPI   C3B 2559   2.375  13.314   9.561 -0.3037 -0.2548  0.0740
  160loPI   C4B 2560   2.369  13.088   9.260  0.0476  0.4514 -0.0473
  161loPI    C1 2561   0.935   9.135  12.020 -0.0763  0.0987  0.1235
  161loPI    C2 2562   0.874   9.516  12.126  0.2502  0.1745  0.0515
  161loPI    C3 2563   0.574   9.252  12.145  0.0123  0.4415  0.0688
  161loPI   PO4 2564   1.037   9.146  11.838 -0.0126  0.0203 -0.4224
  161loPI   GL1 2565   1.095   9.192  11.434 -0.0087  0.0546 -0.0824
  161loPI   GL2 2566   1.023   8.912  11.350 -0.0250 -0.0969 -0.0487
  161loPI   C1A 2567   1.173   9.310  10.982  0.0849  0.2963  0.0463
  161loPI   C2A 2568   1.070   9.318  10.571 -0.2501  0.2705 -0.1737
  161loPI   C3A 2569   1.054   9.308  10.159  0.1553 -0.2985 -0.0658
  161loPI   C4A 2570   1.016   9.300   9.746 -0.0453 -0.0142  0.0934
  161loPI   C5A 2571   1.066   9.386   9.340 -0.2053 -0.0337 -0.1769
  161loPI   C6A 2572   1.395   9.336   8.979  0.0224  0.0222  0.0438
  161loPI   C1B 2573   0.987   8.797  10.891  0.2516  0.0406  0.2116
  161loPI   C2B 2574   0.932   8.849  10.465 -0.2369  0.1204 -0.0347
  161loPI   C3B 2575   0.911   8.831   9.981  0.1741 -0.0150  0.0592
  161loPI   C4B 2576   0.815   8.803   9.548  0.0264 -0.2511 -0.2355
  162loPI    C1 2577   9.706   6.461  11.809 -0.1783 -0.0616  0.1035
  162loPI    C2 2578   9.398   6.205  11.795 -0.0928 -0.1537 -0.1564
  162loPI    C3 2579   9.756   6.081  11.923 -0.1126 -0.0983 -0.0457
  162loPI   PO4 2580   9.754   6.588  11.613 -0.0153 -0.0549  0.0715
  162loPI   GL1 2581   9.744   6.732  11.234 -0.1166 -0.1401 -0.1975
  162loPI   GL2 2582   9.728   6.526  11.036  0.2034 -0.0926 -0.3517
  162loPI   C1A 2583  10.049   6.823  10.832  0.0768  0.1407  0.1194
  162loPI   C2A 2584  10.119   6.836  10.481  0.3197  0.1743  0.1272
  162loPI   C3A 2585  10.186   6.773  10.029  0.1541 -0.0869  0.0625
  162loPI   C4A 2586  10.173   6.874   9.571  0.1474  0.1787 -0.0956
  162loPI   C5A 2587  10.247   6.804   9.108  0.1644 -0.1198 -0.4685
  162loPI   C6A 2588  10.135   6.825   8.688  0.3017  0.0429  0.1623
  162loPI   C1B 2589   9.602   6.711  10.656  0.0152  0.2015  0.0201
  162loPI   C2B 2590   9.658   6.750  10.248  0.3133 -0.0305  0.0386
  162loPI   C3B 2591   9.621   6.807   9.868 -0.1503 -0.1682 -0.2634
  162loPI   C4B 2592   9.621   6.712   9.444  0.0011 -0.3202 -0.2150
  163loPI    C1 2593  13.420   2.436  11.791  0.0651  0.0142 -0.0464
  163loPI    C2 2594  13.494   2.753  12.023 -0.0879  0.0134  0.0046
  163loPI    C3 2595  13.156   2.545  12.071 -0.0897 -0.0265 -0.1751
  163loPI   PO4 2596  13.433   2.470  11.577 -0.1726  0.0573  0.2100
  163loPI   GL1 2597  13.555   2.277  11.201  0.1152  0.0889 -0.2127
  163loPI   GL2 2598  13.442   2.558  11.101 -0.0649  0.0952 -0.2094
  163loPI   C1A 2599  13.628   1.999  10.839 -0.1761  0.2600 -0.2632
  163loPI   C2A 2600  13.630   1.937  10.365  0.0757 -0.2702  0.1375
  163loPI   C3A 2601  13.538   1.882   9.889 -0.0731  0.1843 -0.0153
  163loPI   C4A 2602  13.576   1.944   9.407  0.0686  0.2159 -0.2212
  163loPI   C5A 2603  13.512   1.868   9.038 -0.1144 -0.1849  0.4461
  163loPI   C6A 2604  13.570   1.617   8.631 -0.0988  0.0816  0.3464
  163loPI   C1B 2605  13.465   2.788  10.703  0.2020 -0.0743 -0.2116
  163loPI   C2B 2606  13.508   2.792  10.220 -0.0655  0.1473  0.1515
  163loPI   C3B 2607  13.339   2.804   9.904  0.0333 -0.1281  0.2843
  163loPI   C4B 2608  13.456   2.797   9.472 -0.1651  0.1323 -0.0230
  164loPI    C1 2609  14.389   4.418  11.784 -0.0816 -0.0615 -0.0186
  164loPI    C2 2610  14.714   4.237  11.638  0.1928  0.1361  0.3305
  164loPI    C3 2611  14.605   4.176  12.018 -0.0604  0.2340  0.2756
  164loPI   PO4 2612  14.285   4.450  11.578  0.2186  0.1071 -0.2027
  164loPI   GL1 2613  14.142   4.747  11.134  0.1388  0.2037 -0.1727
  164loPI   GL2 2614  14.453   4.587  11.148 -0.0360  0.0256  0.2266
  164loPI   C1A 2615  14.161   4.760  10.664 -0.1907 -0.1514  0.4377
  164loPI   C2A 2616  14.126   4.843  10.205 -0.0881 -0.1952 -0.3356
  164loPI   C3A 2617  14.142   4.758   9.770 -0.0939 -0.2139  0.2567
  164loPI   C4A 2618  13.939   4.864   9.412  0.3028  0.1035  0.2461
  164loPI   C5A 2619  13.609   4.893   9.164 -0.0922  0.1469  0.0821
  164loPI   C6A 2620  13.564   4.819   8.728  0.3342 -0.2241  0.2207
  164loPI   C1B 2621  14.478   4.418  10.799 -0.0674  0.0560 -0.0419
  164loPI   C2B 2622  14.500   4.481  10.385  0.0515 -0.0898 -0.2254
  164loPI   C3B 2623  14.508   4.431   9.988 -0.2409 -0.3375 -0.2762
  164loPI   C4B 2624  14.414   4.389   9.541 -0.0371  0.0549  0.3375
  165loPI    C1 2625   2.584  16.605  11.374 -0.1825 -0.0303  0.1667
  165loPI    C2 2626   2.620  16.976  11.229 -0.0548 -0.1304 -0.0624
  165loPI    C3 2627   2.555  16.919  11.620 -0.2010  0.1362 -0.0455
  165loPI   PO4 2628   2.502  16.485  11.189 -0.0543 -0.2689  0.1947
  165loPI   GL1 2629   2.438  16.476  10.804 -0.2437 -0.2875 -0.2702
  165loPI   GL2 2630   2.357  16.159  10.667 -0.2676 -0.2467  0.3252
  165loPI   C1A 2631   2.563  16.567  10.369  0.1279 -0.4018  0.1815
  165loPI   C2A 2632   2.584  16.477   9.976 -0.0565  0.1957  0.0062
  165loPI   C3A 2633   2.660  16.462   9.591 -0.0849 -0.1304 -0.0548
  165loPI   C4A 2634   2.604  16.371   9.192 -0.1349  0.0127 -0.3233
  165loPI   C5A 2635   2.543  16.318   8.797  0.2766  0.2353  0.1393
  165loPI   C6A 2636   2.519  16.027   8.402  0.1216  0.2024  0.3352
  165loPI   C1B 2637   2.516  16.060  10.257  0.1028  0.0082  0.1578
  165loPI   C2B 2638   2.402  16.070   9.800  0.1534  0.0424 -0.0935
  165loPI   C3B 2639   2.553  15.957   9.463  0.1515  0.0593  0.2220
  165loPI   C4B 2640   2.456  15.902   9.090 -0.0674 -0.4866  0.0990
  166loPI    C1 2641   9.506  12.838  11.606 -0.1658 -0.0683  0.0992
  166loPI    C2 2642   9.243  13.042  11.385 -0.0420  0.0092  0.0221
  166loPI    C3 2643   9.269  13.111  11.778 -0.3032 -0.1704  0.0735
  166loPI   PO4 2644   9.564  12.690  11.394 -0.0092  0.0342  0.1128
  166loPI   GL1 2645   9.601  12.651  11.000  0.3591 -0.0808  0.2705
  166loPI   GL2 2646   9.729  12.334  11.083  0.0986  0.0575  0.0995
  166loPI   C1A 2647   9.874  12.746  10.622 -0.0328 -0.1429 -0.0390
  166loPI   C2A 2648   9.811  12.668  10.200 -0.3552 -0.0393  0.0878
  166loPI   C3A 2649   9.783  12.696   9.731 -0.0655 -0.1453 -0.0398
  166loPI   C4A 2650   9.645  12.662   9.304 -0.0838  0.0724  0.1743
  166loPI   C5A 2651   9.420  12.820   9.029  0.1955  0.0382 -0.0657
  166loPI   C6A 2652   9.357  12.846   8.599 -0.2693  0.4072 -0.0372
  166loPI   C1B 2653   9.649  12.297  10.626 -0.0061 -0.0986  0.0864
  166loPI   C2B 2654   9.355  12.651  10.390 -0.1706  0.1305 -0.1584
  166loPI   C3B 2655   9.301  12.576  10.022 -0.0249  0.4701  0.1390
  166loPI   C4B 2656   9.217  12.584   9.556  0.2968 -0.3447 -0.2476
  167loPI    C1 2657  11.810   7.258  11.651  0.0267  0.0583  0.3101
  167loPI    C2 2658  11.451   7.254  11.827 -0.1454  0.0199 -0.0329
  167loPI    C3 2659  11.654   6.913  11.780 -0.0907  0.0329  0.1046
  167loPI   PO4 2660  11.800   7.409  11.402  0.1049 -0.2125 -0.0525
  167loPI   GL1 2661  11.846   7.832  11.048  0.4071 -0.0220 -0.0808
  167loPI   GL2 2662  11.623   7.597  11.026  0.1789 -0.1689  0.3719
  167loPI   C1A 2663  11.827   8.076  10.708 -0.4326 -0.0096 -0.0690
  167loPI   C2A 2664  11.825   8.098  10.232 -0.0053  0.0801  0.0471
  167loPI   C3A 2665  12.023   8.063   9.760 -0.1259  0.2142  0.0033
  167loPI   C4A 2666  12.030   8.034   9.336 -0.1423 -0.0528  0.1207
  167loPI   C5A 2667  12.013   7.948   8.886  0.0065  0.1308 -0.4466
  167loPI   C6A 2668  12.188   8.159   8.543  0.1300  0.2035  0.3996
  167loPI   C1B 2669  11.799   7.598  10.626 -0.0809 -0.0197  0.2415
  167loPI   C2B 2670  11.800   7.579  10.204  0.0695 -0.1027 -0.2645
  167loPI   C3B 2671  11.770   7.661   9.812 -0.1669  0.0771  0.3937
  167loPI   C4B 2672  11.872   7.556   9.364 -0.0883 -0.0433 -0.2067
  168loPI    C1 2673   8.523  16.391  11.762  0.0621 -0.2723 -0.0157
  168loPI    C2 2674   8.884  16.373  11.933  0.0547  0.0390  0.0395
  168loPI    C3 2675   8.585  16.563  12.118 -0.1647 -0.2946  0.0359
  168loPI   PO4 2676   8.430  16.206  11.646 -0.2456 -0.1175 -0.1693
  168loPI   GL1 2677   8.354  16.206  11.241  0.1443  0.0474 -0.0187
  168loPI   GL2 2678   8.058  16.159  11.065 -0.3035 -0.0930  0.0675
  168loPI   C1A 2679   8.417  16.578  10.899 -0.1572  0.0646 -0.0658
  168loPI   C2A 2680   8.305  16.608  10.475  0.1976  0.3496 -0.0050
  168loPI   C3A 2681   8.290  16.544  10.003 -0.2187 -0.0586  0.0994
  168loPI   C4A 2682   8.396  16.579   9.610  0.0575  0.1161 -0.2153
  168loPI   C5A 2683   8.361  16.597   9.179 -0.0853 -0.2311 -0.0376
  168loPI   C6A 2684   8.307  16.733   8.740 -0.1182  0.3188 -0.3612
  168loPI   C1B 2685   8.156  16.222  10.699 -0.0302 -0.0695  0.0871
  168loPI   C2B 2686   8.079  16.097  10.308 -0.1026  0.0493  0.0851
  168loPI   C3B 2687   8.162  16.060   9.861 -0.1370 -0.2142  0.3393
  168loPI   C4B 2688   8.184  16.127   9.436  0.2901  0.0409 -0.1891
  169loPI    C1 2689   4.074   9.023  11.773  0.0852  0.1782  0.1478
  169loPI    C2 2690   4.436   8.855  11.799  0.0440  0.0309 -0.1757
  169loPI    C3 2691   4.205   8.883  12.124  0.2096 -0.1803 -0.0368
  169loPI   PO4 2692   4.071   9.168  11.602  0.0216  0.0995 -0.1397
  169loPI   GL1 2693   4.177   9.330  11.169  0.3779 -0.3450  0.0599
  169loPI   GL2 2694   4.402   9.522  11.122 -0.1589  0.0457  0.1189
  169loPI   C1A 2695   4.204   9.192  10.669 -0.1148  0.0881  0.1262
  169loPI   C2A 2696   4.188   9.064  10.192  0.1506 -0.1770 -0.0212
  169loPI   C3A 2697   4.230   8.999   9.816  0.0035  0.1700 -0.2963
  169loPI   C4A 2698   4.254   9.045   9.313  0.4058 -0.0494  0.0389
  169loPI   C5A 2699   4.319   8.786   9.061 -0.0608 -0.1574 -0.0553
  169loPI   C6A 2700   4.357   8.666   8.602  0.1271  0.0837 -0.0904
  169loPI   C1B 2701   4.414   9.584  10.753 -0.0230 -0.0516  0.1108
  169loPI   C2B 2702   4.453   9.630  10.295 -0.0504  0.0239  0.1959
  169loPI   C3B 2703   4.458   9.486   9.847  0.0691  0.1775  0.1315
  169loPI   C4B 2704   4.321   9.512   9.483  0.0130  0.2046  0.0668
  170loPI    C1 2705   1.956  16.307  11.269 -0.3447 -0.1237  0.2879
  170loPI    C2 2706   2.116  16.606  11.481 -0.0134 -0.1031  0.0165
  170loPI    C3 2707   2.177  16.227  11.592  0.0448 -0.0877  0.0377
  170loPI   PO4 2708   2.023  16.301  11.008  0.1255  0.0229 -0.0598
  170loPI   GL1 2709   1.955  16.437  10.682  0.2639  0.3282 -0.2278
  170loPI   GL2 2710   1.637  16.396  10.570  0.0245 -0.2549 -0.1386
  170loPI   C1A 2711   2.125  16.403  10.221 -0.0285  0.1836  0.0235
  170loPI   C2A 2712   2.079  16.461   9.856  0.2375 -0.3602  0.2246
  170loPI   C3A 2713   2.130  16.339   9.487 -0.0300 -0.2003  0.0492
  170loPI   C4A 2714   2.127  16.279   9.074  0.0087  0.1517  0.2076
  170loPI   C5A 2715   2.013  16.330   8.642 -0.2374  0.1799 -0.0282
  170loPI   C6A 2716   1.723  16.403   8.367 -0.0588  0.2662 -0.0372
  170loPI   C1B 2717   1.645  16.379  10.120  0.0837  0.3710 -0.1969
  170loPI   C2B 2718   1.564  16.275   9.703  0.1200 -0.0700 -0.0999
  170loPI   C3B 2719   1.605  16.176   9.342 -0.1543 -0.1401  0.1667
  170loPI   C4B 2720   1.629  16.278   8.925  0.0144 -0.0879  0.0676
  171loPI    C1 2721  13.296   7.078  11.651  0.0748 -0.0404  0.1550
  171loPI    C2 2722  13.612   7.278  11.794  0.1701 -0.2115  0.1871
  171loPI    C3 2723  13.245   7.434  11.825  0.2683  0.0623  0.0045
  171loPI   PO4 2724  13.319   6.995  11.424  0.1757  0.1783 -0.4633
  171loPI   GL1 2725  13.272   6.995  11.042  0.2605  0.1596  0.0709
  171loPI   GL2 2726  13.575   7.029  10.956 -0.0681 -0.0251 -0.0218
  171loPI   C1A 2727  13.019   6.890  10.685  0.2998  0.1471  0.1544
  171loPI   C2A 2728  12.949   6.837  10.281 -0.0975 -0.1815 -0.0491
  171loPI   C3A 2729  12.979   6.820   9.859 -0.0542 -0.0092 -0.1110
  171loPI   C4A 2730  12.869   6.808   9.421  0.1691 -0.1807 -0.1206
  171loPI   C5A 2731  12.990   6.922   9.054 -0.1125 -0.0965 -0.0172
  171loPI   C6A 2732  12.982   6.937   8.578  0.1571 -0.1284 -0.1144
  171loPI   C1B 2733  13.486   6.943  10.530 -0.2563 -0.0446  0.0320
  171loPI   C2B 2734  13.438   6.924  10.038 -0.0044 -0.2667  0.0579
  171loPI   C3B 2735  13.473   6.933   9.596  0.0423 -0.0984 -0.1862
  171loPI   C4B 2736  13.547   6.924   9.199 -0.1044 -0.0851 -0.1822
  172loPI    C1 2737   6.857   3.928  11.477 -0.1132 -0.1294  0.0372
  172loPI    C2 2738   6.524   3.839  11.680 -0.0493  0.0527  0.2259
  172loPI    C3 2739   6.877   3.844  11.867  0.0277  0.0994  0.0812
  172loPI   PO4 2740   6.860   3.996  11.295  0.1927  0.0901  0.0450
  172loPI   GL1 2741   6.779   3.752  11.004  0.1206  0.1963  0.0319
  172loPI   GL2 2742   6.971   3.579  10.754  0.1097 -0.0175 -0.0073
  172loPI   C1A 2743   6.703   4.016  10.552 -0.1963  0.2751 -0.0467
  172loPI   C2A 2744   6.705   3.927  10.157 -0.2050  0.0700  0.0922
  172loPI   C3A 2745   6.704   3.882   9.652  0.1871  0.1170 -0.2027
  172loPI   C4A 2746   6.748   3.863   9.220  0.0346  0.1763 -0.1339
  172loPI   C5A 2747   7.095   3.832   8.998 -0.1613  0.2337 -0.0378
  172loPI   C6A 2748   7.368   4.056   8.664  0.2612 -0.2316  0.0034
  172loPI   C1B 2749   7.032   3.569  10.307 -0.2436 -0.0180  0.1192
  172loPI   C2B 2750   7.121   3.505   9.800  0.3082 -0.0395 -0.1106
  172loPI   C3B 2751   6.993   3.374   9.431 -0.1018 -0.2498  0.0441
  172loPI   C4B 2752   7.133   3.325   8.951  0.1449  0.1817  0.2790
  173loPI    C1 2753  13.072  11.987  11.618 -0.0735 -0.1774  0.0460
  173loPI    C2 2754  12.892  12.219  11.890  0.1634  0.0492  0.0142
  173loPI    C3 2755  13.104  11.900  12.007 -0.1474 -0.1451  0.0594
  173loPI   PO4 2756  13.056  12.176  11.400  0.0628  0.0839 -0.2589
  173loPI   GL1 2757  12.975  12.077  11.025 -0.1695 -0.0564  0.0996
  173loPI   GL2 2758  13.306  12.092  10.869  0.0681  0.0342 -0.1443
  173loPI   C1A 2759  12.802  12.044  10.609 -0.0607 -0.0066 -0.1277
  173loPI   C2A 2760  12.848  12.020  10.249  0.1281 -0.2270 -0.3695
  173loPI   C3A 2761  12.817  11.976   9.844 -0.0912 -0.0108  0.2575
  173loPI   C4A 2762  12.802  11.944   9.379 -0.0276 -0.1126  0.0441
  173loPI   C5A 2763  12.729  11.950   8.996 -0.1426 -0.0441 -0.2916
  173loPI   C6A 2764  12.643  12.092   8.578 -0.0481  0.0259  0.0800
  173loPI   C1B 2765  13.321  12.096  10.427  0.1468 -0.1901 -0.0686
  173loPI   C2B 2766  13.339  11.964   9.958  0.1351 -0.3156 -0.0379
  173loPI   C3B 2767  13.317  12.032   9.562 -0.3101 -0.2456 -0.1048
  173loPI   C4B 2768  13.339  12.115   9.195 -0.0364  0.0744 -0.2870
  174loPI    C1 2769   1.575   6.003  11.662 -0.1434 -0.4642  0.2722
  174loPI    C2 2770   1.933   6.083  11.822  0.0330 -0.0422 -0.2966
  174loPI    C3 2771   1.630   6.341  11.868 -0.0619 -0.1652 -0.2227
  174loPI   PO4 2772   1.595   6.013  11.344  0.2390 -0.1561 -0.2236
  174loPI   GL1 2773   1.669   5.835  10.919  0.2172 -0.0253 -0.0301
  174loPI   GL2 2774   1.952   6.111  11.013  0.2508  0.0920  0.5756
  174loPI   C1A 2775   1.653   5.729  10.496  0.1069 -0.0198 -0.0689
  174loPI   C2A 2776   1.716   5.789  10.039 -0.1722  0.2077 -0.2134
  174loPI   C3A 2777   1.640   5.667   9.709  0.0477 -0.0274  0.1915
  174loPI   C4A 2778   1.644   5.623   9.245 -0.2148  0.3352 -0.0036
  174loPI   C5A 2779   1.484   5.580   8.685 -0.2018 -0.1095 -0.1540
  174loPI   C6A 2780   1.377   5.790   8.429 -0.1528  0.0456  0.3803
  174loPI   C1B 2781   1.834   6.182  10.590 -0.2055  0.2862  0.1834
  174loPI   C2B 2782   1.898   6.247  10.162 -0.2082 -0.0094  0.0145
  174loPI   C3B 2783   1.804   6.195   9.768  0.0713  0.0603 -0.0141
  174loPI   C4B 2784   1.870   6.050   9.372  0.0479 -0.1323  0.1830
  175loPI    C1 2785   7.435   4.755  11.406 -0.0494  0.0832 -0.0168
  175loPI    C2 2786   7.629   4.406  11.424 -0.3474 -0.0961 -0.1856
  175loPI    C3 2787   7.400   4.524  11.730 -0.2993 -0.0786 -0.1561
  175loPI   PO4 2788   7.428   4.831  11.237 -0.0927  0.1587  0.3444
  175loPI   GL1 2789   7.548   4.778  10.856  0.1108 -0.2588  0.2541
  175loPI   GL2 2790   7.372   4.506  10.850  0.0626  0.1364  0.1748
  175loPI   C1A 2791   7.594   5.037  10.616 -0.0225 -0.1202 -0.1465
  175loPI   C2A 2792   7.585   4.995  10.191 -0.1990  0.1657  0.5403
  175loPI   C3A 2793   7.639   5.052   9.698 -0.0420 -0.0676 -0.0880
  175loPI   C4A 2794   7.611   4.811   9.262  0.1326  0.0677 -0.1491
  175loPI   C5A 2795   7.787   4.646   8.912  0.2758 -0.1001 -0.0713
  175loPI   C6A 2796   7.778   4.345   8.546  0.1185  0.0465 -0.1792
  175loPI   C1B 2797   7.438   4.544  10.461  0.0923  0.4899 -0.0466
  175loPI   C2B 2798   7.483   4.500  10.010  0.2063 -0.1028 -0.2690
  175loPI   C3B 2799   7.410   4.460   9.545  0.0860  0.1840 -0.0587
  175loPI   C4B 2800   7.361   4.338   9.124  0.0735 -0.1394  0.0329
  176loPI    C1 2801   4.125   9.691  11.736  0.1475 -0.2222 -0.0515
  176loPI    C2 2802   3.909   9.490  12.006 -0.0844  0.0246 -0.0491
  176loPI    C3 2803   4.175   9.763  12.126 -0.2132  0.1600 -0.0691
  176loPI   PO4 2804   3.959   9.708  11.583 -0.0751 -0.0883  0.1673
  176loPI   GL1 2805   3.844   9.712  11.205 -0.0757  0.2672  0.0317
  176loPI   GL2 2806   3.927  10.006  11.085  0.1916  0.0312 -0.1644
  176loPI   C1A 2807   3.847   9.503  10.844 -0.0195 -0.0044 -0.1127
  176loPI   C2A 2808   3.887   9.505  10.381 -0.0335  0.0867 -0.1471
  176loPI   C3A 2809   3.921   9.431   9.974 -0.1577  0.3638  0.1024
  176loPI   C4A 2810   3.840   9.386   9.581 -0.0648 -0.1185 -0.2538
  176loPI   C5A 2811   3.928   9.565   9.110  0.0180 -0.0944  0.0526
  176loPI   C6A 2812   4.274   9.889   8.978  0.4852 -0.2596  0.0452
  176loPI   C1B 2813   4.070   9.953  10.664  0.3914 -0.2110  0.0305
  176loPI   C2B 2814   4.059   9.974  10.277  0.1926  0.0116  0.1400
  176loPI   C3B 2815   4.217   9.906   9.925 -0.0111 -0.2466 -0.1658
  176loPI   C4B 2816   3.995   9.852   9.525 -0.0286  0.1336 -0.2502
  177loPI    C1 2817  15.149   4.163  11.963  0.2018 -0.0960 -0.3432
  177loPI    C2 2818  14.946   3.825  11.895 -0.0266 -0.0341  0.0022
  177loPI    C3 2819  15.189   3.852  12.212  0.0174  0.1142 -0.0433
  177loPI   PO4 2820  15.196   4.227  11.736  0.0085 -0.0723 -0.2154
  177loPI   GL1 2821  15.345   4.279  11.337 -0.0981 -0.0380 -0.1918
  177loPI   GL2 2822  15.078   4.467  11.316 -0.0067  0.1991 -0.1066
  177loPI   C1A 2823  15.358   4.122  10.943 -0.1654 -0.0106  0.0849
  177loPI   C2A 2824  15.272   4.121  10.574  0.1032  0.1786 -0.0660
  177loPI   C3A 2825  15.305   4.081  10.079 -0.0153 -0.1925 -0.0677
  177loPI   C4A 2826  15.275   4.096   9.699 -0.1999  0.2729  0.0009
  177loPI   C5A 2827  15.325   4.220   9.296  0.1420  0.1545  0.1530
  177loPI   C6A 2828  15.495   4.612   9.095 -0.2309 -0.0024  0.1057
  177loPI   C1B 2829  15.045   4.528  10.953 -0.1155  0.2289 -0.0064
  177loPI   C2B 2830  14.967   4.598  10.456  0.0497  0.1908 -0.1314
  177loPI   C3B 2831  14.968   4.551  10.089  0.2753 -0.2712 -0.2065
  177loPI   C4B 2832  14.923   4.464   9.537 -0.0747 -0.2765  0.0093
  178loPI    C1 2833   7.586   1.121  11.710  0.0198 -0.0236 -0.0645
  178loPI    C2 2834   7.705   0.823  11.948 -0.0345  0.0010 -0.0062
  178loPI    C3 2835   7.477   1.116  12.095 -0.0669  0.0172 -0.0884
  178loPI   PO4 2836   7.701   1.086  11.519  0.0949 -0.0562  0.0454
  178loPI   GL1 2837   7.838   1.426  11.120  0.0669 -0.1169  0.0464
  178loPI   GL2 2838   7.911   1.747  11.156 -0.2427 -0.2329 -0.1097
  178loPI   C1A 2839   7.663   1.367  10.694  0.0559  0.0702 -0.1644
  178loPI   C2A 2840   7.765   1.336  10.239  0.0673  0.2072  0.0140
  178loPI   C3A 2841   7.713   1.252   9.802 -0.0521  0.0878 -0.0810
  178loPI   C4A 2842   7.772   1.296   9.350 -0.2365 -0.0099  0.0644
  178loPI   C5A 2843   7.492   1.415   9.044  0.2067  0.0666 -0.0201
  178loPI   C6A 2844   7.605   1.498   8.582 -0.1932 -0.2520  0.1572
  178loPI   C1B 2845   7.981   1.851  10.717  0.0142  0.3789 -0.0832
  178loPI   C2B 2846   7.912   1.801  10.284 -0.1470  0.0114 -0.1744
  178loPI   C3B 2847   7.870   1.762   9.872 -0.2366  0.0905  0.2717
  178loPI   C4B 2848   7.916   1.735   9.409 -0.0351  0.2420 -0.0251
  179loPI    C1 2849  15.186   1.028  11.565 -0.2876 -0.2843  0.1336
  179loPI    C2 2850  15.196   0.917  11.949  0.0768  0.1395  0.2557
  179loPI    C3 2851  15.069   1.283  11.850 -0.0040  0.0371 -0.0301
  179loPI   PO4 2852  15.450   1.029  11.427  0.0480  0.2138 -0.0010
  179loPI   GL1 2853  15.491   1.067  10.931 -0.0269  0.1974 -0.2983
  179loPI   GL2 2854  15.703   1.314  11.044  0.0935  0.0363 -0.2579
  179loPI   C1A 2855  15.587   1.007  10.539  0.4380  0.0345 -0.2378
  179loPI   C2A 2856  15.545   0.935  10.103 -0.4120 -0.2444 -0.2147
  179loPI   C3A 2857  15.487   0.962   9.691 -0.1858 -0.1259  0.1711
  179loPI   C4A 2858  15.567   1.016   9.167 -0.0533 -0.3282 -0.2310
  179loPI   C5A 2859  15.944   0.782   8.931  0.1417 -0.1961 -0.1920
  179loPI   C6A 2860  16.291   0.692   8.785 -0.0216 -0.0112 -0.1067
  179loPI   C1B 2861  15.723   1.503  10.627 -0.1186  0.0206 -0.1496
  179loPI   C2B 2862  15.745   1.429  10.268 -0.0432  0.1988 -0.0365
  179loPI   C3B 2863  15.685   1.445   9.833 -0.0282 -0.4541  0.1368
  179loPI   C4B 2864  15.696   1.492   9.342 -0.1052 -0.0115  0.1869
  180loPI    C1 2865   9.522   5.829  11.564  0.2208 -0.0480  0.1882
  180loPI    C2 2866   9.584   5.445  11.657  0.1329 -0.0752  0.1361
  180loPI    C3 2867   9.293   5.651  11.839  0.2027 -0.0230  0.1893
  180loPI   PO4 2868   9.491   5.803  11.258 -0.0617 -0.2814  0.2980
  180loPI   GL1 2869   9.832   5.781  10.983  0.0506 -0.7144  0.1682
  180loPI   GL2 2870   9.877   6.034  10.943  0.2879  0.0858  0.1791
  180loPI   C1A 2871   9.751   5.820  10.548  0.2103 -0.0872  0.0498
  180loPI   C2A 2872   9.812   5.848  10.134 -0.0796 -0.0563  0.0158
  180loPI   C3A 2873   9.778   5.839   9.754  0.2569 -0.2428 -0.2327
  180loPI   C4A 2874   9.855   5.752   9.375  0.0737 -0.1711  0.1652
  180loPI   C5A 2875   9.705   6.082   9.062 -0.0293  0.1330  0.0590
  180loPI   C6A 2876   9.337   6.111   8.920  0.2104  0.1262 -0.1400
  180loPI   C1B 2877   9.955   6.376  10.576  0.1331  0.2893 -0.0151
  180loPI   C2B 2878   9.952   6.318  10.107 -0.1904 -0.1689 -0.0614
  180loPI   C3B 2879   9.879   6.347   9.706  0.0010 -0.1453  0.0500
  180loPI   C4B 2880  10.078   6.373   9.333 -0.3551  0.0509  0.2622
  181loPI    C1 2881   1.063  14.083  11.572  0.1161  0.0666 -0.2061
  181loPI    C2 2882   1.432  14.044  11.721  0.0726 -0.1753 -0.1578
  181loPI    C3 2883   1.130  14.156  11.959  0.1059 -0.0194 -0.1879
  181loPI   PO4 2884   1.105  14.200  11.330  0.0312 -0.0832  0.3281
  181loPI   GL1 2885   1.028  14.151  10.959  0.1916 -0.1842  0.1054
  181loPI   GL2 2886   1.357  14.014  10.815 -0.3349 -0.1957  0.2482
  181loPI   C1A 2887   0.857  14.406  10.620  0.2132  0.1210  0.1159
  181loPI   C2A 2888   0.808  14.343  10.105  0.0721  0.2849 -0.1620
  181loPI   C3A 2889   0.868  14.336   9.720  0.0125 -0.5560  0.1049
  181loPI   C4A 2890   0.942  14.337   9.189 -0.0995 -0.2065  0.3809
  181loPI   C5A 2891   0.936  14.437   8.721  0.0703 -0.0392  0.0966
  181loPI   C6A 2892   0.989  14.264   8.230 -0.0466 -0.1012 -0.0307
  181loPI   C1B 2893   1.126  14.033  10.484 -0.1083  0.1168 -0.0375
  181loPI   C2B 2894   1.220  13.909  10.066 -0.1378 -0.1593 -0.3474
  181loPI   C3B 2895   1.230  13.996   9.624  0.1440 -0.3820 -0.1027
  181loPI   C4B 2896   1.310  13.918   9.220  0.0008 -0.1308 -0.1801
  182loPI    C1 2897   0.287   9.825  11.722 -0.1221 -0.2715 -0.0888
  182loPI    C2 2898   0.033   9.928  12.012 -0.1700 -0.1950 -0.1576
  182loPI    C3 2899   0.358   9.712  12.099 -0.1098 -0.0527 -0.0244
  182loPI   PO4 2900   0.237   9.924  11.548 -0.0390 -0.1835 -0.2877
  182loPI   GL1 2901   0.526   9.917  11.241  0.2421 -0.2189  0.0427
  182loPI   GL2 2902   0.449   9.612  11.189 -0.0256 -0.2509  0.2405
  182loPI   C1A 2903   0.399  10.066  10.867 -0.0324  0.1302  0.1187
  182loPI   C2A 2904   0.380  10.033  10.415  0.1288 -0.0069  0.2500
  182loPI   C3A 2905   0.396  10.083  10.016  0.2453 -0.0820 -0.3328
  182loPI   C4A 2906   0.315  10.100   9.699 -0.0582 -0.3017  0.1105
  182loPI   C5A 2907   0.346  10.082   9.280  0.0247 -0.0597 -0.0863
  182loPI   C6A 2908  -0.075   9.865   9.002  0.0211  0.1248 -0.3596
  182loPI   C1B 2909   0.279   9.592  10.696  0.1032  0.0207  0.0235
  182loPI   C2B 2910   0.177   9.622  10.214 -0.0674 -0.0299 -0.2343
  182loPI   C3B 2911   0.205   9.619   9.789 -0.2521  0.1233 -0.2374
  182loPI   C4B 2912   0.169   9.523   9.409 -0.2927 -0.0816 -0.3951
  183loPI    C1 2913   0.868   1.615  11.347  0.0716 -0.2143 -0.0184
  183loPI    C2 2914   0.587   1.556  11.625  0.1501  0.0370  0.1173
  183loPI    C3 2915   0.918   1.762  11.716  0.1015  0.2642 -0.2062
  183loPI   PO4 2916   0.845   1.700  11.222 -0.1666 -0.2583 -0.2116
  183loPI   GL1 2917   0.905   1.900  10.904  0.1520  0.0007 -0.1411
  183loPI   GL2 2918   1.097   1.605  10.846 -0.0116  0.0112  0.1839
  183loPI   C1A 2919   0.802   1.947  10.544  0.0850  0.0914 -0.0917
  183loPI   C2A 2920   0.848   1.834  10.106  0.0348 -0.0624  0.1751
  183loPI   C3A 2921   0.809   1.904   9.711 -0.1197 -0.3045 -0.1182
  183loPI   C4A 2922   0.725   1.841   9.166 -0.0629 -0.0032 -0.0020
  183loPI   C5A 2923   0.921   1.925   8.733  0.0861  0.0775 -0.1035
  183loPI   C6A 2924   0.683   1.920   8.348 -0.1477  0.0232 -0.1894
  183loPI   C1B 2925   1.166   1.550  10.421 -0.1970 -0.0827  0.0928
  183loPI   C2B 2926   1.096   1.434  10.011 -0.0615  0.1388  0.2090
  183loPI   C3B 2927   1.120   1.398   9.529  0.2120 -0.1929  0.1134
  183loPI   C4B 2928   1.296   1.532   9.091  0.2088  0.1976 -0.3088
  184loPI    C1 2929   0.696   7.310  11.410  0.1155  0.1440 -0.0315
  184loPI    C2 2930   1.017   7.418  11.624  0.0723  0.2161 -0.0027
  184loPI    C3 2931   0.650   7.519  11.749  0.0224 -0.0720  0.0908
  184loPI   PO4 2932   0.716   7.368  11.231 -0.0834 -0.2406 -0.0734
  184loPI   GL1 2933   1.051   7.418  11.071  0.0287 -0.2261 -0.1789
  184loPI   GL2 2934   1.375   7.485  10.988 -0.0466 -0.0277  0.0115
  184loPI   C1A 2935   0.935   7.437  10.654 -0.1142  0.0314  0.0254
  184loPI   C2A 2936   0.872   7.353  10.245  0.2024 -0.0512 -0.1592
  184loPI   C3A 2937   0.777   7.400   9.818  0.1420 -0.2095 -0.0854
  184loPI   C4A 2938   0.786   7.427   9.380  0.0119 -0.0781 -0.3130
  184loPI   C5A 2939   0.965   7.464   8.992  0.0423  0.1371 -0.0390
  184loPI   C6A 2940   1.016   7.108   8.646 -0.3731 -0.0685 -0.2391
  184loPI   C1B 2941   1.424   7.515  10.615  0.0194  0.3056 -0.1876
  184loPI   C2B 2942   1.479   7.525  10.188 -0.1998  0.0865  0.0873
  184loPI   C3B 2943   1.285   7.486   9.755 -0.0576 -0.2192 -0.3519
  184loPI   C4B 2944   1.348   7.604   9.344  0.2610  0.1566  0.1133
  185loPI    C1 2945   7.114   7.382  11.902 -0.0924  0.1176  0.2226
  185loPI    C2 2946   7.302   7.076  12.079  0.1437  0.1230 -0.0125
  185loPI    C3 2947   7.364   7.450  12.207  0.1705  0.1103  0.0118
  185loPI   PO4 2948   7.091   7.309  11.699 -0.0305 -0.3242 -0.0494
  185loPI   GL1 2949   7.161   7.354  11.211 -0.0448 -0.3513  0.1103
  185loPI   GL2 2950   7.094   7.641  11.048 -0.0716 -0.0133  0.2183
  185loPI   C1A 2951   7.425   7.320  10.882  0.0535  0.2436  0.0399
  185loPI   C2A 2952   7.546   7.297  10.488  0.2367 -0.0879 -0.1323
  185loPI   C3A 2953   7.571   7.186  10.044 -0.1396 -0.0361  0.1221
  185loPI   C4A 2954   7.434   7.163   9.655 -0.3897 -0.1090  0.0575
  185loPI   C5A 2955   7.414   7.114   9.195 -0.2825  0.0103  0.1613
  185loPI   C6A 2956   7.453   7.332   8.834  0.0925 -0.2272 -0.1063
  185loPI   C1B 2957   7.096   7.723  10.591  0.2642  0.0658 -0.2045
  185loPI   C2B 2958   7.076   7.730  10.088 -0.0621 -0.1652  0.0697
  185loPI   C3B 2959   7.051   7.608   9.599  0.1155  0.2606  0.4063
  185loPI   C4B 2960   7.065   7.552   9.182  0.3085  0.0165 -0.0295
  186loPI    C1 2961  16.413   1.803  11.458 -0.0041  0.2205 -0.0058
  186loPI    C2 2962  16.111   1.911  11.697 -0.0545 -0.2557  0.1567
  186loPI    C3 2963  16.428   1.720  11.849  0.4010  0.3528  0.0114
  186loPI   PO4 2964  16.494   1.991  11.301  0.1010 -0.2279 -0.3758
  186loPI   GL1 2965  16.389   2.072  10.901  0.1097 -0.1061  0.0847
  186loPI   GL2 2966  16.257   2.429  11.022 -0.0040  0.0645  0.1330
  186loPI   C1A 2967  16.421   2.090  10.466  0.0320  0.1208  0.0366
  186loPI   C2A 2968  16.445   2.085   9.985 -0.0026 -0.2269 -0.1610
  186loPI   C3A 2969  16.432   2.018   9.498  0.1025  0.0595 -0.3275
  186loPI   C4A 2970  16.397   1.955   9.076 -0.0733 -0.0344  0.0722
  186loPI   C5A 2971  16.133   1.745   8.703  0.1128 -0.2398 -0.0167
  186loPI   C6A 2972  16.287   1.535   8.328  0.1053  0.0431  0.0116
  186loPI   C1B 2973  16.044   2.467  10.579 -0.5900  0.2494 -0.1340
  186loPI   C2B 2974  16.108   2.409  10.173 -0.1303 -0.1745 -0.0482
  186loPI   C3B 2975  16.058   2.441   9.754  0.0868 -0.1182 -0.0839
  186loPI   C4B 2976  16.057   2.458   9.352  0.0401 -0.1847  0.0628
  187loPI    C1 2977  12.314   2.487  11.400  0.0536 -0.0494 -0.0101
  187loPI    C2 2978  12.474   2.588  11.753  0.3132 -0.1170 -0.1066
  187loPI    C3 2979  12.228   2.273  11.727  0.2448 -0.0749  0.0245
  187loPI   PO4 2980  12.425   2.439  11.275  0.1081  0.0442  0.0326
  187loPI   GL1 2981  12.289   2.361  10.848 -0.0473  0.0598 -0.1517
  187loPI   GL2 2982  12.295   2.754  10.913 -0.2229 -0.3311  0.1535
  187loPI   C1A 2983  12.262   2.137  10.471 -0.0577 -0.4762 -0.0109
  187loPI   C2A 2984  12.248   2.129  10.006  0.2107  0.1660  0.3079
  187loPI   C3A 2985  12.269   2.163   9.567  0.1338  0.1695  0.1546
  187loPI   C4A 2986  12.250   2.123   9.159 -0.0872  0.0594 -0.0178
  187loPI   C5A 2987  11.970   2.030   8.806  0.1465 -0.1621  0.0597
  187loPI   C6A 2988  11.548   2.030   8.632  0.0978  0.0780  0.2737
  187loPI   C1B 2989  12.423   2.722  10.468 -0.0385  0.0783  0.3362
  187loPI   C2B 2990  12.374   2.666  10.030 -0.0682  0.0423  0.2290
  187loPI   C3B 2991  12.467   2.639   9.576  0.1862  0.0975 -0.0961
  187loPI   C4B 2992  12.474   2.590   9.164 -0.0180  0.4208 -0.0638
  188loPI    C1 2993  10.161  17.113  11.763  0.1505 -0.1558  0.0813
  188loPI    C2 2994   9.814  17.002  11.929  0.1833  0.2214  0.4186
  188loPI    C3 2995  10.161  16.888  12.093  0.2248 -0.0494  0.1542
  188loPI   PO4 2996  10.129  17.105  11.577  0.0706 -0.2599 -0.0648
  188loPI   GL1 2997  10.167  17.105  11.162  0.0523  0.3566 -0.1195
  188loPI   GL2 2998  10.319  16.870  11.076  0.1010 -0.3087 -0.1666
  188loPI   C1A 2999  10.050  17.377  10.837  0.2225 -0.1050 -0.3428
  188loPI   C2A 3000  10.091  17.374  10.387 -0.2186 -0.0036 -0.0694
  188loPI   C3A 3001   9.965  17.437   9.997 -0.0011 -0.0514  0.2563
  188loPI   C4A 3002  10.043  17.418   9.502  0.4170 -0.2549 -0.0639
  188loPI   C5A 3003  10.027  17.373   9.024  0.0663 -0.1151 -0.1685
  188loPI   C6A 3004  10.353  17.543   8.634  0.0932 -0.0279 -0.1203
  188loPI   C1B 3005  10.270  16.990  10.618 -0.2130  0.0169  0.0494
  188loPI   C2B 3006  10.465  17.027  10.115 -0.4126  0.0354 -0.2322
  188loPI   C3B 3007  10.419  16.965   9.684  0.0196  0.0230 -0.0033
  188loPI   C4B 3008  10.284  17.010   9.283  0.0603  0.2568 -0.1056
  189loPI    C1 3009  13.889   4.197  11.996  0.0453 -0.1635  0.0300
  189loPI    C2 3010  13.517   4.102  12.108 -0.0439  0.0067 -0.1174
  189loPI    C3 3011  13.765   4.278  12.368 -0.0951 -0.0278 -0.0449
  189loPI   PO4 3012  13.836   4.292  11.796  0.2677  0.1478  0.1886
  189loPI   GL1 3013  13.880   4.267  11.330 -0.3038  0.0876 -0.1793
  189loPI   GL2 3014  13.587   4.389  11.223  0.0461  0.1135  0.1118
  189loPI   C1A 3015  13.971   4.311  10.902  0.1148 -0.0181  0.0863
  189loPI   C2A 3016  13.982   4.280  10.572  0.1237  0.2264 -0.0667
  189loPI   C3A 3017  13.998   4.234  10.084  0.4582  0.1381  0.1986
  189loPI   C4A 3018  13.880   4.194   9.648 -0.0151  0.0214  0.2633
  189loPI   C5A 3019  13.961   4.362   9.277 -0.2192  0.0839  0.1435
  189loPI   C6A 3020  13.737   4.385   8.961 -0.1555  0.2173 -0.2128
  189loPI   C1B 3021  13.382   4.270  10.855 -0.1279  0.0757  0.1577
  189loPI   C2B 3022  13.432   4.271  10.408 -0.1879 -0.2169  0.0037
  189loPI   C3B 3023  13.513   4.173  10.013  0.0336  0.2123 -0.0679
  189loPI   C4B 3024  13.398   4.149   9.592  0.4074  0.1555 -0.0359
  190loPI    C1 3025   4.837   1.701  11.396  0.0731 -0.2200  0.1680
  190loPI    C2 3026   5.021   2.015  11.561 -0.1160  0.0140 -0.0580
  190loPI    C3 3027   4.948   1.688  11.780  0.2284  0.0614  0.1350
  190loPI   PO4 3028   4.917   1.649  11.146  0.1157  0.1193  0.3165
  190loPI   GL1 3029   4.847   1.738  10.791 -0.1060  0.1123  0.1303
  190loPI   GL2 3030   5.159   1.881  10.752  0.1068 -0.0005  0.1429
  190loPI   C1A 3031   4.512   1.770  10.546  0.0139 -0.1523  0.1387
  190loPI   C2A 3032   4.578   1.636  10.183 -0.1414 -0.2438 -0.0034
  190loPI   C3A 3033   4.610   1.629   9.698 -0.0301 -0.1368 -0.2117
  190loPI   C4A 3034   4.553   1.716   9.265  0.0964  0.0548  0.0007
  190loPI   C5A 3035   4.596   1.718   8.803 -0.2568  0.3613 -0.1861
  190loPI   C6A 3036   4.428   1.693   8.463  0.1078 -0.1416  0.2520
  190loPI   C1B 3037   5.046   1.841  10.324 -0.0471 -0.2219  0.0149
  190loPI   C2B 3038   5.025   1.864   9.875  0.0848  0.0954 -0.1863
  190loPI   C3B 3039   5.050   1.745   9.478  0.0080  0.2908  0.2745
  190loPI   C4B 3040   5.044   1.798   9.044  0.0299 -0.2373 -0.1655
  191loPI    C1 3041  15.978   9.791  11.544  0.0211 -0.0597 -0.3229
  191loPI    C2 3042  15.793   9.526  11.780  0.0112  0.3419  0.1335
  191loPI    C3 3043  16.192   9.544  11.774  0.0163  0.1915 -0.0433
  191loPI   PO4 3044  15.907   9.794  11.311 -0.0664  0.0434  0.0377
  191loPI   GL1 3045  15.820  10.185  11.129 -0.2949  0.3487 -0.0369
  191loPI   GL2 3046  15.571  10.291  10.927  0.5311  0.2047 -0.1805
  191loPI   C1A 3047  16.057  10.234  10.712 -0.0861 -0.0557 -0.0508
  191loPI   C2A 3048  16.034  10.075  10.274  0.1129  0.0438  0.0661
  191loPI   C3A 3049  15.997  10.211   9.885  0.0139 -0.0677  0.0996
  191loPI   C4A 3050  15.969  10.181   9.427  0.2352 -0.1050 -0.0587
  191loPI   C5A 3051  15.907  10.299   9.059 -0.0198  0.1269  0.2434
  191loPI   C6A 3052  16.147  10.495   8.739 -0.0041  0.1898  0.1961
  191loPI   C1B 3053  15.595  10.141  10.478  0.0325  0.0443  0.1239
  191loPI   C2B 3054  15.550  10.043  10.081 -0.0531 -0.0913 -0.0410
  191loPI   C3B 3055  15.489  10.116   9.681 -0.1465  0.2098  0.3118
  191loPI   C4B 3056  15.320  10.049   9.272 -0.1392  0.0018 -0.1180
  192loPI    C1 3057   8.476   9.157  12.038 -0.0247  0.0884  0.1126
  192loPI    C2 3058   8.723   9.267  12.333 -0.0553  0.0587  0.1496
  192loPI    C3 3059   8.525   8.921  12.357  0.2553 -0.1414 -0.0956
  192loPI   PO4 3060   8.659   9.219  11.813  0.0435  0.0796  0.2313
  192loPI   GL1 3061   8.588   9.173  11.309 -0.5051  0.0662 -0.1254
  192loPI   GL2 3062   8.667   9.285  11.076 -0.0535 -0.1328  0.2420
  192loPI   C1A 3063   8.390   8.894  10.929 -0.1903 -0.2469  0.2788
  192loPI   C2A 3064   8.465   8.710  10.532  0.0711  0.0881 -0.0270
  192loPI   C3A 3065   8.483   8.812  10.140 -0.2024 -0.1752 -0.2825
  192loPI   C4A 3066   8.406   8.792   9.728  0.2019  0.1894 -0.0420
  192loPI   C5A 3067   8.497   8.817   9.284 -0.0798  0.1661  0.1425
  192loPI   C6A 3068   8.807   8.753   8.924  0.0534 -0.3598  0.2622
  192loPI   C1B 3069   8.608   9.344  10.667 -0.2298  0.0003 -0.0758
  192loPI   C2B 3070   8.603   9.283  10.203  0.0758  0.1262  0.0552
  192loPI   C3B 3071   8.669   9.227   9.747  0.2000  0.0126 -0.0401
  192loPI   C4B 3072   8.684   9.358   9.323 -0.1362 -0.0351  0.2427
  193loPI    C1 3073   7.917  14.019  11.691 -0.1359  0.0429  0.1683
  193loPI    C2 3074   7.668  14.241  11.910 -0.0607  0.0072  0.2913
  193loPI    C3 3075   8.059  14.326  11.905 -0.0799  0.0870  0.0683
  193loPI   PO4 3076   7.843  13.989  11.401  0.2724 -0.0588  0.0623
  193loPI   GL1 3077   7.992  13.757  11.155 -0.2024 -0.1734 -0.1472
  193loPI   GL2 3078   8.077  13.467  11.141  0.0929  0.2473 -0.2140
  193loPI   C1A 3079   7.869  13.816  10.696  0.2086 -0.1681 -0.0471
  193loPI   C2A 3080   7.845  13.801  10.243  0.1556 -0.1618  0.0754
  193loPI   C3A 3081   7.835  13.734   9.830 -0.1109 -0.1837  0.0067
  193loPI   C4A 3082   7.970  13.671   9.373  0.1327  0.1155  0.1506
  193loPI   C5A 3083   7.729  13.668   8.978  0.2224 -0.3208  0.0551
  193loPI   C6A 3084   7.442  13.407   8.821 -0.0301  0.2223 -0.1191
  193loPI   C1B 3085   8.198  13.366  10.674  0.2207 -0.2484 -0.0630
  193loPI   C2B 3086   8.182  13.351  10.262  0.1304  0.2675  0.1208
  193loPI   C3B 3087   8.185  13.331   9.865  0.0887  0.3966  0.0318
  193loPI   C4B 3088   8.252  13.289   9.365  0.1224 -0.0104  0.0594
  194loPI    C1 3089   8.801  14.054  11.604  0.0802  0.0946  0.0252
  194loPI    C2 3090   8.514  14.161  11.861 -0.0164 -0.1265  0.0121
  194loPI    C3 3091   8.875  14.057  11.997 -0.0309 -0.1279  0.0492
  194loPI   PO4 3092   8.778  14.212  11.419 -0.2606 -0.3508 -0.0442
  194loPI   GL1 3093   8.930  14.163  11.067 -0.1390 -0.1927 -0.0974
  194loPI   GL2 3094   8.909  13.868  11.119  0.1492  0.3957  0.0273
  194loPI   C1A 3095   9.089  14.331  10.641 -0.0017  0.0216 -0.0195
  194loPI   C2A 3096   9.142  14.273  10.265  0.0871  0.1976 -0.2824
  194loPI   C3A 3097   9.035  14.409   9.901  0.0692  0.0827  0.1628
  194loPI   C4A 3098   9.013  14.461   9.547  0.0178  0.0288  0.0998
  194loPI   C5A 3099   8.999  14.366   9.134  0.0292  0.2538  0.2199
  194loPI   C6A 3100   8.626  14.154   9.075 -0.2270  0.1317  0.0465
  194loPI   C1B 3101   8.898  13.825  10.628  0.2740 -0.2077  0.0313
  194loPI   C2B 3102   8.953  13.799  10.208 -0.0469 -0.1974  0.3026
  194loPI   C3B 3103   8.899  13.900   9.785  0.1265  0.0563 -0.0255
  194loPI   C4B 3104   8.895  13.863   9.383 -0.2726  0.2444  0.0033
  195loPI    C1 3105   1.086   8.234  11.616  0.0068 -0.1722  0.0085
  195loPI    C2 3106   1.414   8.073  11.780  0.0946 -0.0836 -0.0783
  195loPI    C3 3107   1.060   7.889  11.816  0.1210 -0.0890  0.1696
  195loPI   PO4 3108   1.162   8.322  11.363 -0.4662  0.3560  0.4199
  195loPI   GL1 3109   1.213   8.247  10.919  0.1796 -0.3593  0.0378
  195loPI   GL2 3110   1.057   7.895  10.871 -0.0807  0.0638  0.0010
  195loPI   C1A 3111   1.229   8.450  10.563 -0.0180 -0.1249  0.1473
  195loPI   C2A 3112   1.277   8.479  10.168 -0.2025 -0.1867  0.2752
  195loPI   C3A 3113   1.156   8.412   9.706  0.2973 -0.0700  0.0242
  195loPI   C4A 3114   1.063   8.474   9.256  0.3605 -0.0113  0.0951
  195loPI   C5A 3115   1.102   8.355   8.829 -0.1226  0.0846  0.5861
  195loPI   C6A 3116   1.241   8.184   8.399  0.3744  0.0825  0.0621
  195loPI   C1B 3117   1.157   7.924  10.398  0.1830  0.0607 -0.4132
  195loPI   C2B 3118   1.131   7.993   9.991 -0.0988  0.1288  0.1100
  195loPI   C3B 3119   0.969   7.923   9.592  0.2733 -0.0580 -0.0076
  195loPI   C4B 3120   0.908   7.972   9.202  0.2602 -0.1054 -0.1946
  196loPI    C1 3121   6.360   7.745  11.853 -0.0305 -0.0579 -0.2779
  196loPI    C2 3122   6.629   7.457  11.921  0.3414  0.3789  0.1737
  196loPI    C3 3123   6.417   7.608  12.225 -0.1023  0.3480 -0.1119
  196loPI   PO4 3124   6.296   7.688  11.584 -0.1325 -0.0713  0.1247
  196loPI   GL1 3125   6.210   7.476  11.090  0.0384 -0.2773  0.0154
  196loPI   GL2 3126   5.941   7.687  10.999 -0.2102 -0.2101  0.1334
  196loPI   C1A 3127   6.143   7.523  10.580  0.2381 -0.1989 -0.1929
  196loPI   C2A 3128   6.058   7.499  10.213 -0.3061 -0.0107 -0.0448
  196loPI   C3A 3129   6.120   7.490   9.716 -0.1103 -0.0087  0.0723
  196loPI   C4A 3130   6.121   7.377   9.238  0.2471  0.2567 -0.2906
  196loPI   C5A 3131   6.182   7.167   8.887  0.1225 -0.1468  0.1968
  196loPI   C6A 3132   5.989   6.960   8.539  0.3416  0.1003  0.0234
  196loPI   C1B 3133   5.748   7.889  10.668 -0.2384  0.2254  0.0895
  196loPI   C2B 3134   5.707   7.895  10.191 -0.1923 -0.1729 -0.2932
  196loPI   C3B 3135   5.770   7.820   9.735  0.1025  0.1708  0.0413
  196loPI   C4B 3136   5.706   7.810   9.336 -0.0752  0.0868  0.1708
  197loPI    C1 3137   1.050  16.932  11.821  0.0064 -0.0947 -0.1415
  197loPI    C2 3138   1.001  16.673  12.121  0.1229 -0.1455 -0.1658
  197loPI    C3 3139   0.913  17.059  12.175 -0.0248 -0.1844 -0.1211
  197loPI   PO4 3140   0.938  16.817  11.554 -0.0211 -0.3722 -0.0555
  197loPI   GL1 3141   0.859  16.994  11.096  0.3575  0.0690  0.2171
  197loPI   GL2 3142   0.709  16.742  10.968  0.3692  0.0725 -0.0037
  197loPI   C1A 3143   0.883  17.218  10.785 -0.0461  0.0239  0.2723
  197loPI   C2A 3144   0.985  17.142  10.421  0.1175  0.0684  0.0143
  197loPI   C3A 3145   0.918  17.128   9.977  0.2556  0.1803  0.2301
  197loPI   C4A 3146   1.048  17.040   9.586  0.0447  0.0509 -0.1311
  197loPI   C5A 3147   1.093  17.067   9.237  0.3115  0.0890 -0.0216
  197loPI   C6A 3148   1.161  16.975   8.784  0.0375 -0.0126 -0.2814
  197loPI   C1B 3149   0.793  16.673  10.596 -0.1651 -0.0197  0.1485
  197loPI   C2B 3150   0.757  16.637  10.154 -0.2159  0.2713  0.1936
  197loPI   C3B 3151   0.773  16.602   9.622  0.3301  0.1197 -0.2314
  197loPI   C4B 3152   0.848  16.576   9.180 -0.2001  0.0906 -0.1253
  198loPI    C1 3153   3.219   9.685  11.711 -0.0000 -0.0544 -0.1050
  198loPI    C2 3154   3.153   9.328  11.879 -0.1867  0.0971  0.1509
  198loPI    C3 3155   3.432   9.572  12.030 -0.0616  0.0629 -0.0218
  198loPI   PO4 3156   3.104   9.655  11.510 -0.0670 -0.3880  0.1022
  198loPI   GL1 3157   2.911   9.691  11.154  0.2465 -0.3338 -0.0295
  198loPI   GL2 3158   2.630   9.676  11.102  0.2670 -0.1415 -0.0137
  198loPI   C1A 3159   3.056   9.823  10.700 -0.0651  0.5226 -0.3351
  198loPI   C2A 3160   3.066   9.780  10.287  0.0864 -0.2757  0.1175
  198loPI   C3A 3161   3.092   9.785   9.901  0.2206 -0.4342  0.1819
  198loPI   C4A 3162   3.010   9.712   9.479  0.0240  0.1754  0.0435
  198loPI   C5A 3163   2.970   9.735   9.079  0.0535 -0.2119  0.1029
  198loPI   C6A 3164   3.042   9.420   8.794 -0.2494 -0.0156 -0.0799
  198loPI   C1B 3165   2.550   9.692  10.642  0.1540 -0.2937  0.4240
  198loPI   C2B 3166   2.587   9.717  10.217 -0.1063 -0.1928  0.2059
  198loPI   C3B 3167   2.604   9.760   9.768 -0.1411  0.0120 -0.1858
  198loPI   C4B 3168   2.559   9.631   9.374 -0.0072 -0.1429 -0.4807
  199loPI    C1 3169   4.608  12.345  11.674  0.1295  0.0425  0.2252
  199loPI    C2 3170   4.264  12.533  11.754  0.0061  0.0150 -0.2174
  199loPI    C3 3171   4.612  12.710  11.839 -0.1128  0.2478 -0.2071
  199loPI   PO4 3172   4.538  12.175  11.409  0.2147  0.1254  0.1701
  199loPI   GL1 3173   4.788  12.299  11.131 -0.0463 -0.0385 -0.0609
  199loPI   GL2 3174   4.477  12.289  10.929 -0.0185  0.0921 -0.0729
  199loPI   C1A 3175   4.986  12.346  10.734  0.1049 -0.0788 -0.0907
  199loPI   C2A 3176   4.971  12.378  10.307 -0.1598  0.0584 -0.3927
  199loPI   C3A 3177   4.957  12.314   9.894  0.3231  0.0056  0.0274
  199loPI   C4A 3178   4.882  12.302   9.543  0.3003  0.1025 -0.1762
  199loPI   C5A 3179   4.961  12.306   9.210  0.4240  0.1883 -0.0515
  199loPI   C6A 3180   5.177  12.389   8.799  0.0271  0.1361 -0.1920
  199loPI   C1B 3181   4.389  12.294  10.454  0.1114 -0.0891 -0.2698
  199loPI   C2B 3182   4.425  12.220  10.018  0.1302 -0.1165 -0.2584
  199loPI   C3B 3183   4.429  12.182   9.605  0.4969 -0.0562 -0.0626
  199loPI   C4B 3184   4.413  12.156   9.224  0.0358 -0.4486  0.0561
  200loPI    C1 3185  16.844  15.515  11.656 -0.3334  0.1144  0.1564
  200loPI    C2 3186  17.007  15.824  11.851 -0.0522  0.1046 -0.0572
  200loPI    C3 3187  17.116  15.451  11.943 -0.0850  0.0892 -0.0810
  200loPI   PO4 3188  16.825  15.605  11.401  0.1425 -0.1544 -0.1640
  200loPI   GL1 3189  16.654  15.755  10.993  0.0360  0.2278  0.1322
  200loPI   GL2 3190  16.886  15.577  10.844  0.0471  0.1555 -0.0425
  200loPI   C1A 3191  16.524  15.820  10.560 -0.0827  0.1309  0.0163
  200loPI   C2A 3192  16.565  15.936  10.209 -0.2815 -0.1160 -0.1419
  200loPI   C3A 3193  16.645  15.881   9.852  0.2083  0.0581 -0.2524
  200loPI   C4A 3194  16.537  15.762   9.381  0.0626 -0.0077  0.0152
  200loPI   C5A 3195  16.472  15.872   9.052  0.0842  0.0830  0.0955
  200loPI   C6A 3196  16.334  15.831   8.718 -0.2063  0.0263 -0.1039
  200loPI   C1B 3197  16.926  15.503  10.414 -0.1137  0.0012  0.2143
  200loPI   C2B 3198  16.938  15.415   9.999 -0.0738 -0.1064  0.0009
  200loPI   C3B 3199  16.934  15.489   9.615  0.0236 -0.2155  0.1772
  200loPI   C4B 3200  16.785  15.313   9.253  0.0914 -0.0984  0.0266
  201loPI    C1 3201   8.606  10.443  12.003 -0.0393 -0.0211 -0.0567
  201loPI    C2 3202   8.681  10.194  11.699 -0.0557  0.0699 -0.1355
  201loPI    C3 3203   8.560  10.048  12.051  0.1452 -0.0509 -0.1152
  201loPI   PO4 3204   8.692  10.687  11.808  0.0591  0.0904  0.1633
  201loPI   GL1 3205   8.672  10.532  11.318  0.0484 -0.0778 -0.1206
  201loPI   GL2 3206   8.468  10.290  11.090 -0.0519  0.0286 -0.0834
  201loPI   C1A 3207   8.605  10.740  11.006  0.0174 -0.1158  0.0119
  201loPI   C2A 3208   8.609  10.786  10.502  0.2926  0.3435 -0.0499
  201loPI   C3A 3209   8.651  10.680  10.091  0.0010 -0.0533 -0.0550
  201loPI   C4A 3210   8.615  10.703   9.570 -0.0344 -0.0065 -0.1222
  201loPI   C5A 3211   8.560  10.564   9.060  0.1652  0.1207  0.0276
  201loPI   C6A 3212   8.205  10.307   8.971 -0.1204  0.2439  0.3507
  201loPI   C1B 3213   8.491  10.274  10.701 -0.0970  0.1488  0.0819
  201loPI   C2B 3214   8.498  10.232  10.308  0.2812 -0.0532  0.1271
  201loPI   C3B 3215   8.456  10.237   9.809 -0.1164 -0.1670 -0.1518
  201loPI   C4B 3216   8.467  10.145   9.388  0.0726  0.1335  0.2270
  202loPI    C1 3217   2.044  12.643  11.766  0.1330 -0.2600 -0.0400
  202loPI    C2 3218   1.727  12.646  12.010  0.0908 -0.2074 -0.0952
  202loPI    C3 3219   2.094  12.590  12.160  0.0554 -0.2703 -0.0314
  202loPI   PO4 3220   1.899  12.620  11.513  0.0045 -0.1613 -0.0276
  202loPI   GL1 3221   2.160  12.653  11.056 -0.0466  0.1309  0.1909
  202loPI   GL2 3222   1.879  12.686  11.014  0.0654  0.1561  0.2228
  202loPI   C1A 3223   2.256  12.924  10.708 -0.0272 -0.2057 -0.0856
  202loPI   C2A 3224   2.150  12.864  10.236 -0.1134  0.2246 -0.0603
  202loPI   C3A 3225   2.248  12.857   9.814 -0.1637  0.1676 -0.2494
  202loPI   C4A 3226   2.222  12.632   9.474 -0.1439 -0.0219 -0.1314
  202loPI   C5A 3227   2.150  12.672   9.029  0.0100  0.1980 -0.0590
  202loPI   C6A 3228   2.185  12.600   8.677  0.0034 -0.0786 -0.2370
  202loPI   C1B 3229   1.755  12.741  10.581 -0.2716 -0.2548 -0.1433
  202loPI   C2B 3230   1.660  12.706  10.181  0.1665  0.2065 -0.0054
  202loPI   C3B 3231   1.700  12.552   9.768  0.2058 -0.0054  0.0574
  202loPI   C4B 3232   1.741  12.637   9.303 -0.1769  0.0249  0.0214
  203loPI    C1 3233   2.973   0.424  11.309 -0.1042  0.1737 -0.1443
  203loPI    C2 3234   2.739   0.682  11.505 -0.0771  0.0655  0.0322
  203loPI    C3 3235   3.134   0.680  11.571 -0.0947 -0.1155  0.1378
  203loPI   PO4 3236   2.887   0.454  11.053 -0.0269  0.0601 -0.0740
  203loPI   GL1 3237   2.963   0.681  10.727 -0.0112  0.0278  0.0374
  203loPI   GL2 3238   2.799   1.065  10.570 -0.4908  0.1300 -0.0179
  203loPI   C1A 3239   3.080   0.613  10.302  0.3675  0.0355 -0.0602
  203loPI   C2A 3240   3.193   0.563   9.878 -0.3008 -0.1456  0.0508
  203loPI   C3A 3241   3.117   0.473   9.408  0.0094 -0.1731  0.1347
  203loPI   C4A 3242   2.903   0.437   8.977 -0.0528  0.0368 -0.1471
  203loPI   C5A 3243   2.453   0.470   8.861 -0.1506 -0.1147 -0.1307
  203loPI   C6A 3244   2.029   0.455   8.836  0.0997  0.1952  0.1755
  203loPI   C1B 3245   2.881   1.048  10.123  0.1548  0.0441 -0.1537
  203loPI   C2B 3246   2.838   0.908   9.722  0.0626  0.1172 -0.0114
  203loPI   C3B 3247   2.743   0.855   9.242  0.0980 -0.0264  0.2955
  203loPI   C4B 3248   2.698   0.894   8.814  0.1954  0.0701 -0.1836
  204loPI    C1 3249   3.117  15.283  11.341 -0.1983 -0.1565 -0.1098
  204loPI    C2 3250   3.008  15.651  11.453 -0.0455 -0.0727 -0.2325
  204loPI    C3 3251   2.940  15.340  11.695  0.2339  0.0988  0.0739
  204loPI   PO4 3252   3.242  15.315  11.130  0.2812 -0.0692 -0.3984
  204loPI   GL1 3253   3.368  15.683  10.809  0.0904 -0.1430  0.0951
  204loPI   GL2 3254   3.696  15.934  10.870  0.0361  0.2128  0.3122
  204loPI   C1A 3255   3.339  15.820  10.408  0.1605 -0.0186  0.3107
  204loPI   C2A 3256   3.306  15.830   9.891 -0.1004  0.0227 -0.3924
  204loPI   C3A 3257   3.343  15.649   9.485 -0.1701  0.2378 -0.0804
  204loPI   C4A 3258   3.401  15.698   9.078 -0.0167  0.3474  0.1684
  204loPI   C5A 3259   3.750  15.647   8.757 -0.3452 -0.0120  0.2173
  204loPI   C6A 3260   3.852  15.677   8.328  0.1500 -0.2384 -0.1624
  204loPI   C1B 3261   3.877  15.800  10.555 -0.1507  0.1344 -0.0168
  204loPI   C2B 3262   3.857  15.890  10.115  0.0419  0.0782 -0.4748
  204loPI   C3B 3263   3.823  15.940   9.706 -0.1610  0.1018 -0.0165
  204loPI   C4B 3264   3.817  15.788   9.272  0.0421 -0.5675  0.0234
  205loPI    C1 3265   4.867   7.147  11.660 -0.1290  0.1780 -0.0245
  205loPI    C2 3266   4.740   7.306  12.004 -0.0148 -0.0375  0.1190
  205loPI    C3 3267   5.041   7.043  12.004  0.2250  0.2295 -0.1833
  205loPI   PO4 3268   4.885   7.375  11.376 -0.4723 -0.2520 -0.1742
  205loPI   GL1 3269   4.705   7.388  10.950 -0.0158  0.0752  0.1939
  205loPI   GL2 3270   4.641   7.131  10.765 -0.1676 -0.1426  0.0679
  205loPI   C1A 3271   4.710   7.646  10.588  0.1848  0.1901  0.1230
  205loPI   C2A 3272   4.692   7.756  10.212 -0.1876 -0.0977 -0.0236
  205loPI   C3A 3273   4.682   7.701   9.795 -0.0378 -0.0944 -0.1161
  205loPI   C4A 3274   4.791   7.578   9.427  0.2053 -0.0596  0.0755
  205loPI   C5A 3275   4.714   7.511   9.006  0.1170  0.0587  0.0559
  205loPI   C6A 3276   4.430   7.545   8.663 -0.0078  0.0217  0.1553
  205loPI   C1B 3277   4.452   7.257  10.418  0.1408  0.0084 -0.3220
  205loPI   C2B 3278   4.466   7.328  10.045 -0.0021 -0.1570 -0.1383
  205loPI   C3B 3279   4.514   7.169   9.596 -0.0819  0.0170 -0.1862
  205loPI   C4B 3280   4.638   7.031   9.212 -0.4031 -0.2260 -0.1477
  206loPI    C1 3281   7.024   1.715  11.559 -0.0718  0.1289 -0.1229
  206loPI    C2 3282   6.644   1.706  11.684  0.0114  0.0596  0.1288
  206loPI    C3 3283   6.940   1.771  11.946  0.1851 -0.0389 -0.0402
  206loPI   PO4 3284   7.016   1.794  11.310 -0.1304 -0.0696  0.1557
  206loPI   GL1 3285   6.855   1.872  10.901 -0.1206  0.0336  0.1379
  206loPI   GL2 3286   6.599   2.119  10.785 -0.3861  0.1417  0.3030
  206loPI   C1A 3287   6.771   1.615  10.450  0.2065  0.1471  0.0232
  206loPI   C2A 3288   6.825   1.551   9.938  0.1579 -0.1414  0.0079
  206loPI   C3A 3289   6.913   1.534   9.528 -0.0467  0.0299  0.0316
  206loPI   C4A 3290   6.948   1.461   9.139  0.1722  0.1573 -0.0247
  206loPI   C5A 3291   7.018   1.629   8.809 -0.4737 -0.3004  0.0022
  206loPI   C6A 3292   7.128   1.620   8.431  0.1233  0.0285 -0.0741
  206loPI   C1B 3293   6.568   2.140  10.322 -0.0071 -0.3859 -0.3105
  206loPI   C2B 3294   6.594   2.022   9.939  0.2869  0.0300  0.2723
  206loPI   C3B 3295   6.589   1.932   9.504 -0.0403 -0.1195  0.0514
  206loPI   C4B 3296   6.551   1.798   9.068 -0.2157  0.1797  0.2527
  207loPI    C1 3297  17.432   3.152  11.587 -0.0696  0.2822 -0.0181
  207loPI    C2 3298  17.195   3.044  11.891  0.0111  0.1025 -0.0175
  207loPI    C3 3299  17.568   2.902  11.869  0.0351  0.1847 -0.1538
  207loPI   PO4 3300  17.225   3.191  11.415 -0.0877 -0.0843 -0.0922
  207loPI   GL1 3301  17.206   3.038  11.014  0.0018  0.1888  0.0278
  207loPI   GL2 3302  17.090   2.802  11.016  0.1268 -0.0874 -0.2618
  207loPI   C1A 3303  17.315   3.188  10.596  0.1417 -0.1127 -0.0367
  207loPI   C2A 3304  17.286   3.123  10.125  0.0139  0.1207 -0.1237
  207loPI   C3A 3305  17.240   3.022   9.638  0.1607 -0.3066 -0.0694
  207loPI   C4A 3306  17.312   3.076   9.266  0.0907  0.3353 -0.0253
  207loPI   C5A 3307  17.388   3.102   8.799 -0.0975  0.2029  0.0536
  207loPI   C6A 3308  17.377   3.038   8.328 -0.2308  0.3800  0.0645
  207loPI   C1B 3309  17.103   2.655  10.553  0.0518 -0.0312  0.1879
  207loPI   C2B 3310  17.130   2.672  10.086 -0.1531 -0.0325  0.1288
  207loPI   C3B 3311  17.165   2.550   9.611  0.0385  0.1199  0.1368
  207loPI   C4B 3312  17.105   2.636   9.125 -0.0608 -0.4004 -0.2453
  208loPI    C1 3313   2.500  11.738  11.804  0.0573  0.1206 -0.1623
  208loPI    C2 3314   2.582  12.023  12.072  0.3053 -0.0064 -0.0995
  208loPI    C3 3315   2.710  11.649  12.133  0.0397 -0.1181 -0.2137
  208loPI   PO4 3316   2.600  11.849  11.597 -0.0488  0.0293 -0.1982
  208loPI   GL1 3317   2.723  12.038  11.172  0.4154 -0.0527  0.1700
  208loPI   GL2 3318   2.537  11.866  10.962  0.0495 -0.1660  0.0640
  208loPI   C1A 3319   2.950  12.045  10.811 -0.3918 -0.0172  0.0087
  208loPI   C2A 3320   2.883  11.924  10.395 -0.2939  0.0408 -0.2055
  208loPI   C3A 3321   2.879  12.000   9.914 -0.1741 -0.1784 -0.0520
  208loPI   C4A 3322   2.943  12.000   9.508 -0.0572  0.0764 -0.2783
  208loPI   C5A 3323   2.916  11.898   8.993 -0.0557 -0.0323  0.1087
  208loPI   C6A 3324   2.881  12.035   8.545 -0.0149 -0.0645 -0.0697
  208loPI   C1B 3325   2.392  11.936  10.517  0.0984  0.2312  0.2735
  208loPI   C2B 3326   2.392  11.912   9.981  0.0389 -0.2991  0.1371
  208loPI   C3B 3327   2.442  11.896   9.571 -0.0122 -0.2221  0.1987
  208loPI   C4B 3328   2.420  11.803   9.105 -0.2089 -0.1009  0.0121
  209loPI    C1 3329  11.103  16.712  11.696  0.0730 -0.0407  0.0816
  209loPI    C2 3330  11.368  16.477  11.882 -0.0543 -0.1993  0.0645
  209loPI    C3 3331  10.983  16.469  11.991 -0.0594  0.0019  0.0635
  209loPI   PO4 3332  11.153  16.704  11.475  0.0898 -0.1572 -0.2839
  209loPI   GL1 3333  11.226  16.650  11.058  0.1860 -0.1746  0.0700
  209loPI   GL2 3334  11.407  16.476  11.027 -0.0397  0.1101 -0.0473
  209loPI   C1A 3335  11.138  16.654  10.644  0.1198  0.1473  0.0757
  209loPI   C2A 3336  11.181  16.797  10.154 -0.2696 -0.1297 -0.2611
  209loPI   C3A 3337  11.217  16.722   9.688 -0.2213  0.2258  0.0124
  209loPI   C4A 3338  11.286  16.699   9.225  0.2323  0.1377 -0.0277
  209loPI   C5A 3339  11.020  16.761   8.895  0.2544  0.0962 -0.1616
  209loPI   C6A 3340  11.096  16.752   8.501 -0.1527 -0.0993  0.1391
  209loPI   C1B 3341  11.556  16.302  10.600  0.0936 -0.0142  0.0333
  209loPI   C2B 3342  11.491  16.336  10.147 -0.0930  0.1796  0.2585
  209loPI   C3B 3343  11.594  16.358   9.649  0.1407 -0.1673 -0.1056
  209loPI   C4B 3344  11.522  16.212   9.251 -0.3743 -0.2819 -0.0012
  210loPI    C1 3345   9.959   7.363  11.889  0.0096  0.2453 -0.0685
  210loPI    C2 3346   9.865   7.672  12.125 -0.1517 -0.0831  0.3087
  210loPI    C3 3347  10.054   7.354  12.278 -0.0182 -0.1891 -0.0673
  210loPI   PO4 3348   9.915   7.426  11.672  0.2146 -0.2657  0.0258
  210loPI   GL1 3349   9.984   7.220  11.260  0.0095 -0.3871 -0.0506
  210loPI   GL2 3350   9.693   7.341  11.233  0.0164 -0.2062 -0.2590
  210loPI   C1A 3351  10.172   7.335  10.918 -0.2617  0.2788 -0.0343
  210loPI   C2A 3352  10.291   7.341  10.445  0.1647  0.0672  0.0025
  210loPI   C3A 3353  10.286   7.288   9.980  0.2316  0.1613 -0.0274
  210loPI   C4A 3354  10.362   7.298   9.419 -0.3166 -0.3035 -0.1294
  210loPI   C5A 3355  10.178   7.341   9.050  0.2424  0.0076 -0.1498
  210loPI   C6A 3356  10.117   7.287   8.624 -0.2095 -0.0078 -0.1563
  210loPI   C1B 3357   9.684   7.184  10.791  0.0004  0.0539 -0.1911
  210loPI   C2B 3358   9.770   7.228  10.437 -0.1322 -0.1438  0.2319
  210loPI   C3B 3359   9.760   7.279  10.026  0.1434  0.3885  0.0711
  210loPI   C4B 3360   9.806   7.229   9.542 -0.0707 -0.1186  0.1427
  211loPI    C1 3361   2.829  15.722  11.037  0.0261  0.0171 -0.1097
  211loPI    C2 3362   2.931  15.898  10.692  0.0553  0.0266 -0.0962
  211loPI    C3 3363   2.751  16.110  10.980 -0.1350 -0.0240 -0.1759
  211loPI   PO4 3364   2.787  15.442  10.990 -0.0697 -0.0102 -0.0546
  211loPI   GL1 3365   2.914  15.409  10.539 -0.0018  0.0044 -0.1668
  211loPI   GL2 3366   3.136  15.201  10.618  0.1580  0.0423 -0.0384
  211loPI   C1A 3367   2.868  15.689  10.270  0.0387  0.1169  0.0576
  211loPI   C2A 3368   2.828  15.736   9.766  0.0602 -0.0642  0.1731
  211loPI   C3A 3369   2.890  15.527   9.367 -0.0810 -0.2350  0.0931
  211loPI   C4A 3370   2.826  15.580   8.987 -0.0858  0.0107 -0.0676
  211loPI   C5A 3371   2.816  15.635   8.540 -0.2009 -0.0874 -0.3116
  211loPI   C6A 3372   2.830  15.423   8.139  0.1358 -0.0343  0.1166
  211loPI   C1B 3373   3.079  15.201  10.130 -0.2498 -0.0881  0.0768
  211loPI   C2B 3374   3.156  15.193   9.598 -0.1516  0.0649 -0.1629
  211loPI   C3B 3375   3.205  15.165   9.157  0.0633  0.0896  0.0327
  211loPI   C4B 3376   3.152  15.284   8.749  0.3128 -0.0337 -0.0431
  212loPI    C1 3377   9.459   1.549  11.515  0.0311 -0.0033 -0.0938
  212loPI    C2 3378   9.555   1.296  11.810  0.1083  0.0413 -0.0802
  212loPI    C3 3379   9.275   1.575  11.869 -0.0118 -0.0716 -0.1110
  212loPI   PO4 3380   9.538   1.388  11.256 -0.2469 -0.0853  0.1812
  212loPI   GL1 3381   9.545   1.204  10.818 -0.0202 -0.2762 -0.2045
  212loPI   GL2 3382   9.188   1.194  10.843  0.0567  0.2414 -0.0586
  212loPI   C1A 3383   9.513   1.215  10.421 -0.0171  0.2347 -0.2422
  212loPI   C2A 3384   9.511   1.216   9.923  0.0169  0.0588  0.0253
  212loPI   C3A 3385   9.552   1.265   9.535 -0.0133  0.0934 -0.0354
  212loPI   C4A 3386   9.559   1.312   9.083  0.2423 -0.1265 -0.1729
  212loPI   C5A 3387  10.000   1.330   8.836 -0.1396 -0.2688  0.1028
  212loPI   C6A 3388  10.404   1.106   8.592 -0.3968 -0.1414  0.2690
  212loPI   C1B 3389   8.994   1.141  10.496 -0.5894  0.0197  0.0179
  212loPI   C2B 3390   9.052   1.105  10.075 -0.0169 -0.3256 -0.2397
  212loPI   C3B 3391   9.054   1.194   9.616 -0.3201 -0.3054  0.4283
  212loPI   C4B 3392   9.113   1.089   9.182 -0.0058 -0.1221 -0.0839
  213loPI    C1 3393   0.411   6.343  11.559 -0.2880  0.1318 -0.0109
  213loPI    C2 3394   0.504   6.268  11.941 -0.0067 -0.0613 -0.1147
  213loPI    C3 3395   0.122   6.315  11.835 -0.0976 -0.1502  0.1651
  213loPI   PO4 3396   0.441   6.174  11.336  0.0224 -0.2718 -0.1334
  213loPI   GL1 3397   0.471   6.015  10.965  0.0219  0.1526 -0.1608
  213loPI   GL2 3398   0.163   6.065  10.955 -0.1186  0.1594 -0.0425
  213loPI   C1A 3399   0.325   5.877  10.498  0.0239 -0.1593 -0.0316
  213loPI   C2A 3400   0.376   5.858  10.053 -0.3328 -0.1316  0.1861
  213loPI   C3A 3401   0.269   5.851   9.683 -0.1711 -0.1681  0.2899
  213loPI   C4A 3402   0.346   5.889   9.302  0.2875  0.2989  0.2754
  213loPI   C5A 3403   0.251   5.704   8.868 -0.1880  0.0128  0.1408
  213loPI   C6A 3404   0.398   5.714   8.425 -0.0443 -0.0469 -0.3748
  213loPI   C1B 3405   0.028   6.284  10.608  0.1696 -0.2901 -0.1009
  213loPI   C2B 3406   0.016   6.338  10.142 -0.0722  0.0493 -0.0336
  213loPI   C3B 3407  -0.012   6.241   9.686 -0.0130  0.1538  0.0114
  213loPI   C4B 3408   0.067   6.339   9.250  0.1238  0.1366 -0.0235
  214loPI    C1 3409  13.829   6.812  11.803 -0.0221 -0.1422 -0.0916
  214loPI    C2 3410  13.791   6.472  12.012 -0.0376 -0.1344 -0.0816
  214loPI    C3 3411  13.470   6.640  11.842 -0.0483 -0.0668  0.0048
  214loPI   PO4 3412  14.036   6.679  11.585 -0.1022  0.1177  0.0626
  214loPI   GL1 3413  14.041   6.537  11.141  0.1453  0.3058  0.0586
  214loPI   GL2 3414  13.901   6.640  10.975  0.0297 -0.1199 -0.1099
  214loPI   C1A 3415  14.133   6.250  10.860 -0.1978 -0.0490  0.2998
  214loPI   C2A 3416  14.120   6.137  10.516 -0.1628 -0.1564 -0.2375
  214loPI   C3A 3417  14.172   6.211  10.152 -0.1839 -0.1018 -0.0856
  214loPI   C4A 3418  14.111   6.213   9.672 -0.0928  0.2244  0.0768
  214loPI   C5A 3419  14.106   6.197   9.179 -0.3287  0.1930  0.0094
  214loPI   C6A 3420  14.454   6.215   8.777  0.1475  0.1224 -0.3696
  214loPI   C1B 3421  13.820   6.575  10.567 -0.0115 -0.0128  0.2550
  214loPI   C2B 3422  13.768   6.502  10.133  0.5206  0.1647 -0.0366
  214loPI   C3B 3423  13.770   6.631   9.760 -0.1583  0.3896 -0.1650
  214loPI   C4B 3424  13.852   6.551   9.396  0.0637  0.4091 -0.1041
  215loPI    C1 3425   9.374  15.971  11.587 -0.1823  0.0518  0.1449
  215loPI    C2 3426   9.381  16.359  11.687 -0.1612  0.0662  0.0884
  215loPI    C3 3427   9.477  16.080  11.958 -0.0378  0.1086  0.0892
  215loPI   PO4 3428   9.317  16.023  11.317 -0.1990  0.2429  0.0584
  215loPI   GL1 3429   9.447  15.977  10.969 -0.1082  0.1027  0.1142
  215loPI   GL2 3430   9.573  15.755  10.755 -0.3409 -0.2062 -0.0796
  215loPI   C1A 3431   9.626  16.241  10.689  0.1593  0.0793 -0.2703
  215loPI   C2A 3432   9.608  16.499  10.366 -0.1002  0.0749  0.6406
  215loPI   C3A 3433   9.616  16.447   9.951  0.0405  0.1120  0.1440
  215loPI   C4A 3434   9.616  16.432   9.462  0.0015 -0.0168  0.2197
  215loPI   C5A 3435   9.717  16.651   9.064  0.0242  0.0027  0.2950
  215loPI   C6A 3436   9.764  16.657   8.643  0.1967  0.2296 -0.1272
  215loPI   C1B 3437   9.518  15.892  10.288  0.2364  0.0413  0.3571
  215loPI   C2B 3438   9.482  15.918   9.908 -0.0237 -0.1150  0.0890
  215loPI   C3B 3439   9.439  15.920   9.463  0.1770  0.0181 -0.0358
  215loPI   C4B 3440   9.605  15.858   9.005 -0.2784 -0.1926  0.2430
  216loPI    C1 3441  12.461  11.112  11.540  0.0130  0.2368  0.0607
  216loPI    C2 3442  12.783  11.087  11.776  0.2469 -0.0053 -0.2743
  216loPI    C3 3443  12.443  11.243  11.918  0.3582 -0.2107  0.2416
  216loPI   PO4 3444  12.417  10.896  11.472 -0.0061  0.4568 -0.1083
  216loPI   GL1 3445  12.355  10.713  11.062 -0.1136  0.0310  0.0230
  216loPI   GL2 3446  12.538  10.993  10.949  0.0048 -0.0695 -0.3147
  216loPI   C1A 3447  12.351  10.456  10.733  0.3003 -0.2302 -0.0843
  216loPI   C2A 3448  12.256  10.412  10.373  0.0732  0.1694 -0.1554
  216loPI   C3A 3449  12.315  10.405   9.921 -0.2540  0.0329  0.1343
  216loPI   C4A 3450  12.247  10.427   9.438 -0.0519  0.1548 -0.2440
  216loPI   C5A 3451  12.355  10.521   8.933 -0.0075  0.3741  0.0490
  216loPI   C6A 3452  12.379  10.745   8.504  0.3557 -0.1787  0.0673
  216loPI   C1B 3453  12.508  11.000  10.554 -0.0994  0.1513 -0.0786
  216loPI   C2B 3454  12.483  10.972  10.082 -0.0023  0.0756 -0.1688
  216loPI   C3B 3455  12.469  10.953   9.696  0.0585  0.1378 -0.1964
  216loPI   C4B 3456  12.357  10.883   9.287  0.2916  0.2117  0.0653
  217loPI    C1 3457   0.620  14.211  11.449 -0.0957 -0.0029 -0.0965
  217loPI    C2 3458   0.284  14.081  11.624  0.0840 -0.1245  0.1635
  217loPI    C3 3459   0.608  14.161  11.845  0.1875  0.1191 -0.0705
  217loPI   PO4 3460   0.526  14.161  11.155  0.0111 -0.0976  0.0729
  217loPI   GL1 3461   0.490  14.066  10.727 -0.0339  0.0180 -0.0827
  217loPI   GL2 3462   0.714  13.783  10.772 -0.1320 -0.1402  0.0486
  217loPI   C1A 3463   0.312  14.322  10.404 -0.2211 -0.0396 -0.0839
  217loPI   C2A 3464   0.286  14.357   9.992 -0.1661 -0.0760  0.2448
  217loPI   C3A 3465   0.336  14.258   9.553  0.0681 -0.0284 -0.0755
  217loPI   C4A 3466   0.376  14.217   9.171  0.0598  0.1282 -0.1276
  217loPI   C5A 3467   0.528  14.091   8.799 -0.0222 -0.0258  0.0989
  217loPI   C6A 3468   0.891  13.925   8.689 -0.0406 -0.2429  0.0416
  217loPI   C1B 3469   0.698  13.803  10.275 -0.1596  0.2207  0.0233
  217loPI   C2B 3470   0.617  13.902   9.854  0.1465  0.2192  0.1181
  217loPI   C3B 3471   0.761  13.954   9.448 -0.1726  0.0301  0.1082
  217loPI   C4B 3472   0.729  13.805   9.170 -0.0595  0.2750 -0.0654
  218loPI    C1 3473   1.816   1.890  11.737 -0.1415 -0.0761  0.0384
  218loPI    C2 3474   2.151   2.107  11.710 -0.0906 -0.1850 -0.2413
  218loPI    C3 3475   2.173   1.712  11.770 -0.1799 -0.1387  0.1181
  218loPI   PO4 3476   1.691   1.981  11.564 -0.0720 -0.1628  0.3969
  218loPI   GL1 3477   1.655   2.077  11.121  0.3689 -0.1402  0.2521
  218loPI   GL2 3478   1.419   2.089  10.909  0.2138  0.1486  0.1533
  218loPI   C1A 3479   1.841   2.120  10.682 -0.1492  0.1722  0.1420
  218loPI   C2A 3480   1.823   2.135  10.319 -0.0922 -0.0532 -0.4242
  218loPI   C3A 3481   1.826   2.073   9.934 -0.0876  0.1389 -0.1940
  218loPI   C4A 3482   1.832   2.099   9.545 -0.1390 -0.0494 -0.0716
  218loPI   C5A 3483   1.684   2.031   9.173  0.2020 -0.0884  0.0020
  218loPI   C6A 3484   1.423   2.029   8.739 -0.2620 -0.1230 -0.3523
  218loPI   C1B 3485   1.312   2.041  10.496 -0.2537  0.1025 -0.2123
  218loPI   C2B 3486   1.330   1.980  10.118  0.3385  0.0851  0.0767
  218loPI   C3B 3487   1.344   1.964   9.663  0.0597 -0.1811 -0.0281
  218loPI   C4B 3488   1.222   1.927   9.388  0.1205  0.0981 -0.1717
  219loPI    C1 3489   3.596  11.930  11.728  0.1205  0.0061 -0.1267
  219loPI    C2 3490   3.816  11.952  12.061 -0.0520 -0.2124  0.0045
  219loPI    C3 3491   3.455  12.124  12.048 -0.0164 -0.1445 -0.0943
  219loPI   PO4 3492   3.739  11.917  11.548  0.1765  0.3917 -0.4465
  219loPI   GL1 3493   3.635  12.033  11.126  0.1831  0.1642 -0.2501
  219loPI   GL2 3494   3.764  11.816  10.956  0.2152  0.1690  0.0087
  219loPI   C1A 3495   3.414  12.233  10.769  0.1109 -0.0711 -0.1423
  219loPI   C2A 3496   3.397  12.108  10.324  0.2605 -0.1189  0.0756
  219loPI   C3A 3497   3.359  12.112   9.845 -0.2470 -0.0648  0.1005
  219loPI   C4A 3498   3.450  12.058   9.415  0.1620  0.1151 -0.2537
  219loPI   C5A 3499   3.415  12.060   9.030 -0.1598 -0.0590 -0.0464
  219loPI   C6A 3500   3.377  11.971   8.660  0.1786 -0.1257  0.0993
  219loPI   C1B 3501   3.708  11.687  10.546 -0.1633 -0.0573 -0.0331
  219loPI   C2B 3502   3.752  11.721  10.119  0.0079  0.1268 -0.1691
  219loPI   C3B 3503   3.759  11.680   9.682 -0.0192 -0.0869 -0.3298
  219loPI   C4B 3504   3.716  11.641   9.260  0.2613  0.1358  0.0840
  220loPI    C1 3505  16.233  12.068  11.699  0.0860  0.1905  0.2126
  220loPI    C2 3506  15.972  11.998  11.994 -0.0351  0.1661  0.1004
  220loPI    C3 3507  16.309  11.783  11.970 -0.1564 -0.0218  0.0611
  220loPI   PO4 3508  16.146  12.049  11.434 -0.1672 -0.0928  0.0793
  220loPI   GL1 3509  16.217  12.042  11.040  0.0571 -0.1053 -0.2424
  220loPI   GL2 3510  16.464  11.831  11.082 -0.2254  0.1595 -0.1606
  220loPI   C1A 3511  16.255  12.099  10.562 -0.1316  0.0014  0.1267
  220loPI   C2A 3512  16.138  12.110  10.149 -0.0467  0.2452 -0.0150
  220loPI   C3A 3513  16.205  11.976   9.727 -0.0180 -0.1785  0.1169
  220loPI   C4A 3514  16.187  12.108   9.389  0.2193 -0.0781  0.0855
  220loPI   C5A 3515  16.138  11.858   8.962  0.1718  0.0278 -0.0211
  220loPI   C6A 3516  16.006  12.016   8.548  0.0697  0.2415 -0.1613
  220loPI   C1B 3517  16.563  11.732  10.630 -0.2849 -0.2315  0.1508
  220loPI   C2B 3518  16.469  11.781  10.212  0.4320  0.1191  0.1646
  220loPI   C3B 3519  16.563  11.628   9.748  0.1886 -0.2792 -0.0491
  220loPI   C4B 3520  16.461  11.637   9.363 -0.0748  0.1894  0.2106
  221loPI    C1 3521  14.932  14.651  11.716  0.0191  0.3008  0.3563
  221loPI    C2 3522  14.547  14.565  11.779  0.0036  0.0527 -0.0362
  221loPI    C3 3523  14.831  14.358  11.969 -0.0515  0.1840  0.1947
  221loPI   PO4 3524  14.958  14.786  11.400  0.3204  0.0759 -0.3566
  221loPI   GL1 3525  14.900  14.816  11.022 -0.1427 -0.1404  0.3113
  221loPI   GL2 3526  15.108  14.742  10.863  0.0115  0.0499  0.0519
  221loPI   C1A 3527  14.715  14.670  10.589  0.0708  0.1835 -0.4199
  221loPI   C2A 3528  14.708  14.631  10.270  0.3138  0.1777  0.1022
  221loPI   C3A 3529  14.608  14.623   9.801 -0.2796 -0.0718  0.3764
  221loPI   C4A 3530  14.635  14.550   9.302 -0.0938 -0.2034 -0.0622
  221loPI   C5A 3531  14.576  14.907   9.059 -0.0520  0.3737  0.2109
  221loPI   C6A 3532  14.550  15.200   8.719  0.2364 -0.1744  0.2511
  221loPI   C1B 3533  15.187  14.694  10.426  0.1881  0.2460  0.1886
  221loPI   C2B 3534  15.247  14.638   9.927  0.0727  0.0766 -0.0138
  221loPI   C3B 3535  15.274  14.625   9.472  0.0946 -0.3382 -0.2358
  221loPI   C4B 3536  15.151  14.682   9.031 -0.0123  0.1069 -0.1070
  222loPI    C1 3537   1.242  11.517  11.693 -0.1833  0.0756  0.0395
  222loPI    C2 3538   0.953  11.776  11.791 -0.4455 -0.1492 -0.1248
  222loPI    C3 3539   0.982  11.427  11.984 -0.3017 -0.1404 -0.1297
  222loPI   PO4 3540   1.226  11.525  11.443  0.2646 -0.3677 -0.1799
  222loPI   GL1 3541   1.295  11.585  11.070 -0.1066 -0.0424 -0.0730
  222loPI   GL2 3542   1.585  11.796  11.035 -0.1107 -0.0405 -0.0061
  222loPI   C1A 3543   0.898  11.632  10.854 -0.1413 -0.3454 -0.3588
  222loPI   C2A 3544   0.968  11.558  10.394 -0.0103 -0.1737 -0.0452
  222loPI   C3A 3545   0.880  11.465   9.971 -0.0325  0.0916  0.1325
  222loPI   C4A 3546   0.871  11.553   9.511 -0.0026  0.0748 -0.0681
  222loPI   C5A 3547   0.777  11.477   9.124  0.0569  0.0971 -0.0334
  222loPI   C6A 3548   0.521  11.231   8.881  0.2172  0.0236  0.1673
  222loPI   C1B 3549   1.434  11.698  10.634 -0.2059  0.1362  0.0435
  222loPI   C2B 3550   1.444  11.699  10.223 -0.1374 -0.0449 -0.0898
  222loPI   C3B 3551   1.331  11.655   9.768  0.1279  0.0193 -0.0118
  222loPI   C4B 3552   1.342  11.693   9.428 -0.1465 -0.0940 -0.1718
  223loPI    C1 3553  16.846   6.726  11.849  0.2078 -0.0093 -0.0812
  223loPI    C2 3554  16.730   7.099  11.933 -0.2022 -0.1523  0.0121
  223loPI    C3 3555  16.922   6.883  12.209  0.0709 -0.0010 -0.0554
  223loPI   PO4 3556  16.821   6.754  11.542 -0.0394 -0.2819  0.3143
  223loPI   GL1 3557  17.090   6.602  11.112 -0.0128 -0.0615  0.0313
  223loPI   GL2 3558  17.155   6.312  10.962  0.0909 -0.0807 -0.1961
  223loPI   C1A 3559  17.233   6.714  10.669  0.2101 -0.2674  0.0539
  223loPI   C2A 3560  17.195   6.708  10.256 -0.1980  0.0988 -0.1099
  223loPI   C3A 3561  17.174   6.670   9.824  0.1354  0.0155  0.3941
  223loPI   C4A 3562  17.131   6.650   9.416  0.2038  0.1233  0.2184
  223loPI   C5A 3563  17.155   6.678   8.938  0.1574  0.1337  0.0958
  223loPI   C6A 3564  16.832   6.732   8.631  0.0948  0.3523 -0.0447
  223loPI   C1B 3565  16.960   6.297  10.561 -0.0726 -0.0832 -0.0478
  223loPI   C2B 3566  16.985   6.292  10.103 -0.2393  0.2393  0.0806
  223loPI   C3B 3567  16.956   6.207   9.712  0.1801 -0.1038 -0.1586
  223loPI   C4B 3568  16.966   6.230   9.260  0.1183 -0.0779 -0.0507
  224loPI    C1 3569  14.656  11.724  11.308 -0.1622 -0.1738  0.0293
  224loPI    C2 3570  14.790  11.780  11.681  0.0580  0.0401 -0.0793
  224loPI    C3 3571  14.397  11.772  11.609  0.0151  0.0604  0.1478
  224loPI   PO4 3572  14.769  11.864  11.208 -0.0427  0.0497 -0.0414
  224loPI   GL1 3573  14.684  12.176  10.963 -0.0692 -0.0472 -0.1472
  224loPI   GL2 3574  14.308  12.182  10.770  0.0277 -0.0925 -0.1698
  224loPI   C1A 3575  14.784  12.442  10.611 -0.1162  0.1893  0.2076
  224loPI   C2A 3576  14.847  12.368  10.181  0.1364  0.0097 -0.1547
  224loPI   C3A 3577  14.868  12.368   9.694 -0.4673  0.3037 -0.2677
  224loPI   C4A 3578  14.764  12.393   9.238  0.0574 -0.1387 -0.0051
  224loPI   C5A 3579  14.955  12.295   8.933 -0.1462 -0.1168 -0.3186
  224loPI   C6A 3580  15.492  12.236   8.763 -0.1090 -0.0759  0.2612
  224loPI   C1B 3581  14.374  12.357  10.365 -0.0962 -0.3124  0.2990
  224loPI   C2B 3582  14.362  12.291   9.916  0.2875  0.0958 -0.0554
  224loPI   C3B 3583  14.352  12.149   9.487  0.0919 -0.1429  0.2840
  224loPI   C4B 3584  14.298  12.125   9.047  0.2628  0.1120  0.0449
  225loPI    C1 3585   7.663   7.430  11.816 -0.0768 -0.0068  0.0151
  225loPI    C2 3586   8.033   7.417  11.969 -0.0833 -0.2156  0.0159
  225loPI    C3 3587   7.785   7.106  12.017 -0.3047 -0.0253  0.1271
  225loPI   PO4 3588   7.665   7.537  11.506 -0.0204  0.1570 -0.1277
  225loPI   GL1 3589   7.818   7.541  11.138 -0.1898  0.2141  0.2362
  225loPI   GL2 3590   7.600   7.782  11.089 -0.0040 -0.1112 -0.0723
  225loPI   C1A 3591   7.992   7.398  10.737 -0.2754 -0.0182 -0.1010
  225loPI   C2A 3592   8.032   7.315  10.285  0.0296  0.0888  0.4072
  225loPI   C3A 3593   7.993   7.262   9.846 -0.0632 -0.4678  0.0587
  225loPI   C4A 3594   7.857   7.215   9.437 -0.0355 -0.2314  0.0279
  225loPI   C5A 3595   7.909   7.096   8.989  0.1185 -0.1835 -0.0523
  225loPI   C6A 3596   7.598   6.923   8.613  0.0816  0.2112  0.1623
  225loPI   C1B 3597   7.653   7.738  10.698 -0.2256 -0.1502  0.2318
  225loPI   C2B 3598   7.633   7.732  10.203 -0.1243  0.1143 -0.0722
  225loPI   C3B 3599   7.620   7.694   9.811 -0.1068 -0.1009 -0.1140
  225loPI   C4B 3600   7.555   7.606   9.392 -0.1499 -0.0403  0.1151
  226loPI    C1 3601  12.232  13.262  11.612  0.0889 -0.0428 -0.1870
  226loPI    C2 3602  12.069  12.909  11.706 -0.1188  0.0902 -0.0397
  226loPI    C3 3603  12.418  13.018  11.870 -0.1482  0.0344  0.0614
  226loPI   PO4 3604  12.236  13.309  11.399 -0.2374  0.0519 -0.0357
  226loPI   GL1 3605  12.370  13.228  11.032  0.3330 -0.5131  0.4451
  226loPI   GL2 3606  12.012  13.167  10.976 -0.1356  0.2037  0.1350
  226loPI   C1A 3607  12.348  13.223  10.615  0.0055  0.0504 -0.0231
  226loPI   C2A 3608  12.355  13.224  10.122 -0.0474 -0.4519  0.1472
  226loPI   C3A 3609  12.383  13.193   9.629  0.0240 -0.1153  0.2023
  226loPI   C4A 3610  12.204  13.156   9.209  0.1351 -0.0528 -0.1551
  226loPI   C5A 3611  12.442  13.174   8.797 -0.3483 -0.1459  0.1983
  226loPI   C6A 3612  12.353  13.050   8.360 -0.1636 -0.0577  0.1508
  226loPI   C1B 3613  11.862  13.110  10.584 -0.3302  0.1861  0.1861
  226loPI   C2B 3614  11.821  13.081  10.134  0.5389  0.1038  0.0538
  226loPI   C3B 3615  11.772  13.194   9.678  0.1707  0.3107  0.0952
  226loPI   C4B 3616  11.745  13.177   9.289  0.1480 -0.2349 -0.1716
  227loPI    C1 3617  13.163   7.974  11.819  0.0695  0.1855  0.0187
  227loPI    C2 3618  13.427   8.106  12.089  0.0055  0.3351  0.0094
  227loPI    C3 3619  13.168   7.817  12.187  0.3406  0.0033 -0.0598
  227loPI   PO4 3620  13.323   7.888  11.628 -0.1399  0.4184  0.1261
  227loPI   GL1 3621  13.311   7.885  11.133  0.1099  0.1876  0.0323
  227loPI   GL2 3622  13.358   8.179  11.032 -0.2432  0.1636 -0.2267
  227loPI   C1A 3623  13.314   7.910  10.665  0.0125  0.0768 -0.0896
  227loPI   C2A 3624  13.275   7.954  10.286 -0.1500  0.3803  0.2204
  227loPI   C3A 3625  13.354   7.875   9.816  0.1372 -0.0191  0.0892
  227loPI   C4A 3626  13.302   7.759   9.359  0.1934 -0.2217  0.0306
  227loPI   C5A 3627  13.523   7.899   9.041 -0.0099 -0.0812  0.0465
  227loPI   C6A 3628  13.764   7.825   8.636  0.0407 -0.1029 -0.1839
  227loPI   C1B 3629  13.406   8.372  10.579  0.0272  0.0672  0.1627
  227loPI   C2B 3630  13.417   8.449  10.160 -0.1098 -0.0691 -0.4254
  227loPI   C3B 3631  13.543   8.401   9.780 -0.4294 -0.1149  0.0805
  227loPI   C4B 3632  13.568   8.321   9.351 -0.1417  0.1728 -0.1159
  228loPI    C1 3633  14.233   0.126  11.665 -0.0242  0.1320 -0.1639
  228loPI    C2 3634  13.912  -0.063  11.810  0.1351 -0.0155  0.0010
  228loPI    C3 3635  13.983   0.317  11.913  0.0510 -0.0047  0.0199
  228loPI   PO4 3636  14.234   0.132  11.429 -0.0063 -0.0781 -0.0194
  228loPI   GL1 3637  14.265  -0.057  11.047 -0.1228  0.1505  0.0381
  228loPI   GL2 3638  14.000   0.135  10.918  0.0649  0.0129  0.3095
  228loPI   C1A 3639  14.298  -0.213  10.655  0.0207 -0.0230  0.0652
  228loPI   C2A 3640  14.258  -0.271  10.263  0.2717 -0.1448  0.0364
  228loPI   C3A 3641  14.199  -0.319   9.821  0.0812 -0.3197 -0.2740
  228loPI   C4A 3642  14.145  -0.303   9.471  0.4240 -0.0877  0.1141
  228loPI   C5A 3643  14.281  -0.368   9.072 -0.1557 -0.1478 -0.1153
  228loPI   C6A 3644  14.241  -0.034   8.738  0.1760 -0.0312  0.0336
  228loPI   C1B 3645  13.945   0.174  10.458 -0.0916 -0.0596  0.1684
  228loPI   C2B 3646  13.891   0.093  10.040  0.0137 -0.0746  0.0560
  228loPI   C3B 3647  13.851   0.078   9.678  0.0227 -0.0792 -0.0749
  228loPI   C4B 3648  13.971   0.138   9.239 -0.0807 -0.3096  0.0751
  229loPI    C1 3649  16.784   4.188  11.787 -0.1132  0.0968 -0.1996
  229loPI    C2 3650  17.184   4.205  11.776 -0.1172  0.1988 -0.1945
  229loPI    C3 3651  17.002   3.944  12.019 -0.0546  0.2282 -0.1155
  229loPI   PO4 3652  16.732   4.230  11.517  0.0723  0.3466 -0.0192
  229loPI   GL1 3653  16.767   4.366  11.210  0.0368  0.2150  0.4367
  229loPI   GL2 3654  16.814   3.994  11.004 -0.0095  0.3273  0.1784
  229loPI   C1A 3655  16.904   4.400  10.774  0.1253  0.2883  0.1903
  229loPI   C2A 3656  16.815   4.375  10.373  0.2355  0.2927 -0.0023
  229loPI   C3A 3657  16.798   4.370   9.905 -0.1075 -0.0599 -0.0924
  229loPI   C4A 3658  16.793   4.300   9.452  0.1514 -0.0508 -0.1847
  229loPI   C5A 3659  16.851   4.296   9.039  0.2388 -0.1979  0.2596
  229loPI   C6A 3660  16.897   4.264   8.608 -0.1589  0.5770 -0.1976
  229loPI   C1B 3661  16.651   3.907  10.620  0.0509 -0.0662  0.3450
  229loPI   C2B 3662  16.625   3.913  10.197 -0.0057 -0.2209  0.0736
  229loPI   C3B 3663  16.698   3.910   9.769  0.0425  0.0650 -0.3199
  229loPI   C4B 3664  16.599   3.786   9.371  0.1334  0.0055 -0.1329
  230loPI    C1 3665   9.875   2.237  11.662 -0.0785  0.0779 -0.2795
  230loPI    C2 3666  10.209   2.220  11.443 -0.0046 -0.0157 -0.1611
  230loPI    C3 3667  10.232   2.217  11.842 -0.1338  0.2396 -0.1499
  230loPI   PO4 3668   9.772   1.973  11.580 -0.1342  0.0818  0.0656
  230loPI   GL1 3669   9.708   1.874  11.184 -0.1563  0.1884  0.0484
  230loPI   GL2 3670  10.058   1.879  11.072 -0.0963 -0.0186  0.1792
  230loPI   C1A 3671   9.780   1.824  10.714  0.2320  0.1994  0.3197
  230loPI   C2A 3672   9.700   1.694  10.283  0.0645 -0.0506  0.2146
  230loPI   C3A 3673   9.652   1.756   9.828  0.0247 -0.2150  0.2664
  230loPI   C4A 3674   9.767   1.703   9.441 -0.2162  0.3357  0.2937
  230loPI   C5A 3675   9.896   1.806   8.975 -0.0486  0.1724 -0.2985
  230loPI   C6A 3676   9.772   1.850   8.594 -0.0100 -0.0918  0.0791
  230loPI   C1B 3677  10.331   1.803  10.756 -0.0874 -0.1427 -0.0856
  230loPI   C2B 3678  10.213   1.770  10.325  0.0632 -0.1440  0.2847
  230loPI   C3B 3679  10.135   1.742   9.814  0.4810 -0.0060 -0.1691
  230loPI   C4B 3680  10.301   1.726   9.388  0.2105  0.2882  0.4521
  231loPI    C1 3681  17.426  15.090  11.287  0.0455  0.0517  0.0924
  231loPI    C2 3682  17.183  15.169  11.595 -0.0426  0.1737 -0.0073
  231loPI    C3 3683  17.052  15.217  11.220  0.1564  0.3051 -0.0611
  231loPI   PO4 3684  17.585  15.253  11.337 -0.2369  0.4379 -0.1324
  231loPI   GL1 3685  17.553  15.626  11.116 -0.0048 -0.0184  0.1721
  231loPI   GL2 3686  17.271  15.649  11.096  0.1709 -0.1444 -0.0512
  231loPI   C1A 3687  17.388  15.680  10.618  0.0320  0.2414  0.4425
  231loPI   C2A 3688  17.438  15.601  10.177  0.2049  0.1550 -0.2094
  231loPI   C3A 3689  17.380  15.597   9.770  0.1287 -0.2158 -0.0890
  231loPI   C4A 3690  17.323  15.470   9.404  0.2058 -0.2119 -0.1845
  231loPI   C5A 3691  17.309  15.380   8.995  0.0096 -0.1869  0.0112
  231loPI   C6A 3692  17.123  15.425   8.594 -0.1044 -0.2979  0.0129
  231loPI   C1B 3693  17.235  15.261  10.766  0.4064  0.1310 -0.0881
  231loPI   C2B 3694  17.234  15.109  10.279 -0.0271  0.1029  0.2917
  231loPI   C3B 3695  17.241  15.041   9.767 -0.0531  0.1350 -0.0300
  231loPI   C4B 3696  17.182  14.951   9.303 -0.1892  0.0085 -0.0859
  232loPI    C1 3697   0.758  10.001  11.760 -0.1679 -0.0564  0.1339
  232loPI    C2 3698   0.785  10.031  12.158 -0.1411 -0.2768  0.1499
  232loPI    C3 3699   0.473  10.192  11.966  0.1094  0.2941  0.2018
  232loPI   PO4 3700   0.913  10.134  11.675  0.1751 -0.0732  0.1372
  232loPI   GL1 3701   1.040  10.285  11.309 -0.0990  0.0674  0.0364
  232loPI   GL2 3702   1.001  10.628  11.273  0.0864  0.2081 -0.0121
  232loPI   C1A 3703   0.926  10.173  10.982  0.0355 -0.0189 -0.0098
  232loPI   C2A 3704   0.883  10.090  10.565  0.0445 -0.0593 -0.1436
  232loPI   C3A 3705   0.933  10.167  10.132  0.2273  0.1511  0.1913
  232loPI   C4A 3706   0.845  10.188   9.667  0.1369  0.2136 -0.0603
  232loPI   C5A 3707   0.925  10.134   9.249  0.2413 -0.0038  0.0308
  232loPI   C6A 3708   0.665  10.131   8.833  0.1143 -0.1376 -0.0915
  232loPI   C1B 3709   1.052  10.729  10.894  0.2766  0.0922 -0.1586
  232loPI   C2B 3710   1.036  10.623  10.441  0.0038 -0.0022 -0.2405
  232loPI   C3B 3711   1.114  10.748  10.036  0.1162  0.0316  0.4298
  232loPI   C4B 3712   1.025  10.620   9.539 -0.1368  0.3383  0.1119
  233loPI    C1 3713  11.334  12.161  11.694  0.0784 -0.0381  0.0418
  233loPI    C2 3714  11.501  12.269  12.041  0.0483  0.0182  0.0390
  233loPI    C3 3715  11.316  11.916  12.009 -0.0849  0.0794  0.1256
  233loPI   PO4 3716  11.457  12.267  11.544 -0.0286 -0.1731 -0.2185
  233loPI   GL1 3717  11.412  12.406  11.113 -0.0985 -0.0586 -0.0041
  233loPI   GL2 3718  11.732  12.349  11.110 -0.1607 -0.2101  0.0164
  233loPI   C1A 3719  11.475  12.113  10.718 -0.1122 -0.0024  0.0363
  233loPI   C2A 3720  11.466  12.047  10.219  0.3161  0.0442 -0.3026
  233loPI   C3A 3721  11.501  12.143   9.785  0.1244 -0.1418  0.0646
  233loPI   C4A 3722  11.455  12.221   9.357 -0.0584  0.1425 -0.0606
  233loPI   C5A 3723  11.730  12.205   9.089  0.3429 -0.2656  0.2415
  233loPI   C6A 3724  11.788  12.107   8.643  0.2033 -0.2071  0.3029
  233loPI   C1B 3725  11.962  12.263  10.752 -0.1083 -0.1595  0.0167
  233loPI   C2B 3726  11.956  12.240  10.257  0.3351 -0.0773 -0.0035
  233loPI   C3B 3727  12.021  12.326   9.832  0.2664 -0.1682  0.0777
  233loPI   C4B 3728  12.067  12.116   9.450 -0.1381 -0.3657 -0.1053
  234loPI    C1 3729   9.256  15.016  11.489  0.0645 -0.0991 -0.2133
  234loPI    C2 3730   9.576  15.221  11.612 -0.2177  0.1600  0.1092
  234loPI    C3 3731   9.509  14.853  11.753  0.0101  0.0479 -0.0684
  234loPI   PO4 3732   9.230  15.066  11.291 -0.0652  0.1156  0.1288
  234loPI   GL1 3733   9.162  14.728  11.002 -0.1784  0.0742  0.1988
  234loPI   GL2 3734   9.491  14.730  10.888 -0.0653 -0.1386  0.1419
  234loPI   C1A 3735   9.148  15.020  10.653 -0.0213  0.1200  0.1217
  234loPI   C2A 3736   9.130  14.822  10.277 -0.1550 -0.0309 -0.0905
  234loPI   C3A 3737   9.149  14.930   9.844 -0.3190 -0.1007  0.0147
  234loPI   C4A 3738   9.015  14.954   9.469  0.0493 -0.0078 -0.0550
  234loPI   C5A 3739   9.228  14.793   9.016 -0.1490 -0.1228  0.3869
  234loPI   C6A 3740   8.918  14.733   8.569 -0.0141 -0.0304  0.0452
  234loPI   C1B 3741   9.568  14.480  10.517 -0.1859  0.2495 -0.0143
  234loPI   C2B 3742   9.543  14.428  10.011 -0.1352  0.1373 -0.0987
  234loPI   C3B 3743   9.479  14.576   9.568  0.0250 -0.0018  0.1232
  234loPI   C4B 3744   9.594  14.469   9.149 -0.0946  0.0868 -0.2467
  235loPI    C1 3745  10.398   3.853  11.609  0.0856 -0.0059  0.1547
  235loPI    C2 3746  10.560   3.489  11.567  0.0445 -0.0314  0.2162
  235loPI    C3 3747  10.427   3.610  11.925 -0.1970 -0.0635  0.1392
  235loPI   PO4 3748  10.522   4.037  11.515  0.1580 -0.1495 -0.1808
  235loPI   GL1 3749  10.549   4.312  11.252  0.0705 -0.0097 -0.2991
  235loPI   GL2 3750  10.332   4.534  11.201 -0.0459 -0.1040 -0.1411
  235loPI   C1A 3751  10.702   4.164  10.843  0.0093 -0.2664  0.2249
  235loPI   C2A 3752  10.622   4.161  10.416 -0.1397 -0.3212 -0.2009
  235loPI   C3A 3753  10.626   4.146  10.009  0.0825 -0.0067  0.1528
  235loPI   C4A 3754  10.516   4.103   9.587 -0.0011  0.2167 -0.2073
  235loPI   C5A 3755  10.495   4.094   9.104 -0.1358 -0.2503 -0.2440
  235loPI   C6A 3756  10.130   4.137   8.888 -0.4932 -0.1590  0.2682
  235loPI   C1B 3757  10.323   4.566  10.862  0.1545 -0.3100  0.1386
  235loPI   C2B 3758  10.272   4.670  10.388 -0.0933 -0.2563 -0.1245
  235loPI   C3B 3759  10.243   4.622   9.926  0.1705 -0.2139  0.0473
  235loPI   C4B 3760  10.228   4.481   9.622 -0.2080  0.3243  0.1478
  236loPI    C1 3761  12.793   7.193  11.685  0.1650  0.1520 -0.1082
  236loPI    C2 3762  12.597   6.876  11.831  0.0353  0.2661 -0.0322
  236loPI    C3 3763  12.935   7.001  12.006  0.0923  0.1639 -0.0687
  236loPI   PO4 3764  12.817   7.102  11.427 -0.0653  0.2708  0.0409
  236loPI   GL1 3765  12.579   7.057  11.039  0.1306 -0.1989 -0.1199
  236loPI   GL2 3766  12.705   7.357  10.824 -0.2506 -0.0443 -0.3839
  236loPI   C1A 3767  12.566   6.885  10.656 -0.1750 -0.0701 -0.1850
  236loPI   C2A 3768  12.430   6.763  10.333 -0.0054  0.0032  0.3949
  236loPI   C3A 3769  12.420   6.723   9.837 -0.1417 -0.0929 -0.1707
  236loPI   C4A 3770  12.372   6.701   9.399  0.1333  0.2536  0.1895
  236loPI   C5A 3771  12.253   6.594   9.013 -0.0076  0.0744 -0.1763
  236loPI   C6A 3772  12.105   6.341   8.585  0.1626 -0.0517  0.1114
  236loPI   C1B 3773  12.619   7.350  10.385 -0.1513  0.1256 -0.1909
  236loPI   C2B 3774  12.590   7.151  10.111 -0.0709  0.1275 -0.0780
  236loPI   C3B 3775  12.665   7.262   9.702  0.0605 -0.2448  0.7186
  236loPI   C4B 3776  12.629   7.218   9.255 -0.1455  0.0066  0.0788
  237loPI    C1 3777   0.724   5.383  11.442 -0.0575 -0.0849  0.0198
  237loPI    C2 3778   0.780   5.748  11.289  0.4092 -0.0653  0.2223
  237loPI    C3 3779   0.630   5.706  11.657 -0.0454 -0.0945  0.0396
  237loPI   PO4 3780   0.920   5.270  11.340  0.0014  0.0086  0.1067
  237loPI   GL1 3781   0.954   5.061  10.960 -0.2403  0.3421 -0.1350
  237loPI   GL2 3782   0.949   4.706  10.950  0.1000  0.2690 -0.0597
  237loPI   C1A 3783   1.039   5.137  10.619  0.0211  0.2107  0.3274
  237loPI   C2A 3784   1.003   5.072  10.193  0.3579  0.1026  0.0316
  237loPI   C3A 3785   0.993   5.128   9.779  0.0480 -0.0264  0.1038
  237loPI   C4A 3786   0.988   5.128   9.394 -0.2767 -0.1191  0.0136
  237loPI   C5A 3787   1.145   5.367   9.014 -0.2156 -0.1495  0.0973
  237loPI   C6A 3788   1.019   5.466   8.561 -0.2396 -0.1775  0.0304
  237loPI   C1B 3789   0.906   4.651  10.552 -0.1486  0.1477 -0.1659
  237loPI   C2B 3790   0.814   4.604  10.115  0.0093 -0.0356  0.1914
  237loPI   C3B 3791   0.843   4.619   9.736 -0.1402 -0.0409 -0.0796
  237loPI   C4B 3792   0.853   4.541   9.337 -0.0806 -0.0199  0.1088
  238loPI    C1 3793  11.727   2.232  11.710  0.2380 -0.0763  0.0034
  238loPI    C2 3794  11.861   1.867  11.617 -0.0876 -0.1053 -0.3836
  238loPI    C3 3795  11.496   1.912  11.772 -0.0016  0.0489 -0.2220
  238loPI   PO4 3796  11.823   2.411  11.441 -0.1361 -0.1222 -0.3315
  238loPI   GL1 3797  11.813   2.579  11.014 -0.2958  0.1491 -0.0228
  238loPI   GL2 3798  11.799   2.231  11.014 -0.3805  0.0074  0.0600
  238loPI   C1A 3799  11.944   2.568  10.623  0.1847 -0.3422 -0.0158
  238loPI   C2A 3800  11.946   2.573  10.230  0.0092  0.1326 -0.0744
  238loPI   C3A 3801  11.871   2.529   9.844  0.0599 -0.2612  0.0420
  238loPI   C4A 3802  11.929   2.454   9.403 -0.2169 -0.1182  0.0464
  238loPI   C5A 3803  11.855   2.496   8.951  0.3550  0.1901 -0.2526
  238loPI   C6A 3804  11.539   2.546   8.656 -0.2064 -0.2302  0.0003
  238loPI   C1B 3805  11.773   2.097  10.644  0.2126 -0.0998  0.0307
  238loPI   C2B 3806  11.785   2.095  10.184  0.1359 -0.2414 -0.1584
  238loPI   C3B 3807  11.784   2.014   9.789 -0.0801  0.3822  0.0587
  238loPI   C4B 3808  11.788   1.971   9.369  0.3646 -0.0629  0.0838
  239loPI    C1 3809   1.615  16.680  11.216  0.0902 -0.1097 -0.0256
  239loPI    C2 3810   1.230  16.573  11.229  0.0101  0.1425 -0.2245
  239loPI    C3 3811   1.426  16.660  11.567 -0.0506 -0.1742 -0.1043
  239loPI   PO4 3812   1.641  16.693  11.007  0.0242 -0.2176 -0.0612
  239loPI   GL1 3813   1.843  16.912  10.641  0.0326  0.0375 -0.2133
  239loPI   GL2 3814   2.173  16.872  10.511 -0.1700 -0.0431  0.0506
  239loPI   C1A 3815   1.799  16.821  10.199 -0.4269 -0.2014  0.1507
  239loPI   C2A 3816   1.682  16.808   9.791 -0.0233 -0.0226 -0.0626
  239loPI   C3A 3817   1.845  16.697   9.392  0.1281  0.1576  0.1612
  239loPI   C4A 3818   1.812  16.781   8.917 -0.4324  0.2043  0.1090
  239loPI   C5A 3819   1.881  16.993   8.527 -0.0302 -0.1536  0.0236
  239loPI   C6A 3820   2.066  17.265   8.175 -0.1843 -0.0552 -0.1587
  239loPI   C1B 3821   2.298  16.892  10.073 -0.1181  0.1275 -0.0740
  239loPI   C2B 3822   2.295  16.825   9.617 -0.1085  0.1773  0.1370
  239loPI   C3B 3823   2.326  16.851   9.226 -0.3271  0.0233 -0.0428
  239loPI   C4B 3824   2.312  16.749   8.857 -0.0532 -0.0003 -0.0146
  240loPI    C1 3825   5.153  15.296  11.548  0.0168  0.2058 -0.0447
  240loPI    C2 3826   5.340  15.596  11.361  0.2890  0.1984  0.2077
  240loPI    C3 3827   5.255  15.626  11.750 -0.1731  0.1686  0.1149
  240loPI   PO4 3828   5.141  15.091  11.328  0.3761 -0.4988  0.1527
  240loPI   GL1 3829   5.334  15.066  11.019 -0.2864  0.0206  0.1210
  240loPI   GL2 3830   5.466  15.316  10.933  0.2575 -0.1664 -0.0410
  240loPI   C1A 3831   5.089  15.124  10.692  0.0584  0.0809 -0.0056
  240loPI   C2A 3832   5.053  15.115  10.288 -0.0613  0.0678  0.1588
  240loPI   C3A 3833   5.036  15.026   9.806 -0.2026 -0.1899 -0.0116
  240loPI   C4A 3834   4.989  15.041   9.371 -0.3082  0.1328 -0.1098
  240loPI   C5A 3835   5.045  15.062   8.921 -0.1754 -0.0460 -0.0786
  240loPI   C6A 3836   5.149  15.223   8.515 -0.0544 -0.0622 -0.2888
  240loPI   C1B 3837   5.548  15.205  10.468  0.0452  0.0103 -0.0041
  240loPI   C2B 3838   5.467  15.192  10.048  0.1743  0.0008 -0.1782
  240loPI   C3B 3839   5.478  15.111   9.580 -0.1502 -0.0489  0.0355
  240loPI   C4B 3840   5.551  15.160   9.161 -0.3223 -0.0396  0.1244
  241loPI    C1 3841   1.365   2.378  11.658 -0.0381  0.2122 -0.2097
  241loPI    C2 3842   0.996   2.237  11.721  0.0523 -0.0347 -0.2192
  241loPI    C3 3843   1.137   2.536  11.946 -0.1745  0.1026 -0.2560
  241loPI   PO4 3844   1.377   2.446  11.353 -0.1679  0.0083 -0.1102
  241loPI   GL1 3845   1.176   2.562  11.007 -0.2994  0.2050 -0.0632
  241loPI   GL2 3846   1.253   2.824  10.911  0.1273 -0.1034  0.3262
  241loPI   C1A 3847   0.907   2.413  10.736 -0.0788  0.0421  0.0572
  241loPI   C2A 3848   0.983   2.418  10.324 -0.0855  0.0310  0.3363
  241loPI   C3A 3849   0.924   2.416   9.893  0.2051 -0.1688  0.0391
  241loPI   C4A 3850   0.949   2.334   9.450  0.0297  0.1046 -0.0936
  241loPI   C5A 3851   0.897   2.296   9.006 -0.1809 -0.1450  0.1045
  241loPI   C6A 3852   0.750   2.550   8.709  0.2006 -0.0885  0.0216
  241loPI   C1B 3853   1.192   2.903  10.477 -0.3599 -0.0693 -0.1102
  241loPI   C2B 3854   1.192   2.860  10.009  0.0216 -0.1225 -0.0977
  241loPI   C3B 3855   1.104   2.776   9.565 -0.2889  0.2199 -0.3060
  241loPI   C4B 3856   1.091   2.852   9.059  0.5582  0.1846 -0.0458
  242loPI    C1 3857  13.141   1.774  11.539  0.1298 -0.0509 -0.1716
  242loPI    C2 3858  13.452   1.623  11.739  0.0864 -0.0275 -0.0857
  242loPI    C3 3859  13.107   1.422  11.727 -0.0676  0.2045  0.2863
  242loPI   PO4 3860  13.245   1.943  11.444  0.1268  0.1532 -0.3618
  242loPI   GL1 3861  13.111   1.999  10.984  0.0142 -0.1778  0.1266
  242loPI   GL2 3862  13.104   1.718  10.975  0.2036  0.0455 -0.1273
  242loPI   C1A 3863  13.281   2.318  10.643 -0.0122 -0.4060  0.0885
  242loPI   C2A 3864  13.257   2.339  10.185 -0.3303  0.3293  0.1061
  242loPI   C3A 3865  13.242   2.282   9.760  0.0467  0.4383  0.4718
  242loPI   C4A 3866  13.290   2.335   9.408 -0.2585 -0.0845  0.4004
  242loPI   C5A 3867  13.211   2.270   8.974 -0.1101 -0.3078 -0.0556
  242loPI   C6A 3868  13.262   2.179   8.528  0.2495  0.1901 -0.2543
  242loPI   C1B 3869  13.125   1.789  10.512  0.0673  0.1224  0.2292
  242loPI   C2B 3870  13.047   1.855  10.016 -0.0386 -0.0837 -0.1704
  242loPI   C3B 3871  13.073   1.846   9.588 -0.0873  0.1553  0.1619
  242loPI   C4B 3872  12.988   1.781   9.133 -0.1801  0.1479  0.1318
  243loPI    C1 3873  13.127  13.093  11.572  0.0790 -0.1168  0.0873
  243loPI    C2 3874  13.394  12.813  11.674  0.1610 -0.0613  0.0265
  243loPI    C3 3875  13.293  13.099  11.936  0.0173 -0.1935  0.1170
  243loPI   PO4 3876  13.131  13.056  11.337  0.0934  0.3054 -0.2364
  243loPI   GL1 3877  13.126  13.049  10.849 -0.1458  0.1664 -0.2505
  243loPI   GL2 3878  12.885  13.286  10.942  0.1082  0.3446 -0.2216
  243loPI   C1A 3879  13.153  12.999  10.407  0.0911 -0.2448 -0.1857
  243loPI   C2A 3880  13.200  12.958   9.945 -0.1200  0.0741  0.1793
  243loPI   C3A 3881  13.155  12.906   9.505  0.1791 -0.2520 -0.0739
  243loPI   C4A 3882  13.072  12.912   9.084  0.0173 -0.0402 -0.0132
  243loPI   C5A 3883  12.902  13.034   8.651 -0.0208 -0.1894  0.1268
  243loPI   C6A 3884  12.832  12.981   8.259  0.0859  0.1179 -0.0095
  243loPI   C1B 3885  12.872  13.393  10.459 -0.0303  0.1876 -0.3253
  243loPI   C2B 3886  12.919  13.382  10.093  0.1825  0.2786  0.0435
  243loPI   C3B 3887  12.850  13.361   9.686 -0.1485 -0.1816 -0.2055
  243loPI   C4B 3888  12.686  13.297   9.247 -0.1348  0.5084 -0.0242
  244loPI    C1 3889  16.787  12.322  11.664  0.0435 -0.0161 -0.1411
  244loPI    C2 3890  16.576  12.243  11.333 -0.3201 -0.0420  0.0910
  244loPI    C3 3891  16.453  12.528  11.586  0.0010  0.0358  0.1650
  244loPI   PO4 3892  17.035  12.383  11.509 -0.3891 -0.0298 -0.0559
  244loPI   GL1 3893  17.009  12.403  11.119  0.3401  0.1021 -0.1086
  244loPI   GL2 3894  17.236  12.519  10.929 -0.1536 -0.0317 -0.2824
  244loPI   C1A 3895  16.773  12.279  10.827 -0.1103 -0.1499  0.3441
  244loPI   C2A 3896  16.715  12.252  10.326  0.1037 -0.1356 -0.0902
  244loPI   C3A 3897  16.685  12.189   9.879  0.0680 -0.3101 -0.0438
  244loPI   C4A 3898  16.689  12.089   9.481 -0.2319  0.3526 -0.3964
  244loPI   C5A 3899  16.638  12.096   9.152 -0.2448  0.1356  0.0959
  244loPI   C6A 3900  16.590  11.931   8.744 -0.0460  0.0685 -0.2341
  244loPI   C1B 3901  17.347  12.669  10.576  0.3747  0.1751 -0.2882
  244loPI   C2B 3902  17.304  12.819  10.120 -0.0332  0.0486 -0.2061
  244loPI   C3B 3903  17.381  12.760   9.783 -0.0716  0.0923  0.0763
  244loPI   C4B 3904  17.340  12.791   9.356  0.4158 -0.3165 -0.1133
  245loPI    C1 3905  16.997   8.020  11.641  0.0429  0.1630 -0.0064
  245loPI    C2 3906  16.644   7.993  11.828  0.2086 -0.2434  0.2632
  245loPI    C3 3907  16.902   8.282  11.928 -0.0682  0.0973  0.0176
  245loPI   PO4 3908  17.001   7.986  11.394 -0.0406  0.1192 -0.0232
  245loPI   GL1 3909  16.753   8.058  11.015 -0.2007  0.2657 -0.3511
  245loPI   GL2 3910  16.944   8.312  11.001 -0.2681 -0.2028 -0.0505
  245loPI   C1A 3911  16.667   7.994  10.513  0.2163  0.1734  0.1852
  245loPI   C2A 3912  16.640   8.066  10.040  0.2015 -0.2135 -0.0566
  245loPI   C3A 3913  16.628   7.972   9.612  0.0307  0.1027 -0.1296
  245loPI   C4A 3914  16.637   8.102   9.131 -0.1379  0.1463  0.2237
  245loPI   C5A 3915  16.966   8.222   8.833 -0.1298  0.0403 -0.3156
  245loPI   C6A 3916  17.068   8.559   8.567  0.2260  0.0140 -0.1072
  245loPI   C1B 3917  16.917   8.505  10.619  0.2994 -0.1466 -0.0623
  245loPI   C2B 3918  16.837   8.450  10.300 -0.1947 -0.3831  0.1436
  245loPI   C3B 3919  16.834   8.543   9.882  0.2711  0.0312 -0.2621
  245loPI   C4B 3920  16.797   8.423   9.503 -0.0985  0.2064  0.1396
  246loPI    C1 3921   1.664  11.341  11.850 -0.0248 -0.1732 -0.1216
  246loPI    C2 3922   1.783  11.102  12.147  0.1141  0.1717  0.1070
  246loPI    C3 3923   1.420  11.269  12.159  0.0620  0.0676  0.0055
  246loPI   PO4 3924   1.641  11.186  11.576  0.2002 -0.2603 -0.0313
  246loPI   GL1 3925   1.500  11.123  11.171 -0.3102  0.0190 -0.1182
  246loPI   GL2 3926   1.423  10.837  11.207  0.0726 -0.1366 -0.0541
  246loPI   C1A 3927   1.731  11.344  10.816  0.1071 -0.0505  0.0061
  246loPI   C2A 3928   1.765  11.363  10.399  0.1515 -0.2232  0.0662
  246loPI   C3A 3929   1.788  11.357   9.978 -0.0783  0.3320 -0.1722
  246loPI   C4A 3930   1.705  11.328   9.501  0.2125  0.0255 -0.2402
  246loPI   C5A 3931   1.774  11.158   9.142 -0.1427  0.0128 -0.3739
  246loPI   C6A 3932   1.815  11.183   8.718 -0.3597  0.0639 -0.2577
  246loPI   C1B 3933   1.621  10.904  10.704 -0.4454  0.2944  0.2381
  246loPI   C2B 3934   1.605  10.817  10.251  0.0306  0.3651  0.0570
  246loPI   C3B 3935   1.561  10.835   9.844 -0.2595  0.1282  0.0759
  246loPI   C4B 3936   1.592  10.807   9.464  0.1938  0.0037  0.1249
  247loPI    C1 3937   1.575   4.591  11.611 -0.1606 -0.1021  0.1192
  247loPI    C2 3938   1.701   4.422  11.951  0.2430  0.0746  0.0633
  247loPI    C3 3939   1.647   4.818  11.932 -0.1952  0.0185  0.0423
  247loPI   PO4 3940   1.372   4.351  11.562 -0.0655  0.0985  0.0092
  247loPI   GL1 3941   1.171   4.314  11.110 -0.1673 -0.0491  0.1645
  247loPI   GL2 3942   1.569   4.182  11.041 -0.2687  0.0193 -0.1868
  247loPI   C1A 3943   1.191   4.221  10.687 -0.1010 -0.0262  0.4580
  247loPI   C2A 3944   1.171   4.186  10.276 -0.1845  0.2107 -0.0166
  247loPI   C3A 3945   1.074   4.206   9.902 -0.0447  0.1374  0.0226
  247loPI   C4A 3946   1.152   4.133   9.498 -0.0795 -0.3025  0.1887
  247loPI   C5A 3947   1.052   4.243   9.040 -0.0147 -0.0034 -0.1832
  247loPI   C6A 3948   0.667   4.351   8.887  0.1610  0.1556 -0.3020
  247loPI   C1B 3949   1.648   4.272  10.558 -0.0989  0.0043 -0.0368
  247loPI   C2B 3950   1.751   4.369  10.137 -0.1348  0.0643 -0.0356
  247loPI   C3B 3951   1.600   4.286   9.752 -0.1024 -0.0492  0.0955
  247loPI   C4B 3952   1.567   4.294   9.362 -0.1258  0.0926 -0.1364
  248loPI    C1 3953   8.250   3.799  11.718 -0.3787  0.0737 -0.2385
  248loPI    C2 3954   8.299   3.533  12.013 -0.0020  0.1583 -0.2192
  248loPI    C3 3955   8.003   3.801  12.032 -0.1153  0.0222 -0.0262
  248loPI   PO4 3956   8.256   3.596  11.491 -0.0457  0.0590  0.2101
  248loPI   GL1 3957   8.340   3.350  11.067 -0.1644  0.3022  0.1877
  248loPI   GL2 3958   8.052   3.525  10.987 -0.0846  0.0333  0.1162
  248loPI   C1A 3959   8.359   3.292  10.617 -0.0487  0.1853 -0.0851
  248loPI   C2A 3960   8.402   3.331  10.171  0.0036  0.0876  0.1429
  248loPI   C3A 3961   8.356   3.280   9.700  0.2487 -0.0813  0.4493
  248loPI   C4A 3962   8.316   3.298   9.216 -0.0109 -0.0867  0.3918
  248loPI   C5A 3963   8.126   3.246   8.873  0.2620  0.0582 -0.0554
  248loPI   C6A 3964   8.169   3.375   8.457  0.0229  0.0977  0.0303
  248loPI   C1B 3965   8.035   3.751  10.649  0.1932  0.0175  0.0433
  248loPI   C2B 3966   8.075   3.704  10.202 -0.2073  0.0164 -0.2676
  248loPI   C3B 3967   8.031   3.617   9.798 -0.1769 -0.0421  0.0345
  248loPI   C4B 3968   7.965   3.651   9.302 -0.3697  0.1081 -0.1132
  249loPI    C1 3969   8.573   6.583  12.073 -0.0683 -0.1693 -0.0807
  249loPI    C2 3970   8.526   6.326  12.376 -0.2531 -0.2229 -0.1537
  249loPI    C3 3971   8.349   6.685  12.388 -0.1688 -0.1813 -0.1478
  249loPI   PO4 3972   8.500   6.377  11.862  0.0396  0.1506  0.0022
  249loPI   GL1 3973   8.567   6.464  11.325 -0.0762 -0.2828  0.0432
  249loPI   GL2 3974   8.302   6.703  11.470 -0.1562 -0.0078  0.0028
  249loPI   C1A 3975   8.734   6.508  10.922 -0.0759 -0.2322  0.0970
  249loPI   C2A 3976   8.608   6.523  10.574  0.0541 -0.0889  0.3733
  249loPI   C3A 3977   8.636   6.573  10.162 -0.2086  0.2924  0.1558
  249loPI   C4A 3978   8.636   6.585   9.731  0.1557  0.0445 -0.0081
  249loPI   C5A 3979   8.670   6.648   9.258 -0.0204 -0.1877 -0.1136
  249loPI   C6A 3980   8.804   6.817   8.904 -0.1485 -0.2981 -0.2131
  249loPI   C1B 3981   8.117   6.458  11.104 -0.0481  0.0139 -0.1144
  249loPI   C2B 3982   8.114   6.430  10.702  0.2012  0.0736  0.1723
  249loPI   C3B 3983   8.127   6.419  10.247  0.1403  0.1428  0.0908
  249loPI   C4B 3984   8.187   6.381   9.720 -0.0931 -0.2738  0.1801
  250loPI    C1 3985  12.495  14.814  11.703  0.3379  0.1464  0.0352
  250loPI    C2 3986  12.583  14.795  12.093  0.2057  0.0771  0.0622
  250loPI    C3 3987  12.629  15.139  11.894  0.0739  0.1686  0.1878
  250loPI   PO4 3988  12.435  14.491  11.580 -0.1030  0.0376 -0.0979
  250loPI   GL1 3989  12.626  14.210  11.218 -0.0309 -0.2036 -0.0443
  250loPI   GL2 3990  12.268  14.312  11.099  0.0166 -0.3026 -0.1424
  250loPI   C1A 3991  12.749  14.237  10.789  0.1871  0.2588  0.2486
  250loPI   C2A 3992  12.740  14.253  10.396  0.1064  0.4815 -0.1068
  250loPI   C3A 3993  12.648  14.202   9.948  0.0526 -0.1472  0.0756
  250loPI   C4A 3994  12.651  14.269   9.555  0.0857 -0.1495  0.1637
  250loPI   C5A 3995  12.747  14.171   9.121  0.0970 -0.0869 -0.1710
  250loPI   C6A 3996  12.603  14.501   8.863 -0.0773 -0.2410  0.1690
  250loPI   C1B 3997  12.274  14.101  10.794 -0.0903 -0.0030  0.2401
  250loPI   C2B 3998  12.272  14.142  10.480  0.1418 -0.0352 -0.1164
  250loPI   C3B 3999  12.176  14.072  10.040 -0.1849 -0.0835  0.2505
  250loPI   C4B 4000  12.128  14.125   9.620 -0.0289  0.1392 -0.4234
  251loPI    C1 4001   7.187  13.147  11.835  0.0921 -0.1417 -0.0644
  251loPI    C2 4002   7.416  13.210  11.513 -0.0357  0.0082 -0.1271
  251loPI    C3 4003   7.559  13.289  11.878  0.1491 -0.2673 -0.1366
  251loPI   PO4 4004   6.983  13.139  11.742 -0.0190  0.0429 -0.1782
  251loPI   GL1 4005   6.998  13.043  11.285  0.0407 -0.4819  0.1843
  251loPI   GL2 4006   7.213  13.268  11.070  0.1039 -0.0908  0.2789
  251loPI   C1A 4007   7.052  12.792  10.905 -0.2158 -0.0253 -0.2286
  251loPI   C2A 4008   7.062  12.690  10.532  0.2759  0.0101  0.2565
  251loPI   C3A 4009   6.971  12.708  10.137  0.0950 -0.3938 -0.1940
  251loPI   C4A 4010   6.983  12.636   9.732  0.2803 -0.1325  0.0790
  251loPI   C5A 4011   7.014  12.609   9.291 -0.0238 -0.0957  0.0730
  251loPI   C6A 4012   7.150  12.538   8.842  0.2889 -0.1774  0.0840
  251loPI   C1B 4013   7.175  13.228  10.623 -0.0064 -0.0728  0.2057
  251loPI   C2B 4014   7.165  13.194  10.092 -0.1875  0.1543 -0.0165
  251loPI   C3B 4015   7.173  13.087   9.661  0.1189 -0.1050  0.0229
  251loPI   C4B 4016   7.337  13.055   9.261 -0.0985 -0.2226 -0.1275
  252loPI    C1 4017   6.369  11.688  11.684  0.3028  0.0405  0.1759
  252loPI    C2 4018   6.222  11.659  12.055 -0.0929  0.0875  0.0278
  252loPI    C3 4019   6.298  12.019  11.897  0.1995  0.0629  0.1080
  252loPI   PO4 4020   6.346  11.500  11.591 -0.1425  0.0375  0.0781
  252loPI   GL1 4021   6.281  11.329  11.173 -0.0686 -0.1142 -0.0838
  252loPI   GL2 4022   5.964  11.283  11.276 -0.2006 -0.1750  0.1388
  252loPI   C1A 4023   6.399  11.252  10.712 -0.0622 -0.0735  0.2928
  252loPI   C2A 4024   6.371  11.281  10.235  0.1055  0.0971 -0.2611
  252loPI   C3A 4025   6.437  11.253   9.880  0.0733 -0.0131  0.0107
  252loPI   C4A 4026   6.407  11.230   9.387  0.1883  0.0521 -0.0642
  252loPI   C5A 4027   6.077  11.131   9.117 -0.1890 -0.1456  0.0257
  252loPI   C6A 4028   5.961  10.859   8.965  0.2332 -0.2977  0.0941
  252loPI   C1B 4029   5.935  11.216  10.848 -0.0759  0.0077 -0.4864
  252loPI   C2B 4030   5.905  11.164  10.423 -0.0332  0.1734 -0.1356
  252loPI   C3B 4031   5.911  11.147  10.010 -0.1411 -0.3043  0.1123
  252loPI   C4B 4032   5.930  11.101   9.586  0.1325 -0.2806 -0.1513
  253loPI    C1 4033   0.076   8.087  11.700  0.2422  0.1920  0.2388
  253loPI    C2 4034   0.241   7.788  11.909 -0.0678 -0.1547 -0.0007
  253loPI    C3 4035  -0.087   7.970  12.046 -0.1416 -0.2318 -0.0731
  253loPI   PO4 4036   0.001   8.031  11.473 -0.1999  0.2387  0.0111
  253loPI   GL1 4037  -0.087   8.149  11.077 -0.1548  0.2419  0.0502
  253loPI   GL2 4038   0.031   7.826  11.001  0.0766  0.0159 -0.0006
  253loPI   C1A 4039  -0.207   8.148  10.680 -0.0468  0.1571  0.0987
  253loPI   C2A 4040  -0.347   8.118  10.203  0.1119  0.1863  0.1556
  253loPI   C3A 4041  -0.356   8.035   9.762  0.2662  0.1085 -0.0597
  253loPI   C4A 4042  -0.263   8.014   9.237  0.0470 -0.2157 -0.6371
  253loPI   C5A 4043  -0.096   7.912   8.883  0.3209  0.1257  0.0443
  253loPI   C6A 4044   0.040   7.505   8.791 -0.1501 -0.0276  0.1550
  253loPI   C1B 4045   0.021   7.666  10.531  0.1484  0.2020 -0.0713
  253loPI   C2B 4046   0.015   7.658  10.061 -0.0695  0.0074 -0.0325
  253loPI   C3B 4047   0.035   7.740   9.668 -0.1751 -0.0389  0.2683
  253loPI   C4B 4048   0.005   7.630   9.269  0.1835 -0.1324 -0.0451
  254loPI    C1 4049  13.958  15.342  11.809 -0.0602  0.0615 -0.0989
  254loPI    C2 4050  13.670  15.332  12.086 -0.0994 -0.0084 -0.1418
  254loPI    C3 4051  14.053  15.293  12.194 -0.0984  0.1764 -0.0744
  254loPI   PO4 4052  13.785  15.535  11.621  0.2173  0.0783  0.0907
  254loPI   GL1 4053  13.566  15.383  11.228 -0.2233  0.1332  0.0376
  254loPI   GL2 4054  13.890  15.564  11.149  0.0540  0.1194  0.0338
  254loPI   C1A 4055  13.496  15.372  10.800  0.0048 -0.1073 -0.1795
  254loPI   C2A 4056  13.542  15.295  10.391 -0.0059  0.0496 -0.1095
  254loPI   C3A 4057  13.480  15.303   9.956  0.2691  0.1080  0.2045
  254loPI   C4A 4058  13.381  15.284   9.562 -0.1461 -0.1857  0.1006
  254loPI   C5A 4059  13.434  15.221   9.115 -0.0056 -0.0302  0.0338
  254loPI   C6A 4060  13.756  15.364   8.790  0.0048 -0.2208 -0.1182
  254loPI   C1B 4061  14.008  15.419  10.759  0.1542 -0.3212  0.0059
  254loPI   C2B 4062  14.063  15.445  10.374 -0.2173 -0.0305 -0.0033
  254loPI   C3B 4063  14.047  15.395   9.977 -0.0844 -0.2269  0.3214
  254loPI   C4B 4064  13.947  15.320   9.496  0.0243  0.1891  0.0220
  255loPI    C1 4065  15.188  10.947  11.607 -0.0132 -0.0142  0.0003
  255loPI    C2 4066  15.492  10.716  11.727  0.0353  0.1422  0.1832
  255loPI    C3 4067  15.292  10.939  11.993 -0.1792  0.1131  0.0492
  255loPI   PO4 4068  15.277  10.967  11.342 -0.3885 -0.2706  0.1083
  255loPI   GL1 4069  15.154  11.254  11.061  0.0874 -0.0367 -0.2063
  255loPI   GL2 4070  15.002  11.492  10.930 -0.1647 -0.1720  0.1215
  255loPI   C1A 4071  15.293  11.189  10.692 -0.0909 -0.0840 -0.1647
  255loPI   C2A 4072  15.359  11.148  10.274  0.2406  0.0557  0.2193
  255loPI   C3A 4073  15.301  11.159   9.874 -0.1441  0.1844 -0.1230
  255loPI   C4A 4074  15.266  11.005   9.528  0.0706 -0.0156  0.0291
  255loPI   C5A 4075  15.282  10.946   9.080 -0.2058  0.3053  0.0657
  255loPI   C6A 4076  15.191  10.935   8.589  0.1294  0.0153 -0.1908
  255loPI   C1B 4077  14.974  11.519  10.522 -0.1039  0.0896  0.1689
  255loPI   C2B 4078  14.972  11.477  10.113 -0.2428  0.0088 -0.1494
  255loPI   C3B 4079  14.951  11.525   9.656 -0.3052  0.3348  0.1095
  255loPI   C4B 4080  14.880  11.363   9.183  0.0712 -0.2464 -0.0385
  256loPI    C1 4081  14.155   6.029  11.403  0.1430 -0.1629 -0.0907
  256loPI    C2 4082  14.203   6.230  11.745  0.1273 -0.0547 -0.1520
  256loPI    C3 4083  13.839   6.197  11.582  0.1519 -0.0113 -0.2161
  256loPI   PO4 4084  14.379   5.885  11.411  0.3318 -0.1026  0.1046
  256loPI   GL1 4085  14.527   5.635  11.159 -0.0141 -0.0797 -0.0862
  256loPI   GL2 4086  14.857   5.525  11.049  0.0569 -0.0413 -0.0852
  256loPI   C1A 4087  14.494   5.787  10.790 -0.0303  0.0751 -0.0894
  256loPI   C2A 4088  14.502   5.762  10.318 -0.0446 -0.0375  0.0813
  256loPI   C3A 4089  14.439   5.798   9.902  0.1333 -0.0745  0.1573
  256loPI   C4A 4090  14.419   5.759   9.535  0.2665 -0.1569 -0.3454
  256loPI   C5A 4091  14.347   5.760   9.074  0.0510  0.0584 -0.2279
  256loPI   C6A 4092  14.492   5.726   8.644 -0.0172  0.2608 -0.1945
  256loPI   C1B 4093  14.826   5.477  10.599 -0.1149 -0.0123 -0.1276
  256loPI   C2B 4094  14.803   5.394  10.294 -0.0005  0.1779 -0.0953
  256loPI   C3B 4095  14.776   5.376   9.877  0.0720 -0.1392 -0.1177
  256loPI   C4B 4096  14.732   5.316   9.477 -0.2907  0.1064 -0.0853
  257loPI    C1 4097   1.548   0.328  11.389  0.2309  0.0058 -0.2102
  257loPI    C2 4098   1.807   0.075  11.559  0.3626  0.2242 -0.0803
  257loPI    C3 4099   1.664   0.384  11.768 -0.1893 -0.0246 -0.0727
  257loPI   PO4 4100   1.463   0.095  11.179  0.2396 -0.3330 -0.0758
  257loPI   GL1 4101   1.406   0.175  10.734 -0.1746 -0.0236 -0.1083
  257loPI   GL2 4102   1.102   0.165  10.626 -0.0287  0.0599 -0.0605
  257loPI   C1A 4103   1.548   0.258  10.397  0.0433  0.1868 -0.0719
  257loPI   C2A 4104   1.762   0.179  10.005 -0.0650 -0.1553  0.1659
  257loPI   C3A 4105   1.786   0.203   9.588 -0.1394  0.1731 -0.1753
  257loPI   C4A 4106   1.689   0.163   9.161  0.1463  0.0036  0.1274
  257loPI   C5A 4107   1.498   0.327   8.843  0.1143  0.3099 -0.0612
  257loPI   C6A 4108   1.160   0.592   8.723  0.1093  0.0946 -0.0432
  257loPI   C1B 4109   1.120   0.087  10.171  0.0939 -0.0815 -0.0111
  257loPI   C2B 4110   1.236   0.082   9.787  0.1210  0.0410  0.2552
  257loPI   C3B 4111   1.228   0.088   9.328 -0.1131 -0.2775  0.1584
  257loPI   C4B 4112   1.123   0.011   8.948  0.0698  0.2167 -0.2607
  258loPI    C1 4113  11.067   2.992  11.929 -0.1576 -0.1038 -0.0001
  258loPI    C2 4114  11.318   2.857  12.209 -0.0917  0.3519  0.1697
  258loPI    C3 4115  11.007   3.086  12.314 -0.3008  0.1927 -0.0909
  258loPI   PO4 4116  11.228   3.106  11.719  0.0872 -0.0536 -0.1391
  258loPI   GL1 4117  11.187   3.224  11.265 -0.0914  0.1253 -0.0737
  258loPI   GL2 4118  10.968   3.439  11.246 -0.0660 -0.0251  0.0677
  258loPI   C1A 4119  11.287   3.327  10.893  0.2747  0.1644 -0.2299
  258loPI   C2A 4120  11.320   3.352  10.509 -0.0723  0.0575  0.2201
  258loPI   C3A 4121  11.198   3.349  10.059 -0.2790  0.2050 -0.0176
  258loPI   C4A 4122  11.204   3.218   9.667  0.1721 -0.2202 -0.4063
  258loPI   C5A 4123  11.101   3.100   9.239 -0.2300  0.2605 -0.0172
  258loPI   C6A 4124  10.795   2.942   9.181 -0.1073  0.1988 -0.0680
  258loPI   C1B 4125  10.709   3.223  11.000 -0.0864  0.0000  0.0154
  258loPI   C2B 4126  10.670   3.208  10.560 -0.0523 -0.2693  0.2875
  258loPI   C3B 4127  10.698   3.270  10.100  0.1501  0.0239 -0.1192
  258loPI   C4B 4128  10.694   3.105   9.707  0.0486 -0.0328  0.0205
  259loPI    C1 4129  13.406  16.601  11.749  0.1291  0.1882 -0.0710
  259loPI    C2 4130  13.017  16.519  11.791  0.1709  0.0403  0.0341
  259loPI    C3 4131  13.206  16.735  12.069  0.1352  0.2229 -0.0816
  259loPI   PO4 4132  13.427  16.479  11.535  0.0309  0.5460  0.0409
  259loPI   GL1 4133  13.453  16.487  11.100 -0.1568 -0.0334 -0.2036
  259loPI   GL2 4134  13.273  16.247  11.090 -0.0455 -0.0561 -0.2264
  259loPI   C1A 4135  13.595  16.711  10.747 -0.1709 -0.0306  0.0604
  259loPI   C2A 4136  13.572  16.697  10.325  0.2990 -0.0959 -0.0127
  259loPI   C3A 4137  13.609  16.599   9.942 -0.1405 -0.0613  0.0358
  259loPI   C4A 4138  13.541  16.619   9.547 -0.0277  0.0127  0.0478
  259loPI   C5A 4139  13.416  16.526   9.142  0.1216  0.0155 -0.2499
  259loPI   C6A 4140  13.452  16.366   8.694 -0.0623 -0.2410 -0.1070
  259loPI   C1B 4141  13.450  16.186  10.655 -0.1936  0.2695  0.0416
  259loPI   C2B 4142  13.443  16.211  10.189  0.3030  0.3059  0.1995
  259loPI   C3B 4143  13.431  16.066   9.852 -0.2656  0.0553  0.0941
  259loPI   C4B 4144  13.382  16.118   9.439 -0.3150  0.2175  0.0786
  260loPI    C1 4145  13.478   8.336  11.619  0.0583 -0.0318  0.0761
  260loPI    C2 4146  13.566   8.600  11.906 -0.0315  0.1210 -0.0357
  260loPI    C3 4147  13.190   8.473  11.860 -0.0060  0.0493 -0.0462
  260loPI   PO4 4148  13.589   8.440  11.416  0.0976  0.2913  0.0795
  260loPI   GL1 4149  13.590   8.630  11.055 -0.1201  0.2091 -0.2408
  260loPI   GL2 4150  13.813   8.403  10.916  0.0294 -0.2911 -0.3391
  260loPI   C1A 4151  13.573   8.936  10.722  0.1274 -0.0216  0.0520
  260loPI   C2A 4152  13.740   8.928  10.254  0.2565 -0.0427 -0.3727
  260loPI   C3A 4153  13.698   8.885   9.886  0.0747  0.0293  0.3827
  260loPI   C4A 4154  13.659   8.844   9.468  0.1667  0.0848  0.0228
  260loPI   C5A 4155  13.667   8.772   9.049  0.0357  0.4479  0.1654
  260loPI   C6A 4156  13.342   8.662   8.749  0.0090 -0.0618  0.1899
  260loPI   C1B 4157  13.848   8.530  10.487 -0.1504  0.1273  0.1574
  260loPI   C2B 4158  13.932   8.441  10.097  0.0860  0.3111  0.0063
  260loPI   C3B 4159  14.018   8.399   9.612 -0.3832  0.0625 -0.1129
  260loPI   C4B 4160  14.131   8.437   9.170  0.0975 -0.2844 -0.0812
  261loPI    C1 4161  13.851  12.395  11.685  0.0888  0.1832 -0.0253
  261loPI    C2 4162  13.851  12.206  12.038  0.0790  0.0897 -0.0752
  261loPI    C3 4163  14.032  12.560  12.001 -0.0045  0.1458  0.0483
  261loPI   PO4 4164  13.898  12.354  11.466 -0.0300  0.3480 -0.2417
  261loPI   GL1 4165  13.936  12.491  11.026  0.1148  0.1087  0.1820
  261loPI   GL2 4166  13.805  12.131  11.012  0.1078  0.0208 -0.0834
  261loPI   C1A 4167  13.995  12.581  10.583 -0.3225 -0.2535  0.1826
  261loPI   C2A 4168  14.038  12.698  10.122 -0.1523  0.0566 -0.0593
  261loPI   C3A 4169  14.005  12.536   9.730 -0.0862 -0.2995 -0.0162
  261loPI   C4A 4170  13.908  12.601   9.299  0.0347 -0.1429 -0.0616
  261loPI   C5A 4171  13.975  12.530   8.844  0.2126 -0.1060 -0.1716
  261loPI   C6A 4172  14.267  12.552   8.466 -0.0057 -0.0003  0.3511
  261loPI   C1B 4173  13.755  12.104  10.613 -0.1349  0.1614  0.0361
  261loPI   C2B 4174  13.817  12.171  10.231  0.1911  0.0166  0.1376
  261loPI   C3B 4175  13.841  12.046   9.793  0.1959 -0.0088 -0.3037
  261loPI   C4B 4176  13.899  12.070   9.351  0.3937  0.1791  0.3031
  262loPI    C1 4177  11.644   8.072  11.748  0.0386 -0.0058 -0.0841
  262loPI    C2 4178  11.957   8.009  11.988 -0.1525  0.2517  0.2433
  262loPI    C3 4179  11.735   7.701  11.863  0.3608  0.0393 -0.1851
  262loPI   PO4 4180  11.703   8.204  11.542  0.0021 -0.0624 -0.3648
  262loPI   GL1 4181  11.940   8.312  11.159  0.1075  0.1907 -0.1702
  262loPI   GL2 4182  12.271   8.166  11.067 -0.1048  0.0710  0.0699
  262loPI   C1A 4183  12.089   8.520  10.781 -0.0688  0.1451 -0.1622
  262loPI   C2A 4184  12.040   8.517  10.369  0.0181  0.1494 -0.3694
  262loPI   C3A 4185  12.139   8.569  10.003 -0.0742 -0.0243  0.0094
  262loPI   C4A 4186  12.092   8.519   9.520  0.0681  0.1104 -0.1673
  262loPI   C5A 4187  12.141   8.589   9.027 -0.0004  0.2775  0.1304
  262loPI   C6A 4188  12.429   8.541   8.695  0.3202  0.0800  0.0130
  262loPI   C1B 4189  12.412   8.173  10.651  0.0574 -0.3726 -0.1382
  262loPI   C2B 4190  12.395   8.163  10.227  0.1364  0.1245  0.1399
  262loPI   C3B 4191  12.482   8.157   9.827 -0.3524 -0.1707  0.2081
  262loPI   C4B 4192  12.485   8.107   9.423  0.0194  0.0653 -0.0416
  263loPI    C1 4193  15.572   9.083  11.899 -0.0173  0.0486  0.2813
  263loPI    C2 4194  15.335   8.761  11.911  0.0873 -0.0319  0.2034
  263loPI    C3 4195  15.268   9.067  12.159 -0.2963  0.0851 -0.0354
  263loPI   PO4 4196  15.628   9.021  11.599  0.0487 -0.3311 -0.4113
  263loPI   GL1 4197  15.654   9.004  11.113  0.0450 -0.1043  0.0768
  263loPI   GL2 4198  15.511   8.852  10.899 -0.0492  0.1121 -0.2585
  263loPI   C1A 4199  16.018   8.860  10.826  0.0004  0.0529  0.1061
  263loPI   C2A 4200  16.001   8.824  10.319  0.2408  0.1667  0.0859
  263loPI   C3A 4201  15.939   8.788   9.893 -0.2072 -0.1326  0.1766
  263loPI   C4A 4202  15.933   8.857   9.498  0.1088  0.0554  0.2316
  263loPI   C5A 4203  15.982   8.826   9.120  0.3288  0.1791 -0.1342
  263loPI   C6A 4204  16.204   8.501   8.725 -0.1213 -0.1522 -0.1132
  263loPI   C1B 4205  15.554   8.765  10.530 -0.1346  0.3078 -0.0652
  263loPI   C2B 4206  15.448   8.760  10.148  0.0431  0.2724  0.2110
  263loPI   C3B 4207  15.465   8.743   9.643 -0.2558 -0.4868 -0.0700
  263loPI   C4B 4208  15.497   8.668   9.218  0.3586 -0.0288 -0.1329
  264loPI    C1 4209   2.101   4.660  11.847  0.0993  0.1057 -0.1745
  264loPI    C2 4210   2.377   4.646  12.136 -0.0636 -0.1665 -0.0277
  264loPI    C3 4211   2.178   4.986  12.066  0.1089 -0.0474  0.0535
  264loPI   PO4 4212   2.214   4.549  11.621 -0.1888  0.1522  0.0968
  264loPI   GL1 4213   2.142   4.469  11.132  0.0493  0.3697 -0.1451
  264loPI   GL2 4214   1.862   4.616  11.233 -0.2936 -0.0767  0.2235
  264loPI   C1A 4215   2.387   4.529  10.770 -0.0171  0.0107  0.3552
  264loPI   C2A 4216   2.292   4.464  10.357  0.0062 -0.1436 -0.1540
  264loPI   C3A 4217   2.228   4.356   9.961  0.0256  0.2252  0.1000
  264loPI   C4A 4218   2.122   4.344   9.581  0.3026  0.2243  0.0838
  264loPI   C5A 4219   1.983   4.351   9.158 -0.0727  0.2735 -0.2914
  264loPI   C6A 4220   1.651   4.581   8.902  0.1138  0.0522 -0.0635
  264loPI   C1B 4221   1.922   4.760  10.763  0.0331  0.2376  0.1486
  264loPI   C2B 4222   1.857   4.826  10.340 -0.1658 -0.1208  0.0540
  264loPI   C3B 4223   1.925   4.834   9.950  0.0584  0.1679 -0.0855
  264loPI   C4B 4224   1.806   4.749   9.476  0.1561  0.4304 -0.3267
  265loPI    C1 4225  13.637   5.246  11.684  0.1412  0.0278  0.0083
  265loPI    C2 4226  13.308   5.342  11.890  0.0535 -0.1500 -0.0470
  265loPI    C3 4227  13.660   5.507  11.987 -0.0681  0.1166 -0.0506
  265loPI   PO4 4228  13.538   5.251  11.437 -0.2038 -0.0813 -0.2292
  265loPI   GL1 4229  13.359   5.475  11.074 -0.0476 -0.3745 -0.0976
  265loPI   GL2 4230  13.533   5.685  10.977 -0.0781  0.0781  0.2115
  265loPI   C1A 4231  13.076   5.452  10.802 -0.1519  0.0108 -0.0244
  265loPI   C2A 4232  12.874   5.526  10.448  0.1287  0.0670  0.0341
  265loPI   C3A 4233  12.911   5.583  10.052  0.1914 -0.1456  0.0279
  265loPI   C4A 4234  12.923   5.520   9.612 -0.1114 -0.1676  0.2666
  265loPI   C5A 4235  12.886   5.348   9.193 -0.1731  0.3146 -0.0110
  265loPI   C6A 4236  12.921   5.536   8.733  0.0680 -0.0621  0.1044
  265loPI   C1B 4237  13.534   5.544  10.538 -0.0583 -0.0576  0.0786
  265loPI   C2B 4238  13.465   5.586  10.089 -0.1751  0.3326  0.1430
  265loPI   C3B 4239  13.423   5.622   9.677 -0.3163  0.1623  0.1697
  265loPI   C4B 4240  13.751   5.384   9.327  0.1259 -0.1085 -0.0606
  266loPI    C1 4241   0.348   8.556  11.838  0.1224  0.0259 -0.0043
  266loPI    C2 4242   0.208   8.886  12.017  0.0692  0.0814 -0.1466
  266loPI    C3 4243   0.536   8.706  12.158 -0.0950 -0.0016  0.1391
  266loPI   PO4 4244   0.225   8.567  11.575 -0.0321 -0.1302 -0.1694
  266loPI   GL1 4245   0.145   8.639  11.159  0.3244 -0.0588  0.0397
  266loPI   GL2 4246   0.458   8.658  11.021  0.0396 -0.0576 -0.2305
  266loPI   C1A 4247  -0.048   8.646  10.789 -0.4030  0.2038 -0.0707
  266loPI   C2A 4248  -0.149   8.662  10.338  0.0777  0.1656 -0.0363
  266loPI   C3A 4249  -0.145   8.623   9.941 -0.0922  0.2852 -0.1729
  266loPI   C4A 4250  -0.200   8.608   9.524  0.1223 -0.2849 -0.2382
  266loPI   C5A 4251  -0.154   8.541   9.061 -0.0515 -0.1885 -0.1042
  266loPI   C6A 4252   0.062   8.365   8.737 -0.0552 -0.1079 -0.1760
  266loPI   C1B 4253   0.447   8.754  10.591  0.0241 -0.1061 -0.1056
  266loPI   C2B 4254   0.436   8.691  10.089 -0.2473  0.0620 -0.0202
  266loPI   C3B 4255   0.359   8.707   9.623 -0.0703 -0.3723 -0.0625
  266loPI   C4B 4256   0.414   8.662   9.291  0.0982  0.1463 -0.2002
  267loPI    C1 4257   0.922   4.318  11.770 -0.0254  0.1818  0.2652
  267loPI    C2 4258   1.152   4.585  11.960  0.1741  0.0785  0.1716
  267loPI    C3 4259   0.879   4.375  12.164  0.0684  0.2978  0.2591
  267loPI   PO4 4260   0.722   4.429  11.513 -0.0279 -0.0754 -0.0412
  267loPI   GL1 4261   0.449   4.373  11.081  0.0326 -0.1697 -0.1348
  267loPI   GL2 4262   0.687   4.185  11.076  0.0286  0.1561 -0.0752
  267loPI   C1A 4263   0.481   4.592  10.764 -0.1960 -0.1172  0.0823
  267loPI   C2A 4264   0.319   4.519  10.364 -0.2539  0.1532 -0.4749
  267loPI   C3A 4265   0.382   4.523   9.864 -0.0284 -0.0515  0.1103
  267loPI   C4A 4266   0.333   4.497   9.392  0.0270  0.0076  0.0017
  267loPI   C5A 4267   0.261   4.650   8.956  0.3464  0.2496 -0.0114
  267loPI   C6A 4268   0.366   4.770   8.570  0.0823 -0.1681  0.1255
  267loPI   C1B 4269   0.693   4.169  10.615 -0.2422 -0.1626 -0.1225
  267loPI   C2B 4270   0.675   4.157  10.171 -0.1459 -0.1602 -0.0804
  267loPI   C3B 4271   0.653   4.084   9.730 -0.1776 -0.1993 -0.1991
  267loPI   C4B 4272   0.678   4.067   9.325 -0.3092 -0.4777  0.2434
  268loPI    C1 4273   2.458  13.926  11.629 -0.0208 -0.1322 -0.0653
  268loPI    C2 4274   2.221  14.238  11.710  0.3193  0.1261 -0.0413
  268loPI    C3 4275   2.340  13.995  12.005  0.0333 -0.0466 -0.0638
  268loPI   PO4 4276   2.550  14.063  11.403  0.0893 -0.1386 -0.3242
  268loPI   GL1 4277   2.400  14.091  11.058 -0.1733  0.0894  0.1205
  268loPI   GL2 4278   2.673  13.818  10.979 -0.2268 -0.2352 -0.1881
  268loPI   C1A 4279   2.253  14.216  10.698  0.3915 -0.3721 -0.1526
  268loPI   C2A 4280   2.226  14.221  10.233  0.1624  0.1526  0.0730
  268loPI   C3A 4281   2.201  14.058   9.861 -0.2998 -0.2615  0.2041
  268loPI   C4A 4282   2.227  14.137   9.453  0.2224 -0.0217  0.2142
  268loPI   C5A 4283   2.309  14.122   9.016 -0.0155  0.0617  0.0190
  268loPI   C6A 4284   2.279  14.203   8.594 -0.2985  0.0899 -0.2350
  268loPI   C1B 4285   2.503  13.825  10.565 -0.2475 -0.1803  0.3402
  268loPI   C2B 4286   2.514  13.784  10.071  0.2612  0.1183 -0.0348
  268loPI   C3B 4287   2.581  13.726   9.708  0.1063 -0.2406 -0.2726
  268loPI   C4B 4288   2.577  13.804   9.291 -0.0580  0.1449  0.1722
  269loPI    C1 4289   6.306   0.654  11.614  0.0692  0.0365 -0.0599
  269loPI    C2 4290   6.103   0.974  11.742  0.1701  0.0045  0.1852
  269loPI    C3 4291   6.397   0.820  11.966  0.0752 -0.3034  0.1037
  269loPI   PO4 4292   6.274   0.682  11.312  0.2107  0.0685 -0.0643
  269loPI   GL1 4293   6.343   0.297  11.069 -0.0292 -0.0572  0.1434
  269loPI   GL2 4294   6.278  -0.078  11.039  0.0791  0.3127 -0.2084
  269loPI   C1A 4295   6.450   0.235  10.686  0.0395  0.1853 -0.1130
  269loPI   C2A 4296   6.396   0.144  10.330  0.1655  0.0915 -0.2266
  269loPI   C3A 4297   6.344   0.126   9.884 -0.0258  0.0176 -0.1812
  269loPI   C4A 4298   6.321   0.104   9.388  0.1855  0.0604  0.0113
  269loPI   C5A 4299   6.420   0.262   8.965  0.1078  0.0818  0.1532
  269loPI   C6A 4300   6.578   0.436   8.483 -0.1494 -0.0844  0.1468
  269loPI   C1B 4301   6.232  -0.265  10.640  0.2912 -0.2262  0.1269
  269loPI   C2B 4302   6.191  -0.370  10.230  0.2005 -0.0179  0.1538
  269loPI   C3B 4303   6.162  -0.342   9.776  0.1591  0.1208  0.1406
  269loPI   C4B 4304   6.139  -0.390   9.352 -0.0653  0.0124  0.0574
  270loPI    C1 4305   8.599  15.250  11.498 -0.2550 -0.0114  0.1370
  270loPI    C2 4306   8.769  15.028  11.785 -0.1299  0.0871  0.1400
  270loPI    C3 4307   8.399  15.172  11.835 -0.2038 -0.1026  0.1467
  270loPI   PO4 4308   8.748  15.269  11.334  0.0364  0.1138 -0.0719
  270loPI   GL1 4309   8.850  15.444  10.942  0.1599 -0.0418 -0.2153
  270loPI   GL2 4310   9.185  15.428  10.904  0.0177  0.3259 -0.0596
  270loPI   C1A 4311   8.819  15.393  10.504 -0.0831  0.1160  0.4850
  270loPI   C2A 4312   8.878  15.288  10.098 -0.0682  0.1813 -0.1388
  270loPI   C3A 4313   8.748  15.238   9.760  0.4765  0.2580 -0.0133
  270loPI   C4A 4314   8.709  15.268   9.237  0.0424  0.0518 -0.0926
  270loPI   C5A 4315   8.298  15.105   9.013  0.2141 -0.5231 -0.2261
  270loPI   C6A 4316   7.910  15.043   9.125  0.2244  0.1023 -0.0768
  270loPI   C1B 4317   9.320  15.421  10.453 -0.1570 -0.2301  0.0648
  270loPI   C2B 4318   9.384  15.428  10.001 -0.0129  0.0432 -0.0326
  270loPI   C3B 4319   9.230  15.403   9.605 -0.1229  0.2489  0.1075
  270loPI   C4B 4320   9.297  15.487   9.187  0.0313  0.2172 -0.3299
  271loPI    C1 4321   2.236   9.076  11.748  0.0716 -0.0189 -0.0947
  271loPI    C2 4322   2.250   9.077  12.147  0.2247  0.2937 -0.0977
  271loPI    C3 4323   2.365   8.753  11.944  0.1939  0.1509  0.1093
  271loPI   PO4 4324   2.171   9.329  11.708  0.1194  0.0233 -0.0753
  271loPI   GL1 4325   2.137   9.507  11.381  0.1824  0.1712  0.1735
  271loPI   GL2 4326   2.376   9.205  11.291  0.0008 -0.1099 -0.0524
  271loPI   C1A 4327   2.144   9.596  10.989 -0.0517 -0.0072 -0.2539
  271loPI   C2A 4328   2.015   9.569  10.592 -0.0688  0.1801 -0.1540
  271loPI   C3A 4329   2.064   9.517  10.098  0.0233 -0.1515 -0.0162
  271loPI   C4A 4330   2.011   9.572   9.662 -0.1783 -0.1715  0.0001
  271loPI   C5A 4331   2.055   9.407   9.270  0.0482  0.3078 -0.0304
  271loPI   C6A 4332   2.314   9.332   8.991  0.0997 -0.1887 -0.1063
  271loPI   C1B 4333   2.376   9.192  10.825  0.1422 -0.2100 -0.2537
  271loPI   C2B 4334   2.268   9.154  10.376  0.4230 -0.1578 -0.0409
  271loPI   C3B 4335   2.418   9.172   9.935 -0.0546  0.1772 -0.0156
  271loPI   C4B 4336   2.371   9.076   9.425 -0.3109 -0.0015 -0.1119
  272loPI    C1 4337   5.062   2.676  11.334  0.1433 -0.1162 -0.0169
  272loPI    C2 4338   4.769   2.422  11.433 -0.0027  0.0467 -0.0271
  272loPI    C3 4339   5.051   2.515  11.700  0.1195 -0.2171 -0.0617
  272loPI   PO4 4340   4.942   2.738  11.091  0.3467  0.0618  0.0716
  272loPI   GL1 4341   4.822   2.523  10.710  0.1794 -0.2271  0.0853
  272loPI   GL2 4342   4.774   2.212  10.654 -0.0441 -0.2868  0.3290
  272loPI   C1A 4343   4.920   2.741  10.259  0.1143 -0.1734  0.3772
  272loPI   C2A 4344   4.928   2.612   9.854  0.0105  0.0209 -0.0949
  272loPI   C3A 4345   4.847   2.592   9.311  0.0250 -0.2326  0.1615
  272loPI   C4A 4346   4.922   2.592   8.837 -0.0337  0.0105 -0.1604
  272loPI   C5A 4347   4.896   2.474   8.481 -0.3255 -0.1071  0.3557
  272loPI   C6A 4348   5.078   2.740   8.207 -0.1048  0.0534  0.0055
  272loPI   C1B 4349   4.691   2.192  10.296 -0.0597  0.0396  0.0299
  272loPI   C2B 4350   4.673   2.204   9.962  0.2532  0.1545  0.2415
  272loPI   C3B 4351   4.789   2.187   9.568  0.0184 -0.2203 -0.1321
  272loPI   C4B 4352   4.702   2.185   9.077  0.1610 -0.0282  0.0655
  273loPI    C1 4353  13.618  17.050  11.711  0.0289 -0.1274 -0.0473
  273loPI    C2 4354  13.934  16.826  11.808  0.1830  0.0750 -0.0758
  273loPI    C3 4355  13.772  17.071  12.080  0.0775  0.0044 -0.0745
  273loPI   PO4 4356  13.630  16.941  11.431  0.2412  0.0178 -0.2183
  273loPI   GL1 4357  13.379  17.039  11.087 -0.2116 -0.3195 -0.1473
  273loPI   GL2 4358  13.693  17.134  10.976  0.1462 -0.3589  0.0666
  273loPI   C1A 4359  13.216  17.039  10.657 -0.1360 -0.1415 -0.1035
  273loPI   C2A 4360  13.306  17.076  10.239 -0.0710 -0.2740  0.1405
  273loPI   C3A 4361  13.236  17.085   9.738  0.1220 -0.2227  0.0085
  273loPI   C4A 4362  13.236  16.987   9.355 -0.3906  0.1398  0.2870
  273loPI   C5A 4363  13.422  16.906   8.870 -0.1068 -0.0481  0.0324
  273loPI   C6A 4364  13.534  16.868   8.411 -0.1250  0.0781 -0.1395
  273loPI   C1B 4365  13.724  17.179  10.545  0.1722 -0.1070  0.0239
  273loPI   C2B 4366  13.779  17.127  10.123 -0.1861  0.1601 -0.1793
  273loPI   C3B 4367  13.699  17.065   9.713 -0.2352 -0.3161 -0.0883
  273loPI   C4B 4368  13.724  16.990   9.259 -0.2226 -0.2178  0.1338
  274loPI    C1 4369   7.759  14.661  11.680 -0.2207  0.0541  0.1268
  274loPI    C2 4370   8.042  14.854  11.888 -0.0748 -0.1772  0.1469
  274loPI    C3 4371   7.710  14.727  12.072 -0.0345 -0.2096  0.1976
  274loPI   PO4 4372   7.882  14.529  11.499 -0.3391  0.0498 -0.0727
  274loPI   GL1 4373   7.768  14.404  11.139 -0.1503 -0.1325 -0.0712
  274loPI   GL2 4374   8.016  14.630  11.042 -0.0881  0.0267  0.2321
  274loPI   C1A 4375   7.544  14.211  10.779  0.0465 -0.2136 -0.1328
  274loPI   C2A 4376   7.518  14.211  10.314 -0.0326  0.5015 -0.2245
  274loPI   C3A 4377   7.495  14.083   9.930  0.1443  0.1472  0.1820
  274loPI   C4A 4378   7.497  14.028   9.464  0.0306  0.0500  0.1922
  274loPI   C5A 4379   7.653  14.193   9.148  0.1358  0.2698  0.1955
  274loPI   C6A 4380   7.774  14.571   8.973 -0.2465  0.0855  0.2789
  274loPI   C1B 4381   7.723  14.669  10.763 -0.2153  0.2797 -0.1314
  274loPI   C2B 4382   7.680  14.708  10.446  0.1525  0.1486 -0.1605
  274loPI   C3B 4383   7.724  14.680   9.990 -0.0666 -0.0744 -0.0209
  274loPI   C4B 4384   7.709  14.609   9.497 -0.1688  0.0615 -0.3773
  275loPI    C1 4385   2.115  11.916  11.499 -0.1309  0.0272  0.2039
  275loPI    C2 4386   2.277  12.269  11.402  0.0946 -0.0723  0.2129
  275loPI    C3 4387   2.231  12.168  11.786 -0.3455  0.1155  0.2147
  275loPI   PO4 4388   2.147  11.798  11.213 -0.1715  0.1496 -0.0700
  275loPI   GL1 4389   2.013  11.738  10.747 -0.0206  0.1894  0.1274
  275loPI   GL2 4390   2.235  11.492  10.759 -0.1486  0.2886 -0.0964
  275loPI   C1A 4391   1.867  11.836  10.459 -0.0304  0.0395 -0.0951
  275loPI   C2A 4392   1.881  11.880  10.038 -0.1051  0.1090  0.1476
  275loPI   C3A 4393   1.893  11.761   9.615  0.0135 -0.1293 -0.1302
  275loPI   C4A 4394   1.908  11.759   9.185  0.0101 -0.0622  0.2577
  275loPI   C5A 4395   1.808  11.693   8.723 -0.3834 -0.2485  0.1132
  275loPI   C6A 4396   2.080  11.861   8.529 -0.1906  0.3703 -0.0505
  275loPI   C1B 4397   2.228  11.535  10.273  0.2608  0.1023 -0.2896
  275loPI   C2B 4398   2.267  11.467   9.804 -0.3650  0.0795 -0.2886
  275loPI   C3B 4399   2.254  11.451   9.382 -0.0706 -0.1293  0.0423
  275loPI   C4B 4400   2.246  11.339   8.996  0.0993 -0.1451  0.0534
  276loPI    C1 4401   8.027   2.189  11.817 -0.2353  0.0486 -0.2825
  276loPI    C2 4402   7.873   1.955  12.103 -0.0625  0.1381 -0.1132
  276loPI    C3 4403   7.703   2.308  12.020  0.1104  0.2859  0.1490
  276loPI   PO4 4404   8.052   2.069  11.566 -0.1836  0.2027 -0.0171
  276loPI   GL1 4405   8.096   2.185  11.136 -0.0190 -0.4787  0.1362
  276loPI   GL2 4406   8.377   2.058  11.024  0.2119 -0.0289  0.1055
  276loPI   C1A 4407   8.083   2.306  10.755  0.0213  0.0333  0.0540
  276loPI   C2A 4408   8.049   2.310  10.380 -0.2277 -0.3262  0.0207
  276loPI   C3A 4409   7.979   2.255   9.920 -0.3327  0.0774  0.0859
  276loPI   C4A 4410   8.007   2.220   9.503 -0.0824 -0.0528  0.1157
  276loPI   C5A 4411   7.995   2.101   9.082  0.0170  0.1398 -0.2260
  276loPI   C6A 4412   7.947   2.408   8.722  0.0954  0.0059  0.0229
  276loPI   C1B 4413   8.415   1.974  10.601  0.2224  0.0303  0.1600
  276loPI   C2B 4414   8.347   1.951  10.194 -0.0187 -0.1468  0.0235
  276loPI   C3B 4415   8.313   1.868   9.716  0.1409  0.1103  0.0046
  276loPI   C4B 4416   8.386   1.902   9.326  0.0947 -0.1656 -0.1214
  277loPI    C1 4417  16.317   6.709  11.523 -0.1492  0.1062 -0.0279
  277loPI    C2 4418  16.105   6.370  11.502 -0.0522  0.0386  0.0739
  277loPI    C3 4419  16.044   6.626  11.804 -0.0274  0.0453  0.0732
  277loPI   PO4 4420  16.264   6.790  11.220 -0.0374  0.0220 -0.0490
  277loPI   GL1 4421  16.502   6.717  10.916 -0.0743 -0.1321 -0.0695
  277loPI   GL2 4422  16.690   6.649  10.780 -0.0124  0.0763 -0.0898
  277loPI   C1A 4423  16.214   6.568  10.514  0.0235  0.0810 -0.1662
  277loPI   C2A 4424  16.194   6.609  10.073 -0.0799 -0.2050 -0.1913
  277loPI   C3A 4425  16.141   6.552   9.691 -0.1109 -0.0988 -0.0837
  277loPI   C4A 4426  16.162   6.594   9.358  0.1433 -0.1879  0.1287
  277loPI   C5A 4427  16.098   6.407   8.985 -0.1370 -0.0414  0.1581
  277loPI   C6A 4428  16.392   6.485   8.640 -0.0779  0.3020  0.0489
  277loPI   C1B 4429  16.663   6.638  10.356  0.3342 -0.0757 -0.3761
  277loPI   C2B 4430  16.678   6.640   9.861 -0.0048 -0.0849 -0.0214
  277loPI   C3B 4431  16.675   6.708   9.503 -0.0901 -0.1121  0.0612
  277loPI   C4B 4432  16.628   6.622   9.114  0.0117 -0.0717 -0.0292
  278loPI    C1 4433   8.498   1.261  11.939  0.1165 -0.0437 -0.1964
  278loPI    C2 4434   8.850   1.333  12.115  0.0471 -0.1048 -0.0304
  278loPI    C3 4435   8.551   1.169  12.325 -0.1522  0.1483 -0.1103
  278loPI   PO4 4436   8.608   1.279  11.648  0.1625  0.3413  0.1623
  278loPI   GL1 4437   8.487   1.131  11.189 -0.0534  0.2300  0.0273
  278loPI   GL2 4438   8.713   1.102  11.060 -0.0539 -0.2162 -0.2624
  278loPI   C1A 4439   8.306   1.384  10.903 -0.2066 -0.1033  0.1092
  278loPI   C2A 4440   8.261   1.514  10.494 -0.1352  0.2416 -0.0451
  278loPI   C3A 4441   8.222   1.436  10.093  0.1846  0.3415 -0.1532
  278loPI   C4A 4442   8.269   1.374   9.604 -0.0703  0.1408  0.0894
  278loPI   C5A 4443   8.234   1.396   9.227 -0.1436  0.0159  0.1102
  278loPI   C6A 4444   7.970   1.601   8.917  0.1225  0.0565  0.0901
  278loPI   C1B 4445   8.491   0.970  10.641  0.0822 -0.0175 -0.0154
  278loPI   C2B 4446   8.582   1.031  10.167  0.0445 -0.0629 -0.1717
  278loPI   C3B 4447   8.598   1.044   9.786  0.2254 -0.0370 -0.0207
  278loPI   C4B 4448   8.572   0.993   9.407  0.0334  0.1565  0.2579
  279loPI    C1 4449   8.565   4.727  11.735  0.1473 -0.0686  0.2073
  279loPI    C2 4450   8.496   5.078  11.914 -0.0029 -0.0278  0.0720
  279loPI    C3 4451   8.567   4.752  12.134 -0.1320  0.0325  0.2047
  279loPI   PO4 4452   8.384   4.764  11.488  0.1612  0.1001  0.4675
  279loPI   GL1 4453   8.409   4.808  11.055  0.2357 -0.2691  0.0714
  279loPI   GL2 4454   8.559   5.034  10.996 -0.3142 -0.1656  0.0582
  279loPI   C1A 4455   8.397   4.791  10.531  0.2945  0.2436 -0.1053
  279loPI   C2A 4456   8.404   4.690  10.125  0.1415 -0.2068  0.0324
  279loPI   C3A 4457   8.445   4.666   9.650  0.1340  0.2574 -0.2164
  279loPI   C4A 4458   8.409   4.641   9.237 -0.1683 -0.0413  0.3814
  279loPI   C5A 4459   8.720   4.531   8.849  0.1276  0.0196  0.0381
  279loPI   C6A 4460   8.721   4.361   8.421 -0.1338 -0.2515  0.0001
  279loPI   C1B 4461   8.529   5.209  10.656  0.3102 -0.0070  0.2184
  279loPI   C2B 4462   8.564   5.235  10.193 -0.1979 -0.1518 -0.0999
  279loPI   C3B 4463   8.583   5.157   9.782 -0.1662  0.2380 -0.0564
  279loPI   C4B 4464   8.642   5.095   9.338 -0.2649  0.0942  0.1089
  280loPI    C1 4465  15.874  17.454  11.441  0.0381 -0.0631 -0.0140
  280loPI    C2 4466  15.938  17.668  11.772 -0.3080  0.1982 -0.1102
  280loPI    C3 4467  15.565  17.570  11.666 -0.1861 -0.0505 -0.3211
  280loPI   PO4 4468  16.064  17.392  11.411  0.0596 -0.1896 -0.0263
  280loPI   GL1 4469  16.308  17.430  11.066 -0.1270  0.0778  0.2520
  280loPI   GL2 4470  16.181  17.095  10.981 -0.0841  0.0170  0.1304
  280loPI   C1A 4471  16.299  17.721  10.738 -0.0263  0.3368  0.0580
  280loPI   C2A 4472  16.276  17.697  10.307 -0.4203  0.4152 -0.1330
  280loPI   C3A 4473  16.170  17.730   9.909 -0.1493  0.0064 -0.0894
  280loPI   C4A 4474  16.199  17.592   9.481  0.1092 -0.2825 -0.1184
  280loPI   C5A 4475  15.990  17.575   8.986 -0.1272  0.0476  0.0146
  280loPI   C6A 4476  15.661  17.641   8.693  0.1428 -0.4000  0.1679
  280loPI   C1B 4477  16.049  17.182  10.542 -0.3001 -0.0226  0.0926
  280loPI   C2B 4478  16.092  17.123  10.113  0.1859  0.2584  0.0207
  280loPI   C3B 4479  16.087  17.137   9.625 -0.0205 -0.0177  0.1007
  280loPI   C4B 4480  15.956  17.020   9.188  0.1622  0.1474  0.0244
  281loPI    C1 4481   7.726  10.554  12.020  0.0329 -0.2305  0.1005
  281loPI    C2 4482   7.621  10.929  12.115 -0.0224 -0.2328  0.0491
  281loPI    C3 4483   7.447  10.619  12.299  0.0584 -0.2326  0.1266
  281loPI   PO4 4484   7.682  10.505  11.764 -0.2023  0.2080 -0.2230
  281loPI   GL1 4485   7.863  10.592  11.358  0.2452 -0.0469  0.0447
  281loPI   GL2 4486   7.557  10.739  11.211  0.0787  0.0304 -0.1111
  281loPI   C1A 4487   8.096  10.662  11.103  0.1944 -0.3154  0.0918
  281loPI   C2A 4488   8.185  10.661  10.696  0.3290  0.2230 -0.0071
  281loPI   C3A 4489   8.155  10.691  10.307 -0.0207  0.1849 -0.0770
  281loPI   C4A 4490   8.135  10.667   9.883  0.0815 -0.2433 -0.0515
  281loPI   C5A 4491   8.090  10.703   9.444 -0.0687  0.1382 -0.4125
  281loPI   C6A 4492   8.072  10.840   8.970 -0.0475  0.0787  0.2395
  281loPI   C1B 4493   7.693  10.540  10.801 -0.0853  0.3282 -0.1385
  281loPI   C2B 4494   7.673  10.503  10.385  0.3061 -0.3490  0.0114
  281loPI   C3B 4495   7.634  10.600   9.915  0.0242 -0.0905 -0.0338
  281loPI   C4B 4496   7.567  10.457   9.502 -0.0607 -0.0525  0.1488
  282loPI    C1 4497  12.723  15.911  11.894  0.0224  0.3336 -0.0963
  282loPI    C2 4498  12.657  15.872  12.287  0.3884 -0.0960 -0.0690
  282loPI    C3 4499  12.870  16.181  12.149  0.2475  0.0632  0.0663
  282loPI   PO4 4500  12.480  15.890  11.717 -0.1976  0.0407  0.0916
  282loPI   GL1 4501  12.527  15.815  11.245 -0.2291 -0.3311 -0.0755
  282loPI   GL2 4502  12.587  15.624  11.083 -0.1345 -0.0786 -0.1633
  282loPI   C1A 4503  12.774  16.081  10.978  0.0860  0.2144  0.0464
  282loPI   C2A 4504  12.876  16.101  10.537  0.0776 -0.0704  0.4136
  282loPI   C3A 4505  12.929  16.044  10.073 -0.0775 -0.1239  0.0879
  282loPI   C4A 4506  12.924  16.075   9.601  0.1161 -0.1421 -0.3202
  282loPI   C5A 4507  12.953  16.098   9.207 -0.1039  0.0120 -0.0874
  282loPI   C6A 4508  12.997  16.454   8.910 -0.0838  0.0435 -0.0689
  282loPI   C1B 4509  12.727  15.579  10.593 -0.0356 -0.1190  0.0879
  282loPI   C2B 4510  12.669  15.595  10.127 -0.2954  0.4482  0.0302
  282loPI   C3B 4511  12.641  15.595   9.649  0.0992 -0.1875 -0.1015
  282loPI   C4B 4512  12.681  15.648   9.239  0.1090  0.0535  0.0009
  283loPI    C1 4513  10.906  14.756  11.807  0.0673 -0.2608  0.3025
  283loPI    C2 4514  10.521  14.663  11.864  0.0354 -0.1538  0.2637
  283loPI    C3 4515  10.744  14.786  12.172  0.0221 -0.1558  0.2742
  283loPI   PO4 4516  10.954  14.918  11.569 -0.0064 -0.0060 -0.0421
  283loPI   GL1 4517  10.949  15.247  11.175 -0.1580  0.2284  0.0527
  283loPI   GL2 4518  11.177  15.265  11.052 -0.1489  0.0842  0.2389
  283loPI   C1A 4519  10.706  15.143  10.756  0.0800  0.1230  0.0430
  283loPI   C2A 4520  10.709  15.157  10.315  0.2420  0.1051  0.1352
  283loPI   C3A 4521  10.704  15.228   9.880  0.1331 -0.3621 -0.1810
  283loPI   C4A 4522  10.665  15.261   9.454  0.0897  0.1050 -0.0257
  283loPI   C5A 4523  10.450  15.373   9.013  0.0204 -0.2187 -0.3341
  283loPI   C6A 4524  10.511  15.677   8.696 -0.0229  0.0779  0.1106
  283loPI   C1B 4525  11.182  15.232  10.640 -0.2537 -0.0213 -0.1122
  283loPI   C2B 4526  11.306  15.323  10.231 -0.5259  0.0293 -0.3429
  283loPI   C3B 4527  11.230  15.326   9.827 -0.1198  0.3269  0.2811
  283loPI   C4B 4528  11.185  15.343   9.400  0.1903 -0.2487  0.1531
  284loPI    C1 4529  15.292  14.307  11.577  0.0108  0.0545  0.1742
  284loPI    C2 4530  15.410  14.636  11.771  0.0061  0.0168  0.2417
  284loPI    C3 4531  15.303  14.311  11.977 -0.3160  0.0839  0.1856
  284loPI   PO4 4532  15.298  14.332  11.359  0.0999 -0.2667 -0.3525
  284loPI   GL1 4533  15.211  14.288  10.945 -0.1614  0.1155 -0.0160
  284loPI   GL2 4534  14.939  14.297  10.872  0.0780  0.1554  0.0865
  284loPI   C1A 4535  15.121  14.223  10.417 -0.1444 -0.2736 -0.1603
  284loPI   C2A 4536  15.089  14.150   9.981  0.3097 -0.0789 -0.2582
  284loPI   C3A 4537  15.054  14.134   9.490 -0.2832  0.0266 -0.0405
  284loPI   C4A 4538  14.965  14.190   9.054 -0.0627 -0.5229  0.0317
  284loPI   C5A 4539  14.607  14.250   8.866 -0.1583 -0.2359  0.0756
  284loPI   C6A 4540  14.475  14.282   8.451 -0.2226  0.2956 -0.1002
  284loPI   C1B 4541  14.592  14.203  10.539 -0.0578 -0.2112 -0.0761
  284loPI   C2B 4542  14.555  14.133  10.158  0.0170  0.0564 -0.1625
  284loPI   C3B 4543  14.551  14.150   9.764 -0.0786  0.1033 -0.2643
  284loPI   C4B 4544  14.415  14.083   9.324 -0.1242  0.1915  0.2210
  285loPI    C1 4545   7.288   5.652  11.770  0.0876 -0.0304  0.0979
  285loPI    C2 4546   7.252   5.341  12.020  0.2713 -0.2240 -0.1118
  285loPI    C3 4547   7.613   5.453  11.890  0.2055  0.0713 -0.0492
  285loPI   PO4 4548   7.098   5.679  11.567  0.1995 -0.4031  0.1334
  285loPI   GL1 4549   7.051   5.710  11.126  0.0922  0.0965 -0.0713
  285loPI   GL2 4550   7.319   5.783  11.102 -0.0128  0.0588 -0.1357
  285loPI   C1A 4551   6.968   5.785  10.670  0.1246 -0.0575 -0.0271
  285loPI   C2A 4552   6.864   5.734  10.238 -0.0040 -0.0429  0.2751
  285loPI   C3A 4553   6.929   5.774   9.842  0.4241 -0.2251  0.1147
  285loPI   C4A 4554   6.888   5.771   9.435  0.4383 -0.2335  0.1561
  285loPI   C5A 4555   6.861   5.745   9.003  0.1018 -0.0760 -0.0721
  285loPI   C6A 4556   6.895   5.542   8.557 -0.0133 -0.2418 -0.0564
  285loPI   C1B 4557   7.423   6.019  10.782 -0.1173  0.1332  0.0212
  285loPI   C2B 4558   7.420   5.893  10.368  0.1396  0.2663 -0.2876
  285loPI   C3B 4559   7.404   5.943   9.889  0.2109  0.1116 -0.3161
  285loPI   C4B 4560   7.384   5.849   9.453  0.0273 -0.0693 -0.0552
  286loPI    C1 4561   0.638  12.203  11.639 -0.2729  0.3322 -0.1278
  286loPI    C2 4562   0.865  12.530  11.670  0.1095  0.0680 -0.0643
  286loPI    C3 4563   0.835  12.279  11.979 -0.1771  0.0372 -0.1146
  286loPI   PO4 4564   0.467  12.253  11.479  0.0318 -0.0225 -0.0586
  286loPI   GL1 4565   0.429  12.222  11.095 -0.1330 -0.1851 -0.0012
  286loPI   GL2 4566   0.596  12.016  10.862 -0.1803  0.3274 -0.1650
  286loPI   C1A 4567   0.244  12.294  10.740 -0.0787  0.1227 -0.0327
  286loPI   C2A 4568   0.264  12.451  10.291  0.0767  0.3312  0.2007
  286loPI   C3A 4569   0.263  12.379   9.864  0.1276 -0.0286  0.2522
  286loPI   C4A 4570   0.143  12.305   9.442  0.2574  0.2082  0.0639
  286loPI   C5A 4571   0.094  12.444   8.988  0.0040  0.0425  0.4063
  286loPI   C6A 4572  -0.039  12.845   8.829 -0.0180  0.5094 -0.4295
  286loPI   C1B 4573   0.566  11.998  10.416 -0.3232  0.2080  0.0202
  286loPI   C2B 4574   0.499  12.004   9.997  0.1703 -0.2698 -0.2197
  286loPI   C3B 4575   0.481  11.926   9.490  0.3084  0.1532  0.2934
  286loPI   C4B 4576   0.498  12.035   9.011 -0.0105  0.1361  0.0375
  287loPI    C1 4577   4.060   3.896  11.654 -0.0360  0.1988  0.1805
  287loPI    C2 4578   3.889   3.577  11.824 -0.0904  0.1867  0.1034
  287loPI    C3 4579   3.669   3.900  11.738 -0.0881  0.1477 -0.0526
  287loPI   PO4 4580   4.154   3.787  11.436 -0.1646  0.2989  0.3709
  287loPI   GL1 4581   4.414   3.976  11.121 -0.3539  0.1702  0.1882
  287loPI   GL2 4582   4.043   3.930  10.939  0.2825  0.3045  0.1436
  287loPI   C1A 4583   4.434   3.999  10.655  0.3523 -0.2315  0.3230
  287loPI   C2A 4584   4.402   3.912  10.281  0.1028 -0.1121  0.0852
  287loPI   C3A 4585   4.368   3.914   9.864 -0.1663  0.1663 -0.0798
  287loPI   C4A 4586   4.346   3.878   9.489 -0.1409 -0.0139  0.0949
  287loPI   C5A 4587   4.285   4.012   9.025 -0.0759 -0.2322 -0.1078
  287loPI   C6A 4588   4.273   3.887   8.588 -0.1037  0.1343 -0.1061
  287loPI   C1B 4589   3.936   3.952  10.448  0.1329 -0.1703  0.0237
  287loPI   C2B 4590   3.888   3.822  10.027  0.2644  0.2164 -0.1487
  287loPI   C3B 4591   3.829   3.734   9.681 -0.1563 -0.1941  0.1882
  287loPI   C4B 4592   3.838   3.827   9.291  0.0678  0.3526 -0.0130
  288loPI    C1 4593  14.813   0.413  11.800  0.0601 -0.3385  0.0980
  288loPI    C2 4594  14.473   0.395  12.010  0.0154  0.1690  0.0810
  288loPI    C3 4595  14.825   0.382  12.199 -0.0157 -0.0210  0.1277
  288loPI   PO4 4596  14.759   0.294  11.534 -0.0898  0.1862  0.1454
  288loPI   GL1 4597  14.569   0.316  11.085  0.0549 -0.2360  0.1091
  288loPI   GL2 4598  14.296   0.561  11.080 -0.3746 -0.0074 -0.0638
  288loPI   C1A 4599  14.491   0.258  10.595  0.1922  0.0732 -0.1421
  288loPI   C2A 4600  14.393   0.184  10.174  0.0292 -0.1154  0.3921
  288loPI   C3A 4601  14.328   0.123   9.674 -0.2195  0.1252 -0.2688
  288loPI   C4A 4602  14.481   0.134   9.202  0.0270  0.0492 -0.1543
  288loPI   C5A 4603  14.915   0.259   9.088  0.1657 -0.1914 -0.3358
  288loPI   C6A 4604  15.435   0.366   9.094  0.0793 -0.0237 -0.2841
  288loPI   C1B 4605  14.130   0.662  10.684  0.0689 -0.2278 -0.0092
  288loPI   C2B 4606  14.076   0.599  10.259 -0.1253 -0.1089  0.0766
  288loPI   C3B 4607  14.027   0.567   9.863  0.0455 -0.0956 -0.0370
  288loPI   C4B 4608  13.994   0.600   9.439 -0.1107 -0.0959 -0.1213
  289loPI    C1 4609   1.960   7.337  11.754  0.3462 -0.0286  0.1393
  289loPI    C2 4610   2.191   7.095  11.974  0.5114  0.2142  0.2368
  289loPI    C3 4611   1.880   7.282  12.142  0.2015 -0.1593  0.0917
  289loPI   PO4 4612   1.978   7.252  11.514  0.0035  0.0190  0.1138
  289loPI   GL1 4613   1.899   7.062  11.182  0.0987  0.1307 -0.1265
  289loPI   GL2 4614   2.210   7.155  11.070 -0.1956 -0.0405  0.3235
  289loPI   C1A 4615   1.768   7.212  10.809  0.1161 -0.0744  0.3804
  289loPI   C2A 4616   1.776   7.228  10.419  0.0089  0.0804 -0.1916
  289loPI   C3A 4617   1.760   7.223  10.033 -0.0087  0.1661  0.1864
  289loPI   C4A 4618   1.659   7.064   9.660 -0.1571  0.0432 -0.4106
  289loPI   C5A 4619   1.681   6.964   9.195 -0.5674 -0.1457 -0.0476
  289loPI   C6A 4620   2.142   6.804   9.063  0.1900  0.2025 -0.0264
  289loPI   C1B 4621   2.420   7.274  10.682  0.1034 -0.1470  0.1368
  289loPI   C2B 4622   2.241   7.346  10.272 -0.0377  0.0277  0.2496
  289loPI   C3B 4623   2.199   7.187   9.850 -0.1748  0.2735  0.0158
  289loPI   C4B 4624   2.182   7.196   9.441 -0.2277  0.0833 -0.4159
  290loPI    C1 4625  14.211  13.939  11.593  0.0272  0.1394 -0.0539
  290loPI    C2 4626  14.354  14.087  11.936  0.0363  0.2433 -0.1021
  290loPI    C3 4627  13.988  13.925  11.925  0.0945  0.1038 -0.0100
  290loPI   PO4 4628  14.284  14.261  11.404 -0.1037  0.0584 -0.2972
  290loPI   GL1 4629  14.449  14.390  10.971  0.1242  0.0370  0.1567
  290loPI   GL2 4630  14.484  14.027  11.040 -0.1121 -0.5746  0.4211
  290loPI   C1A 4631  14.215  14.565  10.685 -0.3129 -0.0134  0.2549
  290loPI   C2A 4632  14.190  14.524  10.230  0.3177 -0.1261 -0.1283
  290loPI   C3A 4633  14.142  14.485   9.774  0.0693  0.2122 -0.0420
  290loPI   C4A 4634  14.163  14.541   9.429  0.0382  0.0837  0.1867
  290loPI   C5A 4635  14.180  14.516   9.072 -0.1332 -0.1630 -0.1727
  290loPI   C6A 4636  14.078  14.298   8.855 -0.0620  0.3890 -0.3424
  290loPI   C1B 4637  14.457  13.733  10.693  0.1482  0.2290  0.2166
  290loPI   C2B 4638  14.353  13.655  10.200 -0.1768 -0.0102 -0.1204
  290loPI   C3B 4639  14.316  13.551   9.828 -0.2588 -0.1364  0.2012
  290loPI   C4B 4640  14.322  13.581   9.317  0.2765  0.3318 -0.2699
  291loPI    C1 4641   4.045   3.224  11.524  0.2898  0.3156  0.2986
  291loPI    C2 4642   4.084   2.834  11.608  0.1425  0.2070 -0.1138
  291loPI    C3 4643   4.048   3.100  11.904  0.0616 -0.1116  0.1682
  291loPI   PO4 4644   4.193   3.233  11.303  0.1507 -0.0406  0.0387
  291loPI   GL1 4645   4.233   3.494  11.008  0.1075 -0.0199  0.0004
  291loPI   GL2 4646   3.839   3.398  10.828  0.0907  0.2997 -0.0570
  291loPI   C1A 4647   4.260   3.547  10.618  0.1714  0.1149 -0.1390
  291loPI   C2A 4648   4.242   3.422  10.290 -0.0920  0.1423 -0.0202
  291loPI   C3A 4649   4.183   3.447   9.796  0.0547  0.1481  0.0505
  291loPI   C4A 4650   4.085   3.400   9.434  0.1220 -0.1592  0.1118
  291loPI   C5A 4651   4.163   3.477   9.016  0.0052  0.1437 -0.0458
  291loPI   C6A 4652   4.409   3.336   8.645  0.2294  0.2049  0.1765
  291loPI   C1B 4653   3.673   3.273  10.461 -0.0865 -0.1655  0.0978
  291loPI   C2B 4654   3.771   3.363  10.102  0.1438 -0.2184 -0.0462
  291loPI   C3B 4655   3.648   3.281   9.726  0.1530  0.1692  0.0617
  291loPI   C4B 4656   3.627   3.270   9.331  0.0775 -0.1268  0.2189
  292loPI    C1 4657  11.326  13.553  11.771  0.1174 -0.1067 -0.2017
  292loPI    C2 4658  11.266  13.934  11.876  0.2186 -0.1201 -0.0935
  292loPI    C3 4659  11.022  13.648  12.013  0.0761 -0.0813 -0.2634
  292loPI   PO4 4660  11.281  13.572  11.483 -0.2544  0.0738 -0.1678
  292loPI   GL1 4661  11.469  13.597  11.089  0.0098  0.1220 -0.0360
  292loPI   GL2 4662  11.222  13.846  11.051 -0.1752 -0.0617 -0.0612
  292loPI   C1A 4663  11.593  13.476  10.711  0.0999  0.1432  0.0817
  292loPI   C2A 4664  11.551  13.630  10.386 -0.0773 -0.1195 -0.1901
  292loPI   C3A 4665  11.550  13.504   9.976  0.0181  0.1824 -0.4602
  292loPI   C4A 4666  11.487  13.608   9.422  0.4260  0.3132 -0.1161
  292loPI   C5A 4667  11.338  13.522   9.080  0.0114 -0.1714  0.0231
  292loPI   C6A 4668  11.055  13.425   8.778 -0.2246 -0.0645 -0.0739
  292loPI   C1B 4669  11.227  13.960  10.682  0.1619  0.0158  0.2259
  292loPI   C2B 4670  11.256  14.033  10.273 -0.0516 -0.2448  0.2420
  292loPI   C3B 4671  11.160  13.992   9.843  0.1466  0.1757  0.1482
  292loPI   C4B 4672  11.049  14.031   9.369 -0.1483  0.2352 -0.3250
  293loPI    C1 4673  12.665   3.594  11.785  0.1656 -0.0157  0.0429
  293loPI    C2 4674  12.763   3.410  12.126 -0.1087  0.0166  0.1414
  293loPI    C3 4675  12.637   3.790  12.132  0.2572  0.1466 -0.0398
  293loPI   PO4 4676  12.792   3.361  11.568  0.1216  0.0373  0.3288
  293loPI   GL1 4677  13.020   3.420  11.182  0.0905 -0.0464  0.1765
  293loPI   GL2 4678  12.682   3.384  11.084  0.0118 -0.2264  0.0422
  293loPI   C1A 4679  13.066   3.321  10.762 -0.2105  0.2826  0.0312
  293loPI   C2A 4680  13.136   3.144  10.347  0.3004  0.0579 -0.0255
  293loPI   C3A 4681  12.960   3.276   9.927 -0.1641 -0.1091 -0.0098
  293loPI   C4A 4682  13.052   3.206   9.457 -0.1803 -0.2057  0.1552
  293loPI   C5A 4683  13.049   3.269   8.958  0.2241  0.0962 -0.2048
  293loPI   C6A 4684  13.137   3.053   8.557 -0.2449  0.0359  0.0883
  293loPI   C1B 4685  12.573   3.164  10.723  0.1044  0.0139  0.0047
  293loPI   C2B 4686  12.556   3.167  10.222  0.3128  0.0909 -0.0884
  293loPI   C3B 4687  12.483   3.117   9.802  0.1228  0.1975  0.0665
  293loPI   C4B 4688  12.631   3.065   9.310  0.0109 -0.0387  0.0021
  294loPI    C1 4689   2.850   6.620  11.907 -0.0471  0.0466  0.2347
  294loPI    C2 4690   2.541   6.752  12.123 -0.2304 -0.0738  0.0505
  294loPI    C3 4691   2.908   6.742  12.283 -0.2997  0.1806  0.2321
  294loPI   PO4 4692   2.745   6.758  11.642 -0.1192  0.1614 -0.2053
  294loPI   GL1 4693   2.801   6.841  11.243  0.3250  0.2159 -0.1023
  294loPI   GL2 4694   2.691   7.096  11.088 -0.1407 -0.0616 -0.0763
  294loPI   C1A 4695   3.040   6.838  10.796  0.0017 -0.2709 -0.0573
  294loPI   C2A 4696   3.136   6.824  10.417 -0.2353 -0.0734 -0.2580
  294loPI   C3A 4697   3.060   6.862   9.998  0.1380  0.1005 -0.1552
  294loPI   C4A 4698   3.045   6.876   9.535 -0.0305  0.1431  0.2325
  294loPI   C5A 4699   3.051   6.869   9.082 -0.2626  0.1010 -0.0190
  294loPI   C6A 4700   3.205   7.199   8.707  0.1562 -0.1091  0.0373
  294loPI   C1B 4701   2.515   6.831  10.836 -0.0619  0.0603 -0.2173
  294loPI   C2B 4702   2.580   6.790  10.370  0.0683 -0.2121 -0.1437
  294loPI   C3B 4703   2.551   6.739   9.967  0.1404 -0.2759 -0.1605
  294loPI   C4B 4704   2.525   6.697   9.549 -0.1203  0.2644 -0.0026
  295loPI    C1 4705  13.390  11.308  11.330 -0.1675 -0.0492 -0.1620
  295loPI    C2 4706  13.589  11.412  11.661 -0.2828 -0.0766 -0.0832
  295loPI    C3 4707  13.196  11.479  11.635 -0.2459  0.0741 -0.2796
  295loPI   PO4 4708  13.400  11.053  11.289  0.3598  0.0001  0.2391
  295loPI   GL1 4709  13.224  10.951  10.869 -0.0036  0.1275 -0.0009
  295loPI   GL2 4710  13.113  11.218  10.865 -0.3671 -0.3638 -0.2075
  295loPI   C1A 4711  13.230  10.788  10.462 -0.1166  0.3046  0.0721
  295loPI   C2A 4712  13.308  10.649  10.029  0.2459 -0.3156  0.0752
  295loPI   C3A 4713  13.292  10.567   9.601  0.2318 -0.0910 -0.1785
  295loPI   C4A 4714  13.222  10.555   9.156  0.0537  0.0667 -0.1323
  295loPI   C5A 4715  13.171  10.826   8.787  0.0125 -0.1300 -0.3429
  295loPI   C6A 4716  13.092  11.279   8.813  0.1293  0.1367 -0.1428
  295loPI   C1B 4717  13.048  11.230  10.538 -0.1790 -0.1419  0.2021
  295loPI   C2B 4718  13.014  11.059  10.086  0.3602 -0.1273 -0.0477
  295loPI   C3B 4719  12.957  10.956   9.609  0.1121 -0.0051  0.2858
  295loPI   C4B 4720  12.884  10.912   9.244  0.2448 -0.3453  0.0657
  296loPI    C1 4721  16.063  14.908  11.599  0.0976 -0.1805  0.0347
  296loPI    C2 4722  15.734  15.048  11.779  0.0762 -0.1025 -0.0641
  296loPI    C3 4723  16.095  15.176  11.894  0.0620 -0.0446 -0.0840
  296loPI   PO4 4724  16.037  14.915  11.331  0.0461 -0.0199  0.0161
  296loPI   GL1 4725  15.867  15.099  11.074  0.0002  0.1242  0.5070
  296loPI   GL2 4726  16.120  14.947  10.874 -0.2129 -0.1075 -0.1667
  296loPI   C1A 4727  15.849  15.350  10.739  0.0994  0.0276 -0.1711
  296loPI   C2A 4728  15.881  15.380  10.327 -0.1364  0.2670 -0.0612
  296loPI   C3A 4729  15.905  15.306   9.821 -0.0358 -0.0960 -0.2832
  296loPI   C4A 4730  15.778  15.189   9.337  0.0622 -0.0168 -0.1987
  296loPI   C5A 4731  15.627  14.837   9.175  0.0568 -0.1176 -0.0452
  296loPI   C6A 4732  15.706  14.520   8.915 -0.1592 -0.1665 -0.1038
  296loPI   C1B 4733  16.233  14.953  10.445  0.1364  0.0070  0.1360
  296loPI   C2B 4734  16.252  14.921   9.998 -0.0170  0.0044 -0.0061
  296loPI   C3B 4735  16.256  14.838   9.617 -0.0278  0.0499 -0.2515
  296loPI   C4B 4736  16.146  14.845   9.221 -0.2108  0.0927  0.1840
  297loPI    C1 4737   6.897   8.475  11.854 -0.2090 -0.3529  0.0543
  297loPI    C2 4738   7.171   8.304  12.089  0.0306  0.0363  0.0672
  297loPI    C3 4739   6.908   8.563  12.244  0.0839  0.1689 -0.0616
  297loPI   PO4 4740   6.869   8.415  11.626  0.2948 -0.0387 -0.0503
  297loPI   GL1 4741   6.966   8.260  11.235 -0.2926  0.1492 -0.0252
  297loPI   GL2 4742   7.240   8.176  11.086  0.1334  0.1601 -0.1357
  297loPI   C1A 4743   6.795   8.162  10.821  0.1372 -0.2591  0.0387
  297loPI   C2A 4744   6.756   8.095  10.252 -0.1068  0.1130 -0.4245
  297loPI   C3A 4745   6.774   8.041   9.798  0.1016 -0.2237 -0.1518
  297loPI   C4A 4746   6.773   7.981   9.414  0.0493  0.2324  0.2603
  297loPI   C5A 4747   6.705   7.907   9.017  0.5464 -0.4188 -0.1433
  297loPI   C6A 4748   6.782   7.949   8.649 -0.0393 -0.2615  0.0305
  297loPI   C1B 4749   7.335   8.177  10.681  0.0536  0.0077  0.4333
  297loPI   C2B 4750   7.326   8.153  10.178  0.1523 -0.0630 -0.1644
  297loPI   C3B 4751   7.301   8.077   9.780  0.2079 -0.0014 -0.0047
  297loPI   C4B 4752   7.264   8.001   9.333  0.2257 -0.4260 -0.1197
  298loPI    C1 4753   3.392  10.492  11.750 -0.0255  0.0876 -0.0369
  298loPI    C2 4754   3.454  10.430  12.140 -0.1075  0.0091 -0.0358
  298loPI    C3 4755   3.269  10.152  11.921  0.1073 -0.0294 -0.1712
  298loPI   PO4 4756   3.607  10.521  11.608 -0.0461 -0.0056 -0.4990
  298loPI   GL1 4757   3.630  10.387  11.165  0.1802  0.3508 -0.2858
  298loPI   GL2 4758   3.313  10.328  10.955 -0.0540 -0.3051  0.3616
  298loPI   C1A 4759   3.781  10.335  10.742 -0.1272 -0.1686  0.1978
  298loPI   C2A 4760   3.700  10.259  10.423 -0.0699 -0.0163 -0.0345
  298loPI   C3A 4761   3.761  10.242   9.958 -0.1255 -0.3172  0.2171
  298loPI   C4A 4762   3.698  10.347   9.492  0.1264 -0.0936  0.0729
  298loPI   C5A 4763   3.761  10.170   9.043  0.0151 -0.2349  0.0435
  298loPI   C6A 4764   3.717  10.221   8.647 -0.0194 -0.1027 -0.1854
  298loPI   C1B 4765   3.224  10.294  10.510  0.1273  0.1050  0.0912
  298loPI   C2B 4766   3.204  10.247  10.112  0.0994  0.0015 -0.0987
  298loPI   C3B 4767   3.251  10.320   9.743 -0.0267 -0.2013  0.3372
  298loPI   C4B 4768   3.266  10.186   9.245 -0.0611 -0.0330 -0.0196
  299loPI    C1 4769   9.957  14.586  11.802  0.0392 -0.1206  0.0941
  299loPI    C2 4770  10.034  14.978  11.826  0.3393 -0.1566 -0.2082
  299loPI    C3 4771  10.102  14.741  12.141 -0.0732  0.0670  0.0580
  299loPI   PO4 4772  10.023  14.614  11.490 -0.1520  0.0568  0.2078
  299loPI   GL1 4773  10.214  14.308  11.119  0.0665  0.2484 -0.1608
  299loPI   GL2 4774   9.912  14.560  10.991 -0.1726  0.0862 -0.3176
  299loPI   C1A 4775  10.331  14.213  10.792 -0.6124 -0.0390  0.2779
  299loPI   C2A 4776  10.397  14.200  10.391 -0.3328  0.0284  0.0238
  299loPI   C3A 4777  10.342  14.258  10.037 -0.0154 -0.0370 -0.1811
  299loPI   C4A 4778  10.311  14.321   9.555  0.3584 -0.1772 -0.0125
  299loPI   C5A 4779  10.538  14.135   9.144  0.1500 -0.1057 -0.1131
  299loPI   C6A 4780  10.348  14.160   8.741  0.0055  0.0214  0.0230
  299loPI   C1B 4781  10.099  14.624  10.628  0.3414 -0.1135  0.0942
  299loPI   C2B 4782  10.006  14.624  10.297 -0.1067 -0.2086 -0.2477
  299loPI   C3B 4783  10.034  14.647   9.852  0.1860 -0.0402 -0.1329
  299loPI   C4B 4784   9.977  14.683   9.488 -0.2322 -0.1674  0.2851
  300loPI    C1 4785  13.175  15.689  11.818 -0.0545  0.2716  0.1333
  300loPI    C2 4786  13.524  15.796  11.983  0.0332  0.1009  0.0604
  300loPI    C3 4787  13.278  16.075  11.838  0.1794  0.2166  0.0329
  300loPI   PO4 4788  13.251  15.465  11.662 -0.0577  0.3306  0.1547
  300loPI   GL1 4789  13.104  15.492  11.273 -0.2038  0.0313 -0.0467
  300loPI   GL2 4790  13.034  15.313  11.053 -0.1480 -0.1016 -0.2979
  300loPI   C1A 4791  13.161  15.730  10.799  0.2188  0.3562 -0.0911
  300loPI   C2A 4792  13.218  15.734  10.366 -0.3920 -0.0382 -0.0892
  300loPI   C3A 4793  13.126  15.634   9.863  0.0700  0.0700  0.2532
  300loPI   C4A 4794  13.119  15.668   9.389  0.1093 -0.2150  0.1709
  300loPI   C5A 4795  13.054  15.567   8.908 -0.2920 -0.1084 -0.1373
  300loPI   C6A 4796  13.425  15.640   8.486  0.0864 -0.0840  0.0079
  300loPI   C1B 4797  13.058  15.213  10.566 -0.0223 -0.0912  0.1133
  300loPI   C2B 4798  12.957  15.201  10.162 -0.0773  0.1444 -0.2096
  300loPI   C3B 4799  12.938  15.131   9.683 -0.0157  0.1927  0.0171
  300loPI   C4B 4800  12.933  15.206   9.313  0.0566 -0.0118  0.1084
  301loPI    C1 4801  10.957  11.583  11.592  0.0664 -0.1504 -0.1126
  301loPI    C2 4802  10.819  11.700  11.948  0.0685 -0.2167 -0.0901
  301loPI    C3 4803  11.121  11.438  11.927  0.2048 -0.0569 -0.1390
  301loPI   PO4 4804  10.992  11.817  11.458 -0.2102  0.1229  0.0210
  301loPI   GL1 4805  11.287  11.942  11.220  0.0175  0.1544 -0.3227
  301loPI   GL2 4806  10.996  12.003  10.941 -0.1737  0.0417  0.0033
  301loPI   C1A 4807  11.274  11.655  10.776 -0.0179 -0.1629 -0.0134
  301loPI   C2A 4808  11.386  11.590  10.324 -0.1314 -0.0242  0.1326
  301loPI   C3A 4809  11.388  11.619   9.943 -0.0129 -0.1250 -0.1892
  301loPI   C4A 4810  11.352  11.713   9.512 -0.0307 -0.1185 -0.1434
  301loPI   C5A 4811  11.297  11.790   9.092  0.3481  0.1570  0.0642
  301loPI   C6A 4812  11.302  12.075   8.848  0.2429 -0.0216  0.0124
  301loPI   C1B 4813  11.001  11.984  10.540 -0.0635 -0.2438  0.0238
  301loPI   C2B 4814  11.025  12.007  10.101  0.0698  0.4868 -0.0811
  301loPI   C3B 4815  10.974  12.023   9.658  0.0076 -0.0923  0.1214
  301loPI   C4B 4816  10.904  12.086   9.279 -0.1050 -0.0223 -0.0074
  302loPI    C1 4817  15.033  13.885  11.421  0.0228  0.3011 -0.0119
  302loPI    C2 4818  14.700  13.982  11.622 -0.0795 -0.1857  0.0659
  302loPI    C3 4819  15.040  13.911  11.820  0.0291  0.1339 -0.0005
  302loPI   PO4 4820  14.988  13.817  11.174 -0.0009 -0.2545 -0.1204
  302loPI   GL1 4821  15.006  13.756  10.824  0.1747  0.0179 -0.0512
  302loPI   GL2 4822  15.369  13.837  10.742 -0.1241  0.1528 -0.0412
  302loPI   C1A 4823  14.844  13.813  10.412 -0.0722  0.1746 -0.0399
  302loPI   C2A 4824  14.893  13.717  10.019  0.2165  0.1925  0.0711
  302loPI   C3A 4825  14.769  13.702   9.590  0.1427 -0.1324 -0.4114
  302loPI   C4A 4826  14.748  13.745   9.119  0.1469  0.2691  0.4256
  302loPI   C5A 4827  14.877  13.674   8.781  0.0291  0.0239 -0.0495
  302loPI   C6A 4828  14.945  13.954   8.540  0.1224  0.2317 -0.2449
  302loPI   C1B 4829  15.384  13.816  10.305 -0.0243 -0.1779 -0.0553
  302loPI   C2B 4830  15.385  13.699   9.919 -0.0363 -0.1378  0.0680
  302loPI   C3B 4831  15.451  13.724   9.512  0.2892  0.3314  0.1269
  302loPI   C4B 4832  15.265  13.726   9.092  0.3111 -0.1657  0.2792
  303loPI    C1 4833   0.052   4.560  11.802  0.0072 -0.1492 -0.0564
  303loPI    C2 4834   0.416   4.472  11.941  0.0945 -0.0175 -0.1971
  303loPI    C3 4835   0.111   4.521  12.195  0.1619 -0.1821 -0.0823
  303loPI   PO4 4836   0.225   4.639  11.482  0.1573 -0.1448  0.1994
  303loPI   GL1 4837   0.102   4.757  11.108 -0.0201 -0.3844  0.1459
  303loPI   GL2 4838  -0.070   4.501  10.897 -0.1047  0.0475 -0.0001
  303loPI   C1A 4839   0.021   4.928  10.679 -0.4238 -0.1011 -0.0597
  303loPI   C2A 4840   0.023   4.948  10.254  0.0496  0.1596 -0.1696
  303loPI   C3A 4841  -0.056   4.886   9.825 -0.1552 -0.0767 -0.0500
  303loPI   C4A 4842   0.015   4.901   9.344  0.1176 -0.2545 -0.1381
  303loPI   C5A 4843   0.107   5.092   8.933 -0.3629 -0.1234 -0.1772
  303loPI   C6A 4844   0.519   5.284   8.764  0.0940  0.1126 -0.5905
  303loPI   C1B 4845  -0.170   4.444  10.416  0.0381  0.0193 -0.0396
  303loPI   C2B 4846  -0.151   4.407  10.046  0.0867  0.1175 -0.3284
  303loPI   C3B 4847  -0.212   4.400   9.555 -0.2561 -0.0791  0.0409
  303loPI   C4B 4848  -0.171   4.396   9.159  0.0586  0.0504 -0.0957
  304loPI    C1 4849  16.374   0.883  11.666  0.0193 -0.2130 -0.0834
  304loPI    C2 4850  16.439   1.254  11.802 -0.0673 -0.1361 -0.2494
  304loPI    C3 4851  16.612   0.942  11.982 -0.2557 -0.0456  0.0963
  304loPI   PO4 4852  16.371   0.955  11.378  0.1531 -0.0630 -0.0743
  304loPI   GL1 4853  16.477   0.691  11.050  0.0731  0.0772 -0.2713
  304loPI   GL2 4854  16.819   0.839  11.053 -0.1257  0.0891  0.0650
  304loPI   C1A 4855  16.408   0.779  10.692  0.3661 -0.0461  0.5485
  304loPI   C2A 4856  16.377   0.801  10.165  0.0893 -0.1203  0.3055
  304loPI   C3A 4857  16.322   0.732   9.755 -0.1460  0.1684  0.0227
  304loPI   C4A 4858  16.414   0.528   9.313  0.1878  0.0466 -0.1474
  304loPI   C5A 4859  16.471   0.143   8.964  0.0376 -0.2275  0.0225
  304loPI   C6A 4860  16.642   0.271   8.564  0.0672  0.1172 -0.1054
  304loPI   C1B 4861  16.917   0.863  10.633 -0.0398 -0.1023 -0.0214
  304loPI   C2B 4862  16.900   0.749  10.230  0.1584 -0.3125  0.3881
  304loPI   C3B 4863  16.873   0.655   9.788 -0.1301  0.1483  0.0721
  304loPI   C4B 4864  16.842   0.748   9.429  0.2811  0.0570  0.2725
  305loPI    C1 4865   6.779  11.974  12.004 -0.1850  0.1415  0.1365
  305loPI    C2 4866   7.152  12.018  12.142 -0.0064 -0.1674 -0.2277
  305loPI    C3 4867   6.901  11.764  12.322  0.0238 -0.1121 -0.1063
  305loPI   PO4 4868   6.824  12.022  11.723  0.3357  0.1373 -0.2399
  305loPI   GL1 4869   6.538  11.977  11.281 -0.4052 -0.0298  0.1734
  305loPI   GL2 4870   6.207  11.892  11.206  0.3108  0.0152  0.0147
  305loPI   C1A 4871   6.613  11.851  10.879  0.1662 -0.3414  0.1343
  305loPI   C2A 4872   6.560  11.674  10.517  0.1375  0.1752  0.0129
  305loPI   C3A 4873   6.594  11.721  10.036  0.2840  0.0522  0.0041
  305loPI   C4A 4874   6.640  11.652   9.602 -0.0724  0.2517 -0.3835
  305loPI   C5A 4875   6.971  11.640   9.233  0.0884  0.0407 -0.0926
  305loPI   C6A 4876   7.258  11.559   8.900  0.0403 -0.1396  0.0695
  305loPI   C1B 4877   6.143  11.646  10.786 -0.0518 -0.1162  0.0286
  305loPI   C2B 4878   6.055  11.677  10.347  0.1748  0.3344  0.1096
  305loPI   C3B 4879   6.049  11.624   9.905  0.0540 -0.0493 -0.0030
  305loPI   C4B 4880   6.123  11.594   9.546 -0.0929 -0.0523  0.4878
  306loPI    C1 4881   4.539   0.187  11.403 -0.0678 -0.1637  0.2060
  306loPI    C2 4882   4.816   0.302  11.669 -0.0840  0.1306  0.0992
  306loPI    C3 4883   4.466   0.496  11.647 -0.0986  0.0838 -0.1089
  306loPI   PO4 4884   4.612   0.205  11.183 -0.1127 -0.0276  0.1046
  306loPI   GL1 4885   4.447   0.224  10.829  0.1645 -0.1435  0.3282
  306loPI   GL2 4886   4.182   0.306  10.758  0.1227 -0.1111 -0.1331
  306loPI   C1A 4887   4.623   0.274  10.475 -0.2083 -0.3047  0.2034
  306loPI   C2A 4888   4.530   0.228  10.116  0.0490  0.2528 -0.0379
  306loPI   C3A 4889   4.557   0.299   9.639  0.0073  0.1388 -0.2032
  306loPI   C4A 4890   4.546   0.179   9.258  0.1616 -0.4662 -0.0629
  306loPI   C5A 4891   4.583   0.343   8.882  0.1075 -0.1681 -0.2261
  306loPI   C6A 4892   4.900   0.439   8.590  0.0421  0.2845  0.1832
  306loPI   C1B 4893   3.981   0.167  10.372 -0.1190  0.1216  0.1273
  306loPI   C2B 4894   4.071   0.203   9.933  0.2046  0.0548 -0.0141
  306loPI   C3B 4895   3.930   0.200   9.594 -0.0650  0.2822  0.1773
  306loPI   C4B 4896   3.929   0.165   9.068  0.2682  0.0838 -0.0151
  307loPI    C1 4897   5.884   1.535  11.355  0.1243  0.0719  0.2128
  307loPI    C2 4898   6.209   1.373  11.522  0.0703  0.0086  0.2568
  307loPI    C3 4899   5.915   1.515  11.753  0.0221 -0.0249  0.2162
  307loPI   PO4 4900   6.009   1.705  11.185  0.0744  0.1466  0.0019
  307loPI   GL1 4901   6.126   1.955  10.867  0.1414 -0.3321 -0.0524
  307loPI   GL2 4902   6.349   1.668  10.688  0.3994 -0.0917  0.0740
  307loPI   C1A 4903   6.100   2.031  10.468 -0.0786  0.0118  0.1053
  307loPI   C2A 4904   6.037   2.016  10.030 -0.4338  0.0335 -0.2084
  307loPI   C3A 4905   6.035   2.020   9.673 -0.2171  0.2238 -0.2588
  307loPI   C4A 4906   6.080   1.813   9.266 -0.2139  0.1391 -0.1989
  307loPI   C5A 4907   6.012   1.797   8.816  0.1544  0.0462 -0.1550
  307loPI   C6A 4908   5.757   2.060   8.490 -0.1689  0.1634  0.0108
  307loPI   C1B 4909   6.369   1.610  10.219  0.1476 -0.5026 -0.0381
  307loPI   C2B 4910   6.335   1.566   9.754 -0.1509 -0.1589 -0.0124
  307loPI   C3B 4911   6.426   1.392   9.384  0.1619 -0.1464 -0.0293
  307loPI   C4B 4912   6.321   1.347   8.928  0.0812 -0.2418  0.2502
  308loPI    C1 4913   3.308  11.130  11.815 -0.1779  0.1002  0.0179
  308loPI    C2 4914   3.531  10.906  12.060  0.1385  0.1741 -0.1973
  308loPI    C3 4915   3.273  11.172  12.211  0.0711 -0.0317  0.0553
  308loPI   PO4 4916   3.236  11.007  11.645 -0.0487 -0.2592  0.1889
  308loPI   GL1 4917   3.387  11.078  11.238 -0.0463  0.4612 -0.0605
  308loPI   GL2 4918   3.511  10.869  11.097  0.0137 -0.0943 -0.1420
  308loPI   C1A 4919   3.110  11.121  10.872  0.1235  0.1076 -0.0143
  308loPI   C2A 4920   3.048  11.088  10.447  0.0630 -0.1767 -0.5623
  308loPI   C3A 4921   3.038  11.195  10.033 -0.2214 -0.1434 -0.0854
  308loPI   C4A 4922   3.095  11.188   9.571  0.0316 -0.0065  0.0071
  308loPI   C5A 4923   3.055  11.137   9.187  0.1002 -0.0316 -0.0548
  308loPI   C6A 4924   3.117  11.020   8.792  0.0831  0.1695 -0.1592
  308loPI   C1B 4925   3.460  10.732  10.633  0.1387  0.3141 -0.0092
  308loPI   C2B 4926   3.297  10.734  10.189  0.1756 -0.0891  0.2489
  308loPI   C3B 4927   3.400  10.854   9.795  0.1459 -0.1311 -0.1337
  308loPI   C4B 4928   3.414  10.732   9.356 -0.1490 -0.2565 -0.0975
  309loPI    C1 4929   9.873   0.695  11.708  0.1657 -0.1114  0.2078
  309loPI    C2 4930   9.671   0.425  11.923 -0.0089  0.0152  0.2046
  309loPI    C3 4931   9.706   0.801  12.055 -0.0272  0.0674  0.0634
  309loPI   PO4 4932   9.885   0.517  11.476 -0.0383  0.3166  0.2800
  309loPI   GL1 4933   9.775   0.411  11.117  0.2075 -0.0401  0.0355
  309loPI   GL2 4934   9.708   0.122  11.163  0.0106 -0.0927  0.0549
  309loPI   C1A 4935   9.821   0.343  10.675 -0.1950 -0.1534  0.0685
  309loPI   C2A 4936   9.656   0.232  10.284  0.0943 -0.1243 -0.1902
  309loPI   C3A 4937   9.714   0.384   9.779  0.2931  0.1951  0.3159
  309loPI   C4A 4938   9.668   0.366   9.314  0.0625 -0.2911 -0.0490
  309loPI   C5A 4939   9.439   0.222   8.968  0.1032  0.2210  0.0177
  309loPI   C6A 4940   9.015   0.171   8.860 -0.0100  0.0065  0.0051
  309loPI   C1B 4941   9.580  -0.099  10.794  0.0202  0.0765 -0.2455
  309loPI   C2B 4942   9.447  -0.208  10.407 -0.1180  0.1625 -0.0199
  309loPI   C3B 4943   9.447  -0.159  10.019 -0.2384  0.0036 -0.4075
  309loPI   C4B 4944   9.544  -0.097   9.683  0.1131 -0.1089 -0.1365
  310loPI    C1 4945  16.531   0.076  11.579 -0.0421 -0.0605 -0.0363
  310loPI    C2 4946  16.766   0.038  11.901 -0.0758  0.0292 -0.0010
  310loPI    C3 4947  16.379  -0.061  11.922 -0.0546 -0.0632 -0.0429
  310loPI   PO4 4948  16.697   0.020  11.362 -0.2045 -0.1212 -0.1549
  310loPI   GL1 4949  16.692  -0.369  10.945 -0.1387 -0.1447  0.1275
  310loPI   GL2 4950  16.907  -0.637  10.901 -0.2693 -0.5656 -0.2517
  310loPI   C1A 4951  16.618  -0.146  10.567  0.0634  0.1295 -0.0167
  310loPI   C2A 4952  16.568  -0.244  10.122 -0.0273 -0.2754 -0.0899
  310loPI   C3A 4953  16.619  -0.361   9.669 -0.0208 -0.1362 -0.1537
  310loPI   C4A 4954  16.475  -0.316   9.277 -0.0098  0.0956  0.0741
  310loPI   C5A 4955  16.270  -0.271   8.845  0.0210  0.1154  0.1852
  310loPI   C6A 4956  15.954  -0.197   8.477 -0.2597 -0.1085 -0.1254
  310loPI   C1B 4957  16.896  -0.583  10.464  0.0199  0.1431  0.1574
  310loPI   C2B 4958  16.917  -0.574  10.015 -0.2341  0.0138 -0.0963
  310loPI   C3B 4959  16.989  -0.689   9.535  0.0601 -0.1807  0.1242
  310loPI   C4B 4960  16.805  -0.729   9.200 -0.2537  0.2418 -0.1590
  311loPI    C1 4961   2.973  10.192  11.488  0.1521 -0.0553 -0.1885
  311loPI    C2 4962   2.601  10.103  11.369  0.1017 -0.0461 -0.0400
  311loPI    C3 4963   2.738   9.963  11.718  0.1602  0.1334  0.0099
  311loPI   PO4 4964   3.100  10.099  11.295 -0.1158  0.1590 -0.0705
  311loPI   GL1 4965   3.386   9.800  11.070  0.1523 -0.1857 -0.1834
  311loPI   GL2 4966   3.382   9.477  11.063 -0.0899 -0.0184  0.0393
  311loPI   C1A 4967   3.540   9.873  10.656 -0.1122 -0.0459 -0.0460
  311loPI   C2A 4968   3.535   9.855  10.222  0.0664  0.3237  0.0519
  311loPI   C3A 4969   3.589   9.782   9.833 -0.1017  0.2110 -0.0129
  311loPI   C4A 4970   3.482   9.724   9.379  0.1037 -0.0934  0.0584
  311loPI   C5A 4971   3.530   9.721   8.925  0.3200 -0.1488 -0.0993
  311loPI   C6A 4972   3.446   9.841   8.521 -0.1303  0.1116 -0.2744
  311loPI   C1B 4973   3.359   9.467  10.536  0.1639 -0.1845 -0.1185
  311loPI   C2B 4974   3.377   9.389  10.077 -0.2671 -0.3831 -0.0172
  311loPI   C3B 4975   3.273   9.315   9.596 -0.1774 -0.0519 -0.2683
  311loPI   C4B 4976   3.341   9.217   9.151 -0.2367 -0.1298 -0.1347
  312loPI    C1 4977   2.249   8.250  11.808  0.1153  0.0974 -0.1244
  312loPI    C2 4978   2.551   7.995  11.868 -0.1359 -0.1784 -0.0046
  312loPI    C3 4979   2.496   8.302  12.118  0.0107 -0.1591  0.0049
  312loPI   PO4 4980   2.262   8.198  11.520  0.1159 -0.1454 -0.1101
  312loPI   GL1 4981   2.188   8.360  11.162 -0.0103 -0.0803  0.1770
  312loPI   GL2 4982   2.097   8.108  11.075 -0.0195 -0.0646  0.2336
  312loPI   C1A 4983   2.559   8.352  10.889 -0.0485  0.1430 -0.1168
  312loPI   C2A 4984   2.616   8.257  10.507  0.1120  0.1774  0.1141
  312loPI   C3A 4985   2.594   8.303  10.066 -0.0983 -0.0283 -0.1175
  312loPI   C4A 4986   2.593   8.231   9.594  0.1487  0.1834  0.0262
  312loPI   C5A 4987   2.422   8.305   9.183 -0.2038  0.3962 -0.1373
  312loPI   C6A 4988   2.464   8.583   8.889 -0.2097  0.1584  0.1958
  312loPI   C1B 4989   2.092   8.101  10.672  0.0101  0.2266 -0.2638
  312loPI   C2B 4990   2.133   8.142  10.267 -0.1890 -0.3105 -0.3471
  312loPI   C3B 4991   2.103   8.155   9.847 -0.0870  0.0369  0.3071
  312loPI   C4B 4992   1.955   8.079   9.380  0.0921  0.0447 -0.1786
  313loPI    C1 4993  12.260   4.214  11.519 -0.0029 -0.1323  0.1487
  313loPI    C2 4994  12.607   4.332  11.360 -0.0461 -0.5267 -0.2595
  313loPI    C3 4995  12.599   4.172  11.727  0.1335 -0.1097 -0.0666
  313loPI   PO4 4996  12.099   4.444  11.480  0.0838 -0.1440 -0.0214
  313loPI   GL1 4997  12.282   4.677  11.184 -0.0544 -0.0910  0.3583
  313loPI   GL2 4998  12.610   4.864  11.223 -0.1874 -0.0639  0.1300
  313loPI   C1A 4999  12.197   4.581  10.772  0.4000  0.2849 -0.1693
  313loPI   C2A 5000  12.109   4.514  10.344  0.1276  0.1437  0.1978
  313loPI   C3A 5001  12.072   4.432   9.946 -0.0998  0.1858  0.4157
  313loPI   C4A 5002  12.110   4.353   9.543  0.0209 -0.1843 -0.0703
  313loPI   C5A 5003  11.976   4.276   9.117 -0.0289 -0.0729  0.2638
  313loPI   C6A 5004  11.859   4.054   8.723  0.0571  0.4181  0.1065
  313loPI   C1B 5005  12.700   5.079  10.885 -0.0198 -0.0929 -0.0355
  313loPI   C2B 5006  12.824   5.071  10.591  0.1148 -0.0514 -0.2019
  313loPI   C3B 5007  12.792   5.038  10.143  0.1864 -0.0810 -0.1323
  313loPI   C4B 5008  12.771   5.042   9.653 -0.2146  0.3379  0.1274
  314loPI    C1 5009  10.100  11.562  11.894 -0.0337  0.1248 -0.1190
  314loPI    C2 5010   9.928  11.304  12.147  0.1424 -0.0744 -0.1996
  314loPI    C3 5011  10.023  11.673  12.270  0.0304 -0.0984 -0.0386
  314loPI   PO4 5012  10.023  11.637  11.652 -0.1324  0.2413 -0.3282
  314loPI   GL1 5013   9.830  11.321  11.200 -0.1253 -0.2446 -0.3333
  314loPI   GL2 5014  10.122  11.340  11.251  0.1623  0.5133 -0.2638
  314loPI   C1A 5015   9.822  11.331  10.782  0.1911  0.1039  0.1722
  314loPI   C2A 5016   9.890  11.344  10.398 -0.0693  0.0777  0.0991
  314loPI   C3A 5017   9.813  11.333   9.999 -0.1919  0.2186 -0.3343
  314loPI   C4A 5018   9.822  11.325   9.626  0.0140  0.1757 -0.0159
  314loPI   C5A 5019   9.838  11.421   9.216 -0.0237  0.0799  0.0545
  314loPI   C6A 5020   9.795  11.421   8.816  0.2214  0.0240 -0.1618
  314loPI   C1B 5021  10.060  11.730  11.018  0.0672  0.0809 -0.1703
  314loPI   C2B 5022  10.076  11.769  10.555 -0.0365  0.0643 -0.0164
  314loPI   C3B 5023  10.011  11.763  10.111  0.2716 -0.1252 -0.2204
  314loPI   C4B 5024   9.998  11.788   9.609  0.0824 -0.3090 -0.3203
  315loPI    C1 5025   0.834   3.520  11.546  0.1314  0.0376 -0.0306
  315loPI    C2 5026   0.876   3.373  11.916  0.1314 -0.2140 -0.1282
  315loPI    C3 5027   0.966   3.756  11.841  0.5561 -0.2757  0.0394
  315loPI   PO4 5028   1.071   3.422  11.397 -0.1382 -0.0085 -0.0981
  315loPI   GL1 5029   1.240   3.407  11.096  0.1940  0.1117  0.1313
  315loPI   GL2 5030   1.074   3.783  10.926  0.1098 -0.2135  0.2460
  315loPI   C1A 5031   1.292   3.359  10.623 -0.0410  0.0564  0.2793
  315loPI   C2A 5032   1.326   3.354  10.127 -0.0044 -0.0402  0.2244
  315loPI   C3A 5033   1.288   3.266   9.744  0.1206  0.1078 -0.1340
  315loPI   C4A 5034   1.294   3.201   9.342 -0.1555  0.3084 -0.0324
  315loPI   C5A 5035   1.361   3.298   8.990  0.0911  0.1516 -0.0260
  315loPI   C6A 5036   1.558   3.312   8.573  0.0494 -0.2751 -0.3918
  315loPI   C1B 5037   1.029   3.769  10.457 -0.0393 -0.0951 -0.0650
  315loPI   C2B 5038   0.980   3.754  10.004 -0.1149 -0.1074 -0.2752
  315loPI   C3B 5039   0.965   3.640   9.609  0.1539  0.1228  0.0031
  315loPI   C4B 5040   0.998   3.627   9.236 -0.1544 -0.1479  0.0950
  316loPI    C1 5041   5.570   5.314  11.681 -0.0061 -0.0974  0.0532
  316loPI    C2 5042   5.917   5.430  11.844  0.0266 -0.0943 -0.0186
  316loPI    C3 5043   5.586   5.415  12.068  0.0016  0.2276 -0.0285
  316loPI   PO4 5044   5.532   5.425  11.443  0.1470  0.1548  0.0526
  316loPI   GL1 5045   5.668   5.422  11.045  0.0189  0.1900 -0.5718
  316loPI   GL2 5046   5.405   5.566  10.960 -0.0432  0.0835 -0.0780
  316loPI   C1A 5047   5.917   5.652  10.701 -0.1047  0.1156 -0.1010
  316loPI   C2A 5048   5.898   5.546  10.293 -0.0866 -0.0944  0.1506
  316loPI   C3A 5049   5.893   5.538   9.804 -0.0559  0.1969 -0.1054
  316loPI   C4A 5050   5.927   5.560   9.388 -0.2326  0.2042  0.1117
  316loPI   C5A 5051   5.945   5.554   8.961  0.0027  0.0705 -0.0870
  316loPI   C6A 5052   5.856   5.874   8.607 -0.1253 -0.0518 -0.3970
  316loPI   C1B 5053   5.438   5.498  10.515  0.0280 -0.1420  0.2149
  316loPI   C2B 5054   5.385   5.492  10.074 -0.1232 -0.3116 -0.0296
  316loPI   C3B 5055   5.455   5.424   9.626 -0.3283  0.0632 -0.3873
  316loPI   C4B 5056   5.199   5.444   9.255 -0.2179  0.2917  0.1969
  317loPI    C1 5057  15.156   9.147  11.642  0.1282  0.1956  0.0938
  317loPI    C2 5058  15.300   9.488  11.795  0.0952  0.2198  0.0711
  317loPI    C3 5059  14.910   9.403  11.826  0.1539  0.0378  0.3539
  317loPI   PO4 5060  15.206   9.085  11.429  0.3289 -0.2772  0.3446
  317loPI   GL1 5061  15.190   9.273  10.968  0.0225 -0.1466  0.0013
  317loPI   GL2 5062  14.872   9.148  11.015 -0.0078  0.0701 -0.0166
  317loPI   C1A 5063  15.186   9.204  10.427  0.0599  0.0238 -0.0342
  317loPI   C2A 5064  15.184   9.162   9.974  0.2236  0.1507 -0.1126
  317loPI   C3A 5065  15.159   9.107   9.572  0.2582 -0.0227  0.1503
  317loPI   C4A 5066  14.981   9.123   9.153 -0.0010  0.1553  0.0618
  317loPI   C5A 5067  14.809   8.866   8.871 -0.0567 -0.1244  0.1219
  317loPI   C6A 5068  14.529   8.672   9.009 -0.2274 -0.1666  0.0554
  317loPI   C1B 5069  14.812   9.388  10.728  0.1904 -0.1611 -0.2369
  317loPI   C2B 5070  14.781   9.563  10.332 -0.1631  0.1903  0.1046
  317loPI   C3B 5071  14.832   9.627  10.042  0.3088 -0.2910  0.2397
  317loPI   C4B 5072  14.757   9.477   9.625 -0.2173  0.0856 -0.0277
  318loPI    C1 5073  11.104  12.624  11.726 -0.2201 -0.0337 -0.2513
  318loPI    C2 5074  10.815  12.622  12.003 -0.0750  0.0070 -0.0981
  318loPI    C3 5075  11.192  12.706  12.107 -0.0527  0.2221 -0.3427
  318loPI   PO4 5076  10.995  12.758  11.548 -0.0545 -0.0920 -0.2694
  318loPI   GL1 5077  11.011  12.676  11.075  0.3923 -0.0043 -0.0886
  318loPI   GL2 5078  10.885  12.896  10.862  0.1825 -0.2191 -0.0088
  318loPI   C1A 5079  11.162  12.492  10.696 -0.1253  0.0922  0.0143
  318loPI   C2A 5080  11.149  12.507  10.226 -0.0752 -0.2425  0.0818
  318loPI   C3A 5081  11.142  12.528   9.705 -0.3270  0.0558  0.2081
  318loPI   C4A 5082  11.115  12.621   9.172  0.2611  0.0438  0.1668
  318loPI   C5A 5083  10.888  12.416   8.756  0.2209 -0.3334  0.1347
  318loPI   C6A 5084  11.030  12.158   8.437  0.0877  0.1236  0.0047
  318loPI   C1B 5085  10.906  12.892  10.406 -0.2263 -0.0216 -0.0154
  318loPI   C2B 5086  10.848  12.869   9.907  0.3091 -0.2051 -0.0362
  318loPI   C3B 5087  10.786  12.992   9.566 -0.3665 -0.1365 -0.1388
  318loPI   C4B 5088  10.548  13.003   9.255  0.1833 -0.0820  0.0108
  319loPI    C1 5089  15.088   0.031  11.832 -0.0025 -0.1548 -0.1002
  319loPI    C2 5090  14.719  -0.047  11.965 -0.0504 -0.0812 -0.1890
  319loPI    C3 5091  15.037  -0.184  12.166 -0.1212  0.0416  0.0096
  319loPI   PO4 5092  15.112  -0.075  11.603  0.0007  0.3845 -0.0013
  319loPI   GL1 5093  15.368   0.131  11.213  0.1658  0.2374  0.1144
  319loPI   GL2 5094  15.077   0.088  11.166 -0.1860 -0.0385 -0.1805
  319loPI   C1A 5095  15.272  -0.035  10.741  0.1250  0.0559 -0.1119
  319loPI   C2A 5096  15.197   0.009  10.340 -0.2922 -0.1909  0.0257
  319loPI   C3A 5097  15.232  -0.052   9.898  0.1261 -0.2914  0.1427
  319loPI   C4A 5098  15.154  -0.100   9.509 -0.0998  0.0474 -0.2965
  319loPI   C5A 5099  15.281  -0.143   9.073  0.0400 -0.1811  0.1389
  319loPI   C6A 5100  15.671  -0.254   8.845  0.0762 -0.1663  0.0534
  319loPI   C1B 5101  14.931   0.311  10.752  0.1906 -0.1204 -0.0978
  319loPI   C2B 5102  14.865   0.343  10.281  0.3568 -0.0109  0.2316
  319loPI   C3B 5103  14.808   0.271   9.924 -0.1099  0.2982 -0.1231
  319loPI   C4B 5104  14.805   0.252   9.652  0.3164 -0.2543  0.3434
  320loPI    C1 5105   8.463  17.023  11.801  0.1065  0.1254  0.0482
  320loPI    C2 5106   8.235  16.910  12.109  0.1887 -0.4446 -0.0895
  320loPI    C3 5107   8.550  17.148  12.170 -0.2037  0.0294  0.1572
  320loPI   PO4 5108   8.245  17.118  11.589 -0.1828 -0.1609  0.1116
  320loPI   GL1 5109   8.253  17.045  11.113  0.0201  0.1024  0.0944
  320loPI   GL2 5110   8.545  17.315  10.965 -0.2208  0.1503  0.1158
  320loPI   C1A 5111   8.037  16.964  10.753 -0.0884 -0.1413  0.2100
  320loPI   C2A 5112   8.008  16.918  10.241 -0.1269  0.0170  0.2387
  320loPI   C3A 5113   8.068  16.991   9.865  0.0900 -0.1530 -0.1332
  320loPI   C4A 5114   8.086  17.038   9.456 -0.3417  0.1528 -0.1156
  320loPI   C5A 5115   8.170  17.142   9.019 -0.3515  0.3717  0.0030
  320loPI   C6A 5116   8.449  17.292   8.863  0.1986  0.0891 -0.3282
  320loPI   C1B 5117   8.537  17.042  10.601 -0.3102 -0.1734  0.0472
  320loPI   C2B 5118   8.465  17.081  10.127 -0.0579  0.0100  0.1513
  320loPI   C3B 5119   8.501  17.120   9.728 -0.0134  0.2367  0.1252
  320loPI   C4B 5120   8.507  17.256   9.354 -0.1187  0.2315 -0.2277
  321loPI    C1 5121   4.582  14.602  11.664  0.0084 -0.0974  0.0432
  321loPI    C2 5122   4.977  14.611  11.601 -0.0144 -0.1749 -0.1180
  321loPI    C3 5123   4.817  14.826  11.898  0.1785 -0.3470  0.1149
  321loPI   PO4 5124   4.490  14.605  11.328  0.3578 -0.0072 -0.0885
  321loPI   GL1 5125   4.739  14.460  11.071  0.1175  0.2505 -0.3098
  321loPI   GL2 5126   4.862  14.773  11.022 -0.0700  0.0070  0.0228
  321loPI   C1A 5127   4.720  14.148  10.817  0.2273 -0.0049 -0.2002
  321loPI   C2A 5128   4.629  14.173  10.356  0.2326  0.3001  0.2350
  321loPI   C3A 5129   4.678  14.133   9.971  0.3191 -0.0072  0.2781
  321loPI   C4A 5130   4.552  14.027   9.511  0.0927 -0.0247  0.0579
  321loPI   C5A 5131   4.554  13.999   9.005 -0.1623 -0.0251 -0.1136
  321loPI   C6A 5132   4.587  14.384   8.797 -0.2652  0.0856 -0.0149
  321loPI   C1B 5133   4.892  14.562  10.578  0.1404  0.0652 -0.2818
  321loPI   C2B 5134   4.870  14.580  10.207 -0.0872  0.1655  0.0721
  321loPI   C3B 5135   4.849  14.628   9.789 -0.3193  0.2525  0.3051
  321loPI   C4B 5136   4.744  14.490   9.347 -0.0530 -0.0158  0.0546
  322loPI    C1 5137   6.779   9.433  11.943  0.0966 -0.0680  0.2081
  322loPI    C2 5138   7.023   9.203  12.161  0.4824  0.1983  0.0683
  322loPI    C3 5139   6.857   9.529  12.323 -0.0025 -0.1239  0.2430
  322loPI   PO4 5140   6.828   9.499  11.799 -0.0672 -0.2895  0.3627
  322loPI   GL1 5141   6.740   9.572  11.386 -0.0076  0.3444  0.2965
  322loPI   GL2 5142   7.012   9.324  11.334  0.3473  0.0823  0.1111
  322loPI   C1A 5143   6.692   9.545  10.925  0.0477  0.1440  0.2079
  322loPI   C2A 5144   6.823   9.431  10.554  0.0174 -0.2714 -0.0836
  322loPI   C3A 5145   6.737   9.392  10.057  0.2163  0.0371 -0.0176
  322loPI   C4A 5146   6.698   9.356   9.700  0.1242  0.2276  0.2701
  322loPI   C5A 5147   6.764   9.287   9.231  0.2241 -0.0564  0.0227
  322loPI   C6A 5148   6.951   9.134   8.782  0.2604  0.0791  0.3786
  322loPI   C1B 5149   7.090   9.203  10.948 -0.2665  0.2141 -0.1722
  322loPI   C2B 5150   7.135   8.993  10.554  0.0734  0.0303 -0.1182
  322loPI   C3B 5151   7.049   8.928  10.105 -0.0393 -0.0187 -0.2392
  322loPI   C4B 5152   7.089   8.867   9.686 -0.0945 -0.2770 -0.2273
  323loPI    C1 5153   5.675   0.624  11.783 -0.4429 -0.1089  0.1245
  323loPI    C2 5154   5.964   0.593  12.058 -0.0543  0.0859 -0.2502
  323loPI    C3 5155   5.611   0.754  12.155 -0.0416 -0.1510  0.2129
  323loPI   PO4 5156   5.780   0.674  11.539 -0.0850  0.2413 -0.4745
  323loPI   GL1 5157   5.804   0.571  11.149 -0.1917  0.1532 -0.0716
  323loPI   GL2 5158   6.056   0.692  10.890  0.0729 -0.0125 -0.0049
  323loPI   C1A 5159   5.610   0.496  10.709 -0.2190  0.3693 -0.1748
  323loPI   C2A 5160   5.567   0.387  10.184  0.2315 -0.0255  0.0659
  323loPI   C3A 5161   5.573   0.340   9.779  0.2030 -0.0263  0.1294
  323loPI   C4A 5162   5.546   0.436   9.280 -0.2259 -0.1823  0.2463
  323loPI   C5A 5163   5.429   0.391   8.864  0.0354  0.0658 -0.0278
  323loPI   C6A 5164   5.788   0.662   8.715  0.2317  0.0550 -0.1184
  323loPI   C1B 5165   6.103   0.541  10.529  0.7434  0.0388  0.0883
  323loPI   C2B 5166   6.024   0.541  10.115  0.1051  0.3214 -0.3876
  323loPI   C3B 5167   6.010   0.472   9.621  0.5224  0.0390  0.0851
  323loPI   C4B 5168   6.022   0.532   9.145  0.1398  0.4259 -0.1319
  324loPI    C1 5169   1.408  15.886  11.478  0.0373 -0.1251  0.0325
  324loPI    C2 5170   1.608  16.220  11.568 -0.1702  0.0034  0.0212
  324loPI    C3 5171   1.469  15.985  11.861 -0.2100  0.0395  0.0314
  324loPI   PO4 5172   1.176  15.978  11.281 -0.0587  0.1500 -0.1649
  324loPI   GL1 5173   0.987  16.171  10.925 -0.0532 -0.0059  0.3394
  324loPI   GL2 5174   1.128  16.273  10.745  0.1030 -0.2927  0.1768
  324loPI   C1A 5175   0.879  15.840  10.637  0.2974  0.2766  0.0386
  324loPI   C2A 5176   0.978  15.819  10.227 -0.1217 -0.1408  0.1892
  324loPI   C3A 5177   0.927  15.726   9.812 -0.1017 -0.2138 -0.1450
  324loPI   C4A 5178   0.899  15.672   9.320  0.0479 -0.0429  0.1096
  324loPI   C5A 5179   0.740  15.719   8.854 -0.0196 -0.0959  0.1250
  324loPI   C6A 5180   0.747  15.656   8.453 -0.2970 -0.0443 -0.0504
  324loPI   C1B 5181   1.139  16.259  10.357  0.3888  0.0944  0.1607
  324loPI   C2B 5182   1.075  16.266   9.917 -0.1129  0.2532 -0.0351
  324loPI   C3B 5183   1.076  16.150   9.470  0.0114  0.0316  0.3475
  324loPI   C4B 5184   1.129  16.181   9.036  0.0650 -0.3567 -0.2271
  325loPI    C1 5185  11.555   1.465  11.581 -0.1254 -0.0310  0.3039
  325loPI    C2 5186  11.731   1.476  11.940 -0.0104 -0.1017  0.2503
  325loPI    C3 5187  11.496   1.167  11.842  0.2190 -0.2450  0.1443
  325loPI   PO4 5188  11.679   1.449  11.421 -0.1207  0.0731  0.0655
  325loPI   GL1 5189  11.655   1.274  11.052  0.0178  0.3106  0.0612
  325loPI   GL2 5190  11.542   0.989  10.841  0.0754 -0.4326 -0.1095
  325loPI   C1A 5191  11.933   1.180  10.647 -0.1040  0.1349  0.1695
  325loPI   C2A 5192  11.929   1.186  10.225 -0.0149  0.1748  0.3164
  325loPI   C3A 5193  11.950   1.178   9.738  0.2899 -0.0978 -0.0534
  325loPI   C4A 5194  11.894   1.172   9.333  0.1576  0.0272 -0.0678
  325loPI   C5A 5195  11.805   1.171   8.842 -0.1140  0.0403 -0.1518
  325loPI   C6A 5196  11.717   1.077   8.467  0.1480  0.0509 -0.3311
  325loPI   C1B 5197  11.469   1.083  10.510 -0.0829  0.0934 -0.0343
  325loPI   C2B 5198  11.497   1.064  10.017 -0.1086  0.4244 -0.3216
  325loPI   C3B 5199  11.437   1.034   9.644  0.0349  0.3014  0.1033
  325loPI   C4B 5200  11.413   1.067   9.220  0.0923  0.2674  0.2309
  326loPI    C1 5201   4.251  17.229  11.369 -0.0565  0.0114 -0.2999
  326loPI    C2 5202   4.189  17.479  11.676 -0.1589 -0.0679 -0.2551
  326loPI    C3 5203   3.984  17.136  11.653  0.1118 -0.2357 -0.2190
  326loPI   PO4 5204   4.145  17.338  11.018  0.3560  0.2051  0.1958
  326loPI   GL1 5205   4.025  17.223  10.661  0.2587  0.1464  0.1353
  326loPI   GL2 5206   3.692  17.314  10.574  0.1993 -0.1006  0.0068
  326loPI   C1A 5207   4.340  17.300  10.417  0.3294  0.1441  0.1508
  326loPI   C2A 5208   4.397  17.241  10.004 -0.1892 -0.1040  0.0507
  326loPI   C3A 5209   4.320  17.177   9.485 -0.3038  0.0082 -0.2418
  326loPI   C4A 5210   4.341  17.241   9.025  0.1496  0.2384  0.0918
  326loPI   C5A 5211   4.191  17.476   8.708 -0.5447 -0.1204 -0.0809
  326loPI   C6A 5212   4.368  17.777   8.363  0.1043  0.0551 -0.0349
  326loPI   C1B 5213   3.844  17.220  10.071  0.4071  0.0067  0.1984
  326loPI   C2B 5214   3.780  17.226   9.612  0.1007 -0.3298  0.1586
  326loPI   C3B 5215   3.815  17.174   9.218 -0.1397  0.2293  0.0690
  326loPI   C4B 5216   3.901  17.043   8.807 -0.3281  0.0132  0.1290
  327loPI    C1 5217  10.260   6.445  11.950  0.1955  0.2402  0.2455
  327loPI    C2 5218  10.205   6.131  12.191  0.1464  0.0274 -0.0368
  327loPI    C3 5219  10.001   6.470  12.253 -0.1959 -0.1729 -0.0416
  327loPI   PO4 5220  10.207   6.287  11.688  0.5123  0.0406 -0.0800
  327loPI   GL1 5221  10.351   6.120  11.263  0.1192 -0.0044  0.5835
  327loPI   GL2 5222  10.197   6.449  11.184  0.1084 -0.0217  0.1105
  327loPI   C1A 5223  10.344   5.972  10.810 -0.3250  0.0248 -0.0580
  327loPI   C2A 5224  10.249   5.977  10.390  0.0481  0.0012 -0.0610
  327loPI   C3A 5225  10.312   5.904   9.951 -0.0848 -0.1713  0.0403
  327loPI   C4A 5226  10.275   5.987   9.506  0.0996 -0.0392 -0.0651
  327loPI   C5A 5227  10.277   5.730   9.105  0.0462 -0.1126 -0.0548
  327loPI   C6A 5228  10.067   5.407   8.852 -0.0323  0.0376 -0.1367
  327loPI   C1B 5229  10.431   6.527  10.875  0.2567 -0.0399 -0.0275
  327loPI   C2B 5230  10.495   6.408  10.491  0.0869  0.0745  0.0904
  327loPI   C3B 5231  10.499   6.346  10.072 -0.0207 -0.0504 -0.1302
  327loPI   C4B 5232  10.464   6.464   9.694  0.2465  0.3953  0.0358
  328loPI    C1 5233   8.981  16.810  11.692 -0.1706  0.0119 -0.0925
  328loPI    C2 5234   9.278  16.793  11.959 -0.0277 -0.0642 -0.2541
  328loPI    C3 5235   8.984  17.061  12.003  0.0842  0.0370 -0.1129
  328loPI   PO4 5236   9.073  16.779  11.436 -0.2358  0.0847 -0.1941
  328loPI   GL1 5237   9.222  16.961  11.105  0.1766  0.0136  0.0776
  328loPI   GL2 5238   8.893  16.838  11.004  0.1183  0.1860 -0.0015
  328loPI   C1A 5239   9.284  16.862  10.674 -0.1467  0.2731 -0.1136
  328loPI   C2A 5240   9.246  16.831  10.214 -0.2274  0.0743 -0.0784
  328loPI   C3A 5241   9.372  16.869   9.814 -0.0487 -0.1092  0.0722
  328loPI   C4A 5242   9.278  16.798   9.454 -0.0362 -0.1156  0.1120
  328loPI   C5A 5243   9.256  16.817   9.024 -0.0896  0.0846 -0.2625
  328loPI   C6A 5244   9.200  16.709   8.580 -0.0297  0.1458  0.0369
  328loPI   C1B 5245   8.863  16.670  10.526 -0.0692  0.0990 -0.0678
  328loPI   C2B 5246   8.815  16.594  10.077 -0.0857  0.1224 -0.1464
  328loPI   C3B 5247   8.881  16.731   9.733 -0.0541 -0.3073  0.1650
  328loPI   C4B 5248   8.753  16.849   9.365  0.2641 -0.3818 -0.1511
  329loPI    C1 5249  11.732  14.507  11.521 -0.0385 -0.1195 -0.0137
  329loPI    C2 5250  12.035  14.247  11.538 -0.0053 -0.0669  0.2372
  329loPI    C3 5251  11.752  14.244  11.821 -0.1843 -0.0471  0.0608
  329loPI   PO4 5252  11.704  14.496  11.246 -0.0100  0.0373 -0.0234
  329loPI   GL1 5253  11.796  14.812  10.971  0.1104  0.1046 -0.2446
  329loPI   GL2 5254  11.647  15.087  10.850 -0.1145  0.2087  0.3439
  329loPI   C1A 5255  11.867  14.549  10.642 -0.2607  0.1136  0.0385
  329loPI   C2A 5256  11.953  14.551  10.281  0.1736  0.0708  0.0456
  329loPI   C3A 5257  11.854  14.467   9.842 -0.1090 -0.0217  0.0599
  329loPI   C4A 5258  11.817  14.548   9.482 -0.2312  0.1824 -0.2345
  329loPI   C5A 5259  11.770  14.395   9.176 -0.1406 -0.0438  0.1982
  329loPI   C6A 5260  11.581  14.028   9.030 -0.1658  0.1520  0.0507
  329loPI   C1B 5261  11.533  14.927  10.452 -0.1277  0.1338 -0.1118
  329loPI   C2B 5262  11.550  14.950   9.916  0.0738 -0.0658 -0.0423
  329loPI   C3B 5263  11.491  14.958   9.448  0.3249 -0.0924 -0.0827
  329loPI   C4B 5264  11.605  14.842   8.997 -0.3091 -0.4638  0.3142
  330loPI    C1 5265  16.244   5.512  11.600 -0.0159 -0.1180  0.1051
  330loPI    C2 5266  16.629   5.587  11.675 -0.0355  0.0895  0.0057
  330loPI    C3 5267  16.385   5.479  11.973  0.0418  0.2160  0.1161
  330loPI   PO4 5268  16.221   5.480  11.311  0.0487  0.0560 -0.0419
  330loPI   GL1 5269  15.997   5.354  11.030 -0.2893 -0.1963 -0.0310
  330loPI   GL2 5270  15.729   5.585  11.032  0.0195  0.0152  0.0682
  330loPI   C1A 5271  16.147   5.235  10.628 -0.0741  0.1575  0.0901
  330loPI   C2A 5272  16.175   5.173  10.197  0.3831 -0.2086  0.1148
  330loPI   C3A 5273  16.099   5.186   9.820  0.1291  0.1658  0.0403
  330loPI   C4A 5274  16.058   5.174   9.379 -0.3266 -0.1757 -0.0612
  330loPI   C5A 5275  16.226   5.069   9.004  0.1261 -0.0089 -0.0240
  330loPI   C6A 5276  16.282   5.065   8.661  0.1919 -0.1934  0.3801
  330loPI   C1B 5277  15.754   5.604  10.571 -0.1926 -0.0593  0.0038
  330loPI   C2B 5278  15.751   5.500  10.110 -0.0378 -0.1536 -0.0871
  330loPI   C3B 5279  15.756   5.560   9.705  0.3358 -0.2354  0.0942
  330loPI   C4B 5280  15.715   5.516   9.305 -0.1443  0.0268  0.3717
  331loPI    C1 5281   0.680  10.936  11.521 -0.0478 -0.1147  0.1217
  331loPI    C2 5282   0.838  10.648  11.749  0.3667  0.0482  0.0497
  331loPI    C3 5283   0.768  11.010  11.904 -0.1221 -0.0743  0.1311
  331loPI   PO4 5284   0.562  10.832  11.384  0.1995  0.0167 -0.0583
  331loPI   GL1 5285   0.546  10.594  11.029 -0.1879 -0.2653  0.1629
  331loPI   GL2 5286   0.334  10.849  10.920 -0.0320  0.3510 -0.0108
  331loPI   C1A 5287   0.591  10.443  10.663 -0.0053  0.1124  0.4473
  331loPI   C2A 5288   0.583  10.491  10.326  0.0024  0.1803 -0.0591
  331loPI   C3A 5289   0.620  10.529   9.928  0.1405 -0.1384  0.3742
  331loPI   C4A 5290   0.548  10.518   9.375 -0.0595  0.1479 -0.1990
  331loPI   C5A 5291   0.608  10.715   8.972  0.0503  0.1169 -0.1474
  331loPI   C6A 5292   0.868  10.585   8.570 -0.2656  0.0277  0.4841
  331loPI   C1B 5293   0.317  10.880  10.481  0.0021  0.3102  0.4572
  331loPI   C2B 5294   0.258  10.975   9.992 -0.2240 -0.3712  0.2926
  331loPI   C3B 5295   0.220  10.863   9.596  0.1660 -0.0794  0.1838
  331loPI   C4B 5296   0.270  10.917   9.231  0.1250  0.2490  0.0397
  332loPI    C1 5297  11.561  12.744  11.458 -0.0526 -0.1285  0.0808
  332loPI    C2 5298  11.442  13.032  11.709  0.2905 -0.0558  0.1659
  332loPI    C3 5299  11.650  12.719  11.847  0.3258 -0.1069  0.0000
  332loPI   PO4 5300  11.738  12.850  11.315  0.1694 -0.1106 -0.0452
  332loPI   GL1 5301  11.642  12.828  10.942  0.1178  0.0093  0.0007
  332loPI   GL2 5302  11.416  13.058  10.885 -0.0404  0.1839 -0.0410
  332loPI   C1A 5303  11.736  12.626  10.576  0.0683  0.0674 -0.1940
  332loPI   C2A 5304  11.645  12.573  10.171  0.0893 -0.3138  0.3804
  332loPI   C3A 5305  11.615  12.683   9.720 -0.2481 -0.0557  0.0706
  332loPI   C4A 5306  11.631  12.724   9.244  0.3263 -0.1991  0.1076
  332loPI   C5A 5307  11.519  13.048   8.851  0.1476  0.2054 -0.0560
  332loPI   C6A 5308  11.434  13.319   8.470 -0.2211 -0.2097  0.0166
  332loPI   C1B 5309  11.391  12.915  10.428 -0.1125 -0.2896  0.2032
  332loPI   C2B 5310  11.327  13.013   9.977  0.0832  0.2461  0.1844
  332loPI   C3B 5311  11.290  13.069   9.525 -0.1840 -0.3509  0.2675
  332loPI   C4B 5312  11.076  13.106   9.183 -0.0938  0.0026 -0.0629
  333loPI    C1 5313   1.229   9.574  11.745 -0.0831  0.3948 -0.0124
  333loPI    C2 5314   1.255   9.846  12.037 -0.1100  0.2036  0.1708
  333loPI    C3 5315   1.368   9.469  12.105  0.1986  0.2299 -0.1662
  333loPI   PO4 5316   1.060   9.677  11.582 -0.1780 -0.1943 -0.0813
  333loPI   GL1 5317   0.955   9.661  11.224  0.0896  0.2935  0.1596
  333loPI   GL2 5318   1.302   9.837  11.122  0.1070 -0.2118 -0.1210
  333loPI   C1A 5319   0.840   9.693  10.834  0.0811 -0.2377  0.4482
  333loPI   C2A 5320   0.709   9.666  10.445  0.1067  0.1764  0.1874
  333loPI   C3A 5321   0.740   9.668  10.002  0.1512 -0.1281  0.0044
  333loPI   C4A 5322   0.646   9.711   9.489 -0.0464 -0.3748 -0.2483
  333loPI   C5A 5323   0.756   9.711   9.129  0.0120  0.0652  0.1830
  333loPI   C6A 5324   0.882   9.396   8.757 -0.0749 -0.0446  0.1097
  333loPI   C1B 5325   1.324   9.829  10.671 -0.0559 -0.0643  0.0937
  333loPI   C2B 5326   1.209   9.785  10.301 -0.1971  0.0826 -0.2360
  333loPI   C3B 5327   1.209   9.771   9.904  0.0087 -0.4247  0.2819
  333loPI   C4B 5328   1.229   9.858   9.528 -0.0122  0.0613 -0.0248
  334loPI    C1 5329   6.793   2.691  11.512  0.1250  0.0874 -0.1731
  334loPI    C2 5330   6.962   2.927  11.787  0.1960  0.0396 -0.1754
  334loPI    C3 5331   6.766   2.598  11.900  0.4606 -0.1287 -0.1978
  334loPI   PO4 5332   6.802   2.866  11.326 -0.1708 -0.1329  0.1726
  334loPI   GL1 5333   6.870   2.787  10.863  0.1242  0.1794  0.1595
  334loPI   GL2 5334   6.806   3.133  10.910  0.0496  0.0370  0.2878
  334loPI   C1A 5335   6.714   2.610  10.529  0.2081 -0.1109  0.1624
  334loPI   C2A 5336   6.728   2.524  10.007 -0.1267  0.0459  0.2687
  334loPI   C3A 5337   6.648   2.398   9.552  0.1090  0.1847  0.2538
  334loPI   C4A 5338   6.692   2.291   9.195  0.1497 -0.1176 -0.2797
  334loPI   C5A 5339   6.810   2.548   8.746 -0.3742  0.0667  0.0446
  334loPI   C6A 5340   6.974   2.905   8.486  0.1952  0.1768 -0.1420
  334loPI   C1B 5341   6.902   3.064  10.467 -0.0802  0.0755 -0.1739
  334loPI   C2B 5342   6.920   3.075  10.067  0.0385 -0.0222 -0.2875
  334loPI   C3B 5343   6.910   2.931   9.657  0.0736  0.1303 -0.0377
  334loPI   C4B 5344   6.822   2.786   9.199  0.2575  0.1123 -0.1148
  335loPI    C1 5345  10.461   1.174  11.744  0.0085 -0.2124  0.1544
  335loPI    C2 5346  10.064   1.147  11.785 -0.0484  0.2799 -0.0058
  335loPI    C3 5347  10.287   1.290  12.085 -0.0072  0.1370  0.0323
  335loPI   PO4 5348  10.474   1.296  11.498  0.0197 -0.0662  0.1633
  335loPI   GL1 5349  10.307   1.318  11.075 -0.0635 -0.2431  0.3428
  335loPI   GL2 5350  10.058   1.377  11.013  0.1432 -0.0295 -0.2404
  335loPI   C1A 5351  10.378   1.017  10.837  0.1002  0.1750  0.0148
  335loPI   C2A 5352  10.293   0.896  10.382 -0.1224  0.0456  0.1119
  335loPI   C3A 5353  10.398   0.861   9.858 -0.1804 -0.0184  0.0976
  335loPI   C4A 5354  10.397   0.824   9.460  0.2166 -0.0412  0.2867
  335loPI   C5A 5355  10.558   0.747   9.035  0.0178  0.4438 -0.1684
  335loPI   C6A 5356  10.904   0.781   9.004 -0.0904 -0.1298  0.1783
  335loPI   C1B 5357   9.981   1.309  10.649  0.2600  0.2615  0.0428
  335loPI   C2B 5358  10.005   1.265  10.250 -0.2251  0.2370 -0.0254
  335loPI   C3B 5359   9.996   1.274   9.815  0.3027  0.0442  0.0605
  335loPI   C4B 5360  10.131   1.250   9.412  0.2317 -0.0503 -0.0497
  336loPI    C1 5361   5.444  16.040  11.620  0.0536 -0.0376 -0.1713
  336loPI    C2 5362   5.049  16.006  11.565  0.0644  0.1001 -0.3411
  336loPI    C3 5363   5.193  16.285  11.813  0.0354 -0.2583  0.0916
  336loPI   PO4 5364   5.561  16.088  11.423  0.1323  0.0023 -0.1377
  336loPI   GL1 5365   5.363  15.967  11.089 -0.1643 -0.4450 -0.1621
  336loPI   GL2 5366   5.277  16.184  10.834 -0.0625  0.0033  0.2699
  336loPI   C1A 5367   5.678  15.815  10.779  0.0944 -0.0735  0.3484
  336loPI   C2A 5368   5.688  15.713  10.294  0.0079 -0.0173 -0.0564
  336loPI   C3A 5369   5.626  15.647   9.885  0.1378 -0.0440 -0.2005
  336loPI   C4A 5370   5.689  15.580   9.482 -0.1180 -0.1089 -0.0961
  336loPI   C5A 5371   5.765  15.822   9.062 -0.0621 -0.0329  0.5695
  336loPI   C6A 5372   5.812  16.242   8.940  0.0645 -0.0101  0.3539
  336loPI   C1B 5373   5.293  16.077  10.414  0.2457  0.0742  0.0332
  336loPI   C2B 5374   5.205  16.045  10.013 -0.2607  0.2005  0.0884
  336loPI   C3B 5375   5.357  15.933   9.628  0.2529  0.0120 -0.0466
  336loPI   C4B 5376   5.315  16.066   9.137 -0.0508 -0.1589  0.1569
  337loPI    C1 5377   1.886  13.917  11.546  0.1654 -0.1532 -0.0209
  337loPI    C2 5378   2.061  13.641  11.776  0.0117 -0.1547  0.0961
  337loPI    C3 5379   1.860  13.943  11.944  0.1422  0.0060 -0.0322
  337loPI   PO4 5380   2.009  13.982  11.349  0.1841 -0.0478 -0.2185
  337loPI   GL1 5381   1.878  13.994  11.036 -0.0143  0.1747  0.0309
  337loPI   GL2 5382   1.827  14.185  10.884  0.2002 -0.0081  0.0352
  337loPI   C1A 5383   2.042  13.766  10.687  0.1013  0.1109  0.0875
  337loPI   C2A 5384   2.026  13.714  10.198  0.1155  0.2750 -0.0247
  337loPI   C3A 5385   1.963  13.585   9.790  0.1120  0.0118  0.0126
  337loPI   C4A 5386   2.114  13.637   9.352 -0.0583 -0.1063 -0.0673
  337loPI   C5A 5387   2.243  13.539   8.996  0.1015 -0.0076 -0.1101
  337loPI   C6A 5388   2.111  13.475   8.423 -0.0204  0.1657 -0.1177
  337loPI   C1B 5389   1.730  14.145  10.433  0.0003  0.0382  0.0650
  337loPI   C2B 5390   1.732  14.088  10.016  0.0114 -0.0097  0.0200
  337loPI   C3B 5391   1.720  14.093   9.531 -0.1408 -0.0414 -0.0611
  337loPI   C4B 5392   1.812  14.049   9.113 -0.1491 -0.0851  0.0820
  338loPI    C1 5393   1.343  13.278  11.618 -0.1052  0.0391  0.0916
  338loPI    C2 5394   1.150  13.586  11.786  0.2125  0.3299 -0.0653
  338loPI    C3 5395   1.549  13.565  11.805  0.1981 -0.0526 -0.0958
  338loPI   PO4 5396   1.271  13.345  11.356  0.4527  0.1132  0.1184
  338loPI   GL1 5397   1.210  13.560  10.932  0.1042  0.1554  0.1325
  338loPI   GL2 5398   1.575  13.568  10.845  0.1959 -0.0302  0.2398
  338loPI   C1A 5399   1.100  13.473  10.415  0.1603  0.2730  0.0846
  338loPI   C2A 5400   1.034  13.491   9.956 -0.0321  0.1194 -0.2115
  338loPI   C3A 5401   1.057  13.490   9.524 -0.3043 -0.1112 -0.3093
  338loPI   C4A 5402   1.047  13.462   9.140 -0.0475  0.1320 -0.0544
  338loPI   C5A 5403   1.147  13.506   8.734 -0.0997 -0.2818 -0.0242
  338loPI   C6A 5404   1.082  13.702   8.256  0.0776 -0.0595  0.0468
  338loPI   C1B 5405   1.571  13.669  10.376  0.1113 -0.0950 -0.0912
  338loPI   C2B 5406   1.504  13.551   9.938  0.1252 -0.1162 -0.3952
  338loPI   C3B 5407   1.561  13.611   9.495  0.1381  0.0156 -0.1913
  338loPI   C4B 5408   1.615  13.596   9.011 -0.1323 -0.4138 -0.0820
  339loPI    C1 5409  15.955  10.651  11.656  0.0502  0.0515 -0.0501
  339loPI    C2 5410  15.848  11.030  11.584 -0.0276  0.0080 -0.1663
  339loPI    C3 5411  15.950  10.918  11.954  0.2665  0.2078 -0.1833
  339loPI   PO4 5412  16.056  10.568  11.450  0.2851 -0.0120 -0.2124
  339loPI   GL1 5413  16.103  10.570  11.046  0.1297  0.0365 -0.1885
  339loPI   GL2 5414  16.111  10.888  11.000 -0.1652 -0.0415  0.1932
  339loPI   C1A 5415  16.341  10.681  10.631 -0.3055  0.0127 -0.0748
  339loPI   C2A 5416  16.277  10.563  10.203 -0.0161 -0.0629  0.2017
  339loPI   C3A 5417  16.176  10.709   9.826  0.0032  0.0227  0.2917
  339loPI   C4A 5418  16.094  10.688   9.427 -0.1641 -0.1062  0.2893
  339loPI   C5A 5419  16.267  10.860   9.112  0.1886  0.2635 -0.1160
  339loPI   C6A 5420  16.329  11.240   8.948  0.0692 -0.0008 -0.3339
  339loPI   C1B 5421  15.804  10.771  10.710 -0.0937 -0.0440 -0.0118
  339loPI   C2B 5422  15.778  10.551  10.298  0.0393  0.0631  0.0488
  339loPI   C3B 5423  15.698  10.629   9.835 -0.0593  0.2231  0.0282
  339loPI   C4B 5424  15.572  10.651   9.426 -0.2217  0.0905  0.1984
  340loPI    C1 5425   3.296   2.923  11.289 -0.1012  0.0926  0.1583
  340loPI    C2 5426   3.625   3.132  11.200 -0.0666 -0.0082  0.0469
  340loPI    C3 5427   3.607   2.924  11.541 -0.0266  0.0218  0.0674
  340loPI   PO4 5428   3.184   2.802  11.053  0.3541 -0.2205 -0.2103
  340loPI   GL1 5429   3.224   2.912  10.675 -0.0174 -0.0985  0.0105
  340loPI   GL2 5430   3.599   2.865  10.779 -0.1275 -0.0246 -0.0753
  340loPI   C1A 5431   3.028   2.767  10.372  0.1424 -0.1521  0.1654
  340loPI   C2A 5432   3.041   2.744   9.942 -0.0891  0.1537 -0.4500
  340loPI   C3A 5433   2.926   2.682   9.534 -0.0492  0.2604  0.3166
  340loPI   C4A 5434   2.995   2.731   9.097  0.1565  0.0589  0.0813
  340loPI   C5A 5435   2.914   2.748   8.638  0.2998 -0.2060 -0.2772
  340loPI   C6A 5436   2.557   2.702   8.428 -0.1311  0.2387 -0.2600
  340loPI   C1B 5437   3.555   2.813  10.346 -0.2389 -0.1486  0.0544
  340loPI   C2B 5438   3.592   2.834   9.924  0.0841 -0.4882 -0.2234
  340loPI   C3B 5439   3.468   2.788   9.495  0.2607 -0.1191 -0.0947
  340loPI   C4B 5440   3.459   2.771   9.059 -0.3994  0.2012  0.0182
  341loPI    C1 5441  11.016   4.716  12.021 -0.1286  0.0600  0.2191
  341loPI    C2 5442  10.662   4.572  12.137 -0.1012 -0.1582  0.0392
  341loPI    C3 5443  10.997   4.370  12.221 -0.0281 -0.0084  0.1116
  341loPI   PO4 5444  10.937   4.813  11.771 -0.0848 -0.1045 -0.2748
  341loPI   GL1 5445  10.861   4.734  11.358  0.2563 -0.0316  0.4067
  341loPI   GL2 5446  11.080   4.516  11.302  0.1768 -0.0655 -0.0367
  341loPI   C1A 5447  10.794   4.659  10.945 -0.2553 -0.3273  0.0418
  341loPI   C2A 5448  10.806   4.670  10.533  0.1446  0.1841 -0.0001
  341loPI   C3A 5449  10.718   4.687  10.107  0.0121  0.2114  0.0794
  341loPI   C4A 5450  10.738   4.624   9.740  0.1330  0.0174  0.2881
  341loPI   C5A 5451  10.645   4.526   9.287  0.1121  0.0262  0.1911
  341loPI   C6A 5452  10.302   4.585   9.038 -0.0457 -0.0805  0.1345
  341loPI   C1B 5453  11.183   4.359  10.871 -0.2528  0.1152  0.0640
  341loPI   C2B 5454  11.157   4.303  10.421  0.0292  0.0017 -0.0965
  341loPI   C3B 5455  11.116   4.253  10.033  0.0691  0.0188 -0.0617
  341loPI   C4B 5456  11.058   4.147   9.568  0.0012  0.1290 -0.1198
  342loPI    C1 5457  10.204   8.281  11.747 -0.0961  0.0978  0.0759
  342loPI    C2 5458  10.441   8.247  12.068 -0.0686 -0.2878  0.0196
  342loPI    C3 5459  10.052   8.159  12.096 -0.1357  0.0028  0.0261
  342loPI   PO4 5460  10.323   8.516  11.654 -0.0215  0.2488 -0.0162
  342loPI   GL1 5461  10.376   8.638  11.227 -0.0499 -0.2181 -0.0585
  342loPI   GL2 5462  10.232   8.903  11.229 -0.0466 -0.1237  0.1846
  342loPI   C1A 5463  10.272   8.605  10.754  0.1928  0.3047 -0.2706
  342loPI   C2A 5464  10.212   8.688  10.376  0.1095  0.3233  0.4414
  342loPI   C3A 5465  10.229   8.725   9.888 -0.1688  0.1113 -0.0023
  342loPI   C4A 5466  10.250   8.717   9.499 -0.2388 -0.1360 -0.0651
  342loPI   C5A 5467  10.443   8.733   9.030  0.1503 -0.1261 -0.2332
  342loPI   C6A 5468  10.909   8.833   8.950  0.1036  0.0034 -0.0419
  342loPI   C1B 5469  10.371   9.030  10.784  0.1542  0.2090 -0.0523
  342loPI   C2B 5470  10.388   9.227  10.422  0.1326  0.1305  0.2573
  342loPI   C3B 5471  10.458   9.182   9.987 -0.1638 -0.1421  0.0304
  342loPI   C4B 5472  10.494   9.138   9.668  0.1363 -0.0925 -0.2506
  343loPI    C1 5473   5.279   6.643  11.565  0.2478  0.1340 -0.1040
  343loPI    C2 5474   5.142   6.591  11.937  0.0709  0.0859 -0.1751
  343loPI    C3 5475   5.526   6.684  11.877  0.0695  0.2284  0.0265
  343loPI   PO4 5476   5.227   6.430  11.416 -0.0852 -0.0166 -0.3302
  343loPI   GL1 5477   5.291   6.470  10.957 -0.0080 -0.0071 -0.0510
  343loPI   GL2 5478   5.513   6.701  11.072  0.0458 -0.1165  0.0036
  343loPI   C1A 5479   5.343   6.405  10.577  0.0589  0.1689 -0.0121
  343loPI   C2A 5480   5.262   6.376  10.170 -0.2836  0.4797  0.0532
  343loPI   C3A 5481   5.157   6.358   9.886 -0.1395  0.2062  0.1436
  343loPI   C4A 5482   5.259   6.329   9.499 -0.2347  0.1519  0.0666
  343loPI   C5A 5483   5.315   6.306   9.130  0.0824 -0.5037 -0.0715
  343loPI   C6A 5484   5.050   6.394   8.768  0.0007  0.1723  0.2975
  343loPI   C1B 5485   5.773   6.514  10.777  0.0695  0.1346  0.2724
  343loPI   C2B 5486   5.745   6.388  10.277  0.2559 -0.1401  0.2025
  343loPI   C3B 5487   5.754   6.433   9.813  0.0658 -0.0051  0.0297
  343loPI   C4B 5488   5.822   6.406   9.344 -0.0003  0.2182 -0.4246
  344loPI    C1 5489   2.500  15.463  11.421  0.1499  0.0789 -0.0593
  344loPI    C2 5490   2.557  15.835  11.556  0.3215 -0.0035  0.0995
  344loPI    C3 5491   2.435  15.548  11.807  0.1454 -0.0454 -0.0322
  344loPI   PO4 5492   2.304  15.414  11.165 -0.1760 -0.0558  0.0202
  344loPI   GL1 5493   2.315  15.194  10.843 -0.1165  0.0493  0.1248
  344loPI   GL2 5494   2.557  15.075  10.781  0.1871  0.1740 -0.3871
  344loPI   C1A 5495   2.099  15.087  10.524 -0.1023 -0.2403 -0.2005
  344loPI   C2A 5496   2.017  15.140  10.119 -0.1504 -0.1707  0.0847
  344loPI   C3A 5497   2.065  15.008   9.756 -0.1713  0.0076  0.1665
  344loPI   C4A 5498   2.050  15.021   9.348 -0.3850  0.0286 -0.0004
  344loPI   C5A 5499   2.099  14.861   8.907  0.3412  0.0518 -0.3103
  344loPI   C6A 5500   2.021  15.167   8.542  0.0048 -0.1313 -0.2706
  344loPI   C1B 5501   2.633  15.125  10.305 -0.0612 -0.3294 -0.1934
  344loPI   C2B 5502   2.643  15.003   9.846  0.1977  0.0325  0.0646
  344loPI   C3B 5503   2.545  15.016   9.440 -0.1385 -0.1961  0.1811
  344loPI   C4B 5504   2.607  15.116   9.035  0.0118  0.1961  0.0062
  345loPI    C1 5505  16.945  13.828  11.617 -0.0881 -0.1006 -0.0097
  345loPI    C2 5506  17.328  13.825  11.733 -0.0058  0.2106 -0.2588
  345loPI    C3 5507  17.045  13.964  11.980  0.0443  0.0150 -0.0886
  345loPI   PO4 5508  17.008  13.823  11.351 -0.0247  0.0296 -0.0116
  345loPI   GL1 5509  16.718  13.816  10.995 -0.3522 -0.1535  0.0560
  345loPI   GL2 5510  16.468  14.026  10.881  0.0240 -0.1674  0.0998
  345loPI   C1A 5511  16.745  13.587  10.646  0.1060 -0.0724  0.3271
  345loPI   C2A 5512  16.667  13.560  10.201 -0.2643  0.0434  0.0351
  345loPI   C3A 5513  16.702  13.663   9.829 -0.0952  0.0447  0.2233
  345loPI   C4A 5514  16.639  13.600   9.324  0.1092 -0.0831 -0.0116
  345loPI   C5A 5515  16.689  13.560   8.960  0.0009 -0.0780  0.0370
  345loPI   C6A 5516  16.403  13.691   8.657  0.0380 -0.1428  0.2462
  345loPI   C1B 5517  16.417  13.986  10.419  0.2424  0.0538 -0.1482
  345loPI   C2B 5518  16.328  13.935   9.951 -0.1190  0.1452  0.0393
  345loPI   C3B 5519  16.351  13.941   9.515  0.2506  0.1120  0.1815
  345loPI   C4B 5520  16.357  13.982   9.079  0.0157 -0.0213  0.0649
  346loPI    C1 5521   8.011  10.991  11.743  0.1128  0.0942 -0.1396
  346loPI    C2 5522   8.273  10.769  11.537 -0.0141 -0.2767  0.0888
  346loPI    C3 5523   8.175  10.667  11.911 -0.2448  0.0421  0.1196
  346loPI   PO4 5524   7.737  11.000  11.613 -0.0246 -0.2877 -0.1751
  346loPI   GL1 5525   7.696  11.227  11.356  0.0229 -0.1391  0.0074
  346loPI   GL2 5526   7.577  11.430  11.253 -0.1309  0.1682  0.0278
  346loPI   C1A 5527   7.746  11.057  10.931 -0.0359  0.2026  0.3036
  346loPI   C2A 5528   7.740  10.952  10.561 -0.3457 -0.0883  0.0247
  346loPI   C3A 5529   7.851  11.024  10.158 -0.0393 -0.0689  0.0360
  346loPI   C4A 5530   7.619  11.070   9.792 -0.0323  0.1646  0.1492
  346loPI   C5A 5531   7.610  10.962   9.481 -0.1699  0.1565  0.0735
  346loPI   C6A 5532   7.530  11.196   9.126  0.0303  0.0181  0.0740
  346loPI   C1B 5533   7.486  11.454  10.809  0.0077  0.1691  0.2976
  346loPI   C2B 5534   7.585  11.391  10.419 -0.0752  0.1890  0.1044
  346loPI   C3B 5535   7.427  11.442  10.021 -0.3059 -0.3429 -0.0054
  346loPI   C4B 5536   7.228  11.330   9.536 -0.0204 -0.2189  0.3053
  347loPI    C1 5537  10.675   2.684  11.911  0.1495  0.1352 -0.0170
  347loPI    C2 5538  10.622   3.064  12.024 -0.1951 -0.0465  0.4661
  347loPI    C3 5539  10.519   2.765  12.270  0.1916 -0.4578  0.1472
  347loPI   PO4 5540  10.470   2.603  11.734 -0.0382 -0.2527  0.0916
  347loPI   GL1 5541  10.458   2.620  11.283  0.2966  0.0780 -0.0417
  347loPI   GL2 5542  10.570   2.755  11.200 -0.0512 -0.0603  0.0866
  347loPI   C1A 5543  10.412   2.264  10.999 -0.0549  0.0991  0.1642
  347loPI   C2A 5544  10.356   2.263  10.559  0.0163  0.1597 -0.0287
  347loPI   C3A 5545  10.330   2.294  10.098  0.1006 -0.0051 -0.0243
  347loPI   C4A 5546  10.391   2.161   9.683  0.0023 -0.1261  0.1292
  347loPI   C5A 5547  10.390   2.221   9.278  0.2496 -0.0354  0.2123
  347loPI   C6A 5548  10.573   2.559   8.941 -0.0156 -0.2075  0.0580
  347loPI   C1B 5549  10.562   2.807  10.749 -0.0873 -0.0180 -0.0954
  347loPI   C2B 5550  10.524   2.725  10.304  0.1831 -0.1114 -0.1522
  347loPI   C3B 5551  10.469   2.660   9.827  0.2822 -0.3222  0.2501
  347loPI   C4B 5552  10.508   2.720   9.449  0.2847 -0.0158 -0.0336
  348loPI    C1 5553   9.563  14.378  11.614 -0.1877 -0.2609 -0.2509
  348loPI    C2 5554   9.202  14.494  11.486 -0.1271  0.2023 -0.0218
  348loPI    C3 5555   9.245  14.341  11.853 -0.1217 -0.0556 -0.1283
  348loPI   PO4 5556   9.649  14.208  11.340  0.0332 -0.1184 -0.1485
  348loPI   GL1 5557   9.510  14.237  11.033  0.4034 -0.1617  0.1118
  348loPI   GL2 5558   9.331  13.913  10.871  0.2475  0.1411 -0.0797
  348loPI   C1A 5559   9.843  14.092  10.750  0.2192 -0.1392  0.2245
  348loPI   C2A 5560   9.864  14.142  10.282  0.0702  0.0622  0.0287
  348loPI   C3A 5561   9.850  14.060   9.910 -0.1674  0.1583  0.1848
  348loPI   C4A 5562   9.808  14.166   9.499 -0.0249  0.2007  0.2174
  348loPI   C5A 5563   9.878  14.097   9.005 -0.1572  0.1860  0.1800
  348loPI   C6A 5564   9.775  14.056   8.612 -0.1419  0.0392 -0.0632
  348loPI   C1B 5565   9.436  13.973  10.514 -0.0088  0.0241  0.0188
  348loPI   C2B 5566   9.445  13.864  10.097 -0.1386  0.0301 -0.0513
  348loPI   C3B 5567   9.394  14.072   9.711 -0.1035  0.0237  0.1717
  348loPI   C4B 5568   9.347  14.008   9.287  0.0302  0.2511 -0.1927
  349loPI    C1 5569   4.088  15.914  11.410 -0.2017 -0.0774  0.0183
  349loPI    C2 5570   3.977  15.576  11.592  0.0713 -0.0829  0.1810
  349loPI    C3 5571   4.234  15.824  11.772  0.1064  0.0641 -0.0672
  349loPI   PO4 5572   4.057  15.848  11.173  0.0579  0.0729  0.1442
  349loPI   GL1 5573   4.316  15.609  10.899  0.2324  0.0822 -0.1307
  349loPI   GL2 5574   4.453  15.905  10.889 -0.0623  0.1082 -0.0095
  349loPI   C1A 5575   4.238  15.419  10.479  0.1791  0.1079  0.0361
  349loPI   C2A 5576   4.251  15.380  10.092 -0.0764 -0.1081  0.0245
  349loPI   C3A 5577   4.224  15.366   9.661  0.0666  0.2012 -0.0476
  349loPI   C4A 5578   4.212  15.259   9.238  0.5084  0.0627  0.3339
  349loPI   C5A 5579   4.092  15.160   8.820 -0.0902  0.1578  0.0121
  349loPI   C6A 5580   4.190  15.257   8.374 -0.0151 -0.2155 -0.0836
  349loPI   C1B 5581   4.304  15.913  10.383 -0.4219  0.0287 -0.3529
  349loPI   C2B 5582   4.278  15.863   9.901  0.1568 -0.0020  0.4023
  349loPI   C3B 5583   4.295  15.832   9.410  0.0046 -0.0248  0.1393
  349loPI   C4B 5584   4.236  15.707   9.012 -0.1799 -0.3233  0.0648
  350loPI    C1 5585   1.744  14.988  11.628 -0.0772  0.0548 -0.1823
  350loPI    C2 5586   1.643  14.810  11.971  0.2449 -0.0920 -0.1592
  350loPI    C3 5587   1.834  15.162  11.977  0.2189 -0.0773 -0.1893
  350loPI   PO4 5588   1.732  14.814  11.427  0.0574 -0.0463 -0.3471
  350loPI   GL1 5589   1.724  14.752  11.012 -0.0604  0.7407  0.0260
  350loPI   GL2 5590   1.590  14.977  10.787 -0.1123  0.1878  0.1306
  350loPI   C1A 5591   1.890  14.609  10.601  0.0674 -0.2839  0.1186
  350loPI   C2A 5592   1.911  14.602  10.075  0.3222  0.1438  0.1163
  350loPI   C3A 5593   1.879  14.531   9.641  0.0246  0.2360 -0.0599
  350loPI   C4A 5594   1.817  14.530   9.213  0.0523  0.1799 -0.1591
  350loPI   C5A 5595   1.847  14.400   8.777 -0.2346  0.1509 -0.1396
  350loPI   C6A 5596   1.776  14.316   8.374 -0.0455  0.1079  0.1601
  350loPI   C1B 5597   1.609  14.982  10.333 -0.0744 -0.1277 -0.1768
  350loPI   C2B 5598   1.543  14.911   9.977 -0.0924  0.1118  0.1042
  350loPI   C3B 5599   1.527  14.903   9.571 -0.0362  0.2587  0.0489
  350loPI   C4B 5600   1.551  14.979   9.105 -0.1926  0.0862 -0.0656
  351loPI    C1 5601  14.330   2.848  11.543 -0.1529 -0.2231  0.0108
  351loPI    C2 5602  14.437   3.063  11.864 -0.3142  0.0130 -0.0911
  351loPI    C3 5603  14.380   2.668  11.897  0.0784 -0.0336  0.0773
  351loPI   PO4 5604  14.149   2.924  11.492 -0.0070  0.1494 -0.3089
  351loPI   GL1 5605  13.892   2.885  11.047 -0.2259  0.0019  0.0415
  351loPI   GL2 5606  13.917   2.498  10.903 -0.0638 -0.1674 -0.0961
  351loPI   C1A 5607  13.964   2.940  10.577  0.0069  0.2304  0.0438
  351loPI   C2A 5608  14.027   2.990  10.127  0.1888  0.1636 -0.1272
  351loPI   C3A 5609  13.892   2.922   9.659  0.1463 -0.2313 -0.1578
  351loPI   C4A 5610  13.961   2.834   9.248 -0.0005 -0.5789  0.2435
  351loPI   C5A 5611  14.143   2.445   9.092  0.1946 -0.0134  0.3137
  351loPI   C6A 5612  14.503   2.280   8.899 -0.0064  0.3671 -0.0291
  351loPI   C1B 5613  13.690   2.416  10.481 -0.2892  0.1772 -0.1894
  351loPI   C2B 5614  13.743   2.383   9.955  0.1036 -0.2216 -0.2383
  351loPI   C3B 5615  13.754   2.416   9.542  0.0272 -0.1643 -0.2456
  351loPI   C4B 5616  13.661   2.369   9.002  0.0012  0.0267 -0.1979
  352loPI    C1 5617  10.129   3.977  12.012  0.2818  0.0724  0.0482
  352loPI    C2 5618   9.873   3.959  12.319 -0.0183  0.2528 -0.1861
  352loPI    C3 5619  10.219   3.759  12.335  0.0320  0.3687  0.3249
  352loPI   PO4 5620   9.963   3.941  11.756  0.2254 -0.2322 -0.1121
  352loPI   GL1 5621   9.993   4.130  11.357  0.2597  0.0001 -0.0375
  352loPI   GL2 5622  10.028   3.737  11.243  0.0762  0.0978 -0.2101
  352loPI   C1A 5623   9.987   4.131  10.897  0.2224 -0.2107  0.3413
  352loPI   C2A 5624  10.081   4.204  10.499  0.0756 -0.2223 -0.0050
  352loPI   C3A 5625  10.042   4.101  10.058 -0.0605 -0.0615 -0.0613
  352loPI   C4A 5626  10.055   3.929   9.649  0.3067  0.1268 -0.3341
  352loPI   C5A 5627  10.222   3.692   9.289  0.1619  0.1638 -0.1482
  352loPI   C6A 5628  10.316   3.662   8.880  0.2271  0.4679  0.1297
  352loPI   C1B 5629   9.899   3.662  10.817  0.0224  0.0816  0.2953
  352loPI   C2B 5630   9.897   3.507  10.442  0.1549 -0.1995  0.0603
  352loPI   C3B 5631   9.927   3.593  10.096  0.1601  0.0417 -0.2084
  352loPI   C4B 5632   9.851   3.487   9.682  0.1068  0.2729 -0.0285
  353loPI    C1 5633  11.823  11.835  11.991  0.0135 -0.1636 -0.0409
  353loPI    C2 5634  12.065  11.979  12.274  0.0100 -0.1366 -0.0517
  353loPI    C3 5635  12.132  11.617  12.120  0.1216 -0.0753 -0.1485
  353loPI   PO4 5636  11.839  11.935  11.825  0.1925  0.1496  0.0659
  353loPI   GL1 5637  11.881  11.914  11.476  0.1642 -0.2850  0.0465
  353loPI   GL2 5638  12.080  12.008  11.333 -0.0037 -0.1677  0.3066
  353loPI   C1A 5639  11.765  11.798  11.041 -0.1412 -0.2263  0.1085
  353loPI   C2A 5640  11.738  11.690  10.612  0.2948  0.1456 -0.2368
  353loPI   C3A 5641  11.833  11.740  10.184 -0.0446 -0.0983  0.3858
  353loPI   C4A 5642  11.866  11.761   9.757  0.1218  0.5339  0.1832
  353loPI   C5A 5643  11.796  11.738   9.272 -0.1008  0.0014  0.1371
  353loPI   C6A 5644  11.751  11.631   8.799 -0.1097 -0.0827  0.1615
  353loPI   C1B 5645  12.286  11.899  10.867 -0.1623 -0.0044  0.0306
  353loPI   C2B 5646  12.214  11.855  10.529 -0.0129  0.1969  0.5153
  353loPI   C3B 5647  12.297  11.943  10.059  0.1786  0.0716 -0.3045
  353loPI   C4B 5648  12.349  11.816   9.734  0.1397 -0.0400  0.0306
  354loPI    C1 5649   2.677   1.214  11.496 -0.1195 -0.1328 -0.0777
  354loPI    C2 5650   2.585   1.461  11.797 -0.0819  0.0244 -0.1937
  354loPI    C3 5651   2.692   1.083  11.874 -0.2179  0.0198 -0.0198
  354loPI   PO4 5652   2.935   1.421  11.316  0.3066 -0.0760 -0.0817
  354loPI   GL1 5653   3.008   1.479  10.857  0.2277 -0.2119 -0.1683
  354loPI   GL2 5654   2.709   1.498  10.802 -0.0100 -0.1758  0.1676
  354loPI   C1A 5655   3.098   1.474  10.399 -0.0161 -0.2852 -0.0923
  354loPI   C2A 5656   2.984   1.486   9.987 -0.0371  0.0753  0.1805
  354loPI   C3A 5657   3.050   1.357   9.603 -0.2916 -0.0722  0.2269
  354loPI   C4A 5658   2.916   1.296   9.079 -0.1082 -0.0541  0.0242
  354loPI   C5A 5659   3.009   1.230   8.677  0.0382  0.2188 -0.1178
  354loPI   C6A 5660   2.694   1.196   8.308  0.5079 -0.4275  0.1692
  354loPI   C1B 5661   2.606   1.670  10.443  0.1503 -0.3600 -0.0439
  354loPI   C2B 5662   2.612   1.845  10.039 -0.2251  0.2778 -0.0144
  354loPI   C3B 5663   2.685   1.738   9.620 -0.0413  0.0283 -0.0041
  354loPI   C4B 5664   2.693   1.740   9.161 -0.1443 -0.1379  0.1900
  355loPI    C1 5665  16.984   4.681  11.653 -0.0465  0.0181  0.0419
  355loPI    C2 5666  17.188   4.927  11.894 -0.0820 -0.0011  0.0919
  355loPI    C3 5667  17.032   4.588  12.039 -0.0044 -0.0699  0.0156
  355loPI   PO4 5668  17.127   4.619  11.411 -0.0886  0.1065  0.1213
  355loPI   GL1 5669  17.097   4.843  10.973  0.2185 -0.1523  0.0667
  355loPI   GL2 5670  17.030   5.152  10.895  0.1247 -0.2703 -0.0336
  355loPI   C1A 5671  16.987   4.863  10.550  0.1913 -0.0737 -0.0423
  355loPI   C2A 5672  16.955   4.799  10.107 -0.0194 -0.0860 -0.3023
  355loPI   C3A 5673  16.930   4.808   9.638 -0.0228  0.1951 -0.0390
  355loPI   C4A 5674  16.992   4.926   9.277  0.0968 -0.1150 -0.0809
  355loPI   C5A 5675  16.778   5.114   8.876  0.1644 -0.0698  0.2880
  355loPI   C6A 5676  16.556   5.484   8.758  0.0346  0.0430  0.1290
  355loPI   C1B 5677  17.170   5.359  10.531  0.0175  0.2670 -0.4376
  355loPI   C2B 5678  17.224   5.304  10.057  0.0003  0.2733 -0.1318
  355loPI   C3B 5679  17.126   5.307   9.508  0.0400 -0.0361 -0.1000
  355loPI   C4B 5680  17.178   5.314   9.075 -0.0243 -0.0371 -0.2483
  356loPI    C1 5681  14.820   2.820  11.618 -0.0283  0.0076  0.0151
  356loPI    C2 5682  15.123   2.939  11.850 -0.0516  0.0747  0.0112
  356loPI    C3 5683  14.843   2.693  11.996 -0.0282  0.0611  0.0329
  356loPI   PO4 5684  14.988   2.693  11.404 -0.1026  0.2261  0.0958
  356loPI   GL1 5685  14.818   2.709  10.966 -0.1720  0.0005  0.0164
  356loPI   GL2 5686  14.613   2.959  11.140 -0.0003 -0.0735  0.0599
  356loPI   C1A 5687  14.764   2.634  10.494 -0.1879  0.0191  0.0991
  356loPI   C2A 5688  14.724   2.700  10.058  0.1763 -0.2196  0.0776
  356loPI   C3A 5689  14.803   2.587   9.687 -0.1237  0.0709 -0.1391
  356loPI   C4A 5690  14.704   2.634   9.309 -0.3906  0.2481 -0.1755
  356loPI   C5A 5691  14.471   2.813   9.054 -0.1966  0.0749  0.0412
  356loPI   C6A 5692  14.131   3.042   8.785 -0.0939 -0.1948 -0.5695
  356loPI   C1B 5693  14.417   3.148  10.803 -0.1060 -0.0173 -0.0452
  356loPI   C2B 5694  14.478   3.060  10.326  0.0411 -0.1544  0.0750
  356loPI   C3B 5695  14.436   3.041   9.859  0.1631  0.0169  0.2785
  356loPI   C4B 5696  14.447   3.063   9.464 -0.0535 -0.1087 -0.0055
  357loPI    C1 5697   3.383  13.934  11.775  0.0391 -0.1187 -0.2038
  357loPI    C2 5698   3.231  13.864  12.138 -0.2496  0.3090 -0.2356
  357loPI    C3 5699   3.615  13.780  12.063 -0.2741 -0.1014  0.0630
  357loPI   PO4 5700   3.267  13.725  11.627 -0.1473 -0.2551  0.0263
  357loPI   GL1 5701   3.308  13.754  11.115 -0.0282  0.2780  0.0636
  357loPI   GL2 5702   3.187  14.001  10.863 -0.2234 -0.0721  0.1268
  357loPI   C1A 5703   3.445  13.493  10.770  0.1191 -0.0577 -0.2126
  357loPI   C2A 5704   3.485  13.459  10.383 -0.1423  0.0538  0.1910
  357loPI   C3A 5705   3.375  13.424  10.010  0.1884  0.0134 -0.1532
  357loPI   C4A 5706   3.453  13.363   9.556 -0.0907  0.3652  0.2383
  357loPI   C5A 5707   3.427  13.370   9.015 -0.1452  0.0713  0.2436
  357loPI   C6A 5708   3.247  13.253   8.649  0.3604  0.0767 -0.0280
  357loPI   C1B 5709   3.146  13.852  10.372 -0.1234 -0.0805 -0.0255
  357loPI   C2B 5710   3.074  13.853   9.895 -0.2578  0.3682  0.2492
  357loPI   C3B 5711   3.024  13.775   9.504  0.0052 -0.1091  0.1011
  357loPI   C4B 5712   3.116  13.780   9.100  0.1686  0.3752 -0.1901
  358loPI    C1 5713  14.367  11.291  11.517  0.0336  0.0246  0.1340
  358loPI    C2 5714  14.096  11.419  11.782 -0.2251 -0.2465  0.0060
  358loPI    C3 5715  14.252  11.053  11.817  0.2229 -0.0486  0.1494
  358loPI   PO4 5716  14.342  11.374  11.297  0.1860 -0.0258 -0.0096
  358loPI   GL1 5717  14.222  11.618  10.924 -0.0364  0.0618 -0.1843
  358loPI   GL2 5718  14.492  11.733  10.826  0.3670 -0.0088  0.0210
  358loPI   C1A 5719  14.126  11.723  10.459  0.0274 -0.0519 -0.2563
  358loPI   C2A 5720  14.225  11.858  10.039 -0.0789  0.1358 -0.1250
  358loPI   C3A 5721  14.127  11.663   9.641 -0.1573  0.0061  0.1139
  358loPI   C4A 5722  14.177  11.685   9.227 -0.3844  0.0392 -0.0101
  358loPI   C5A 5723  14.478  11.692   8.859 -0.1872  0.2839  0.1189
  358loPI   C6A 5724  14.549  11.643   8.493 -0.0597  0.0711  0.2246
  358loPI   C1B 5725  14.659  11.937  10.474 -0.1162 -0.1966  0.0327
  358loPI   C2B 5726  14.695  11.860  10.051  0.1869  0.2162 -0.1340
  358loPI   C3B 5727  14.691  11.871   9.718 -0.1058 -0.1105  0.1953
  358loPI   C4B 5728  14.673  11.827   9.281  0.0810 -0.1669  0.2338
  359loPI    C1 5729  12.449   7.731  11.445 -0.0235 -0.1255  0.0461
  359loPI    C2 5730  12.202   7.581  11.722  0.0098  0.3006  0.3173
  359loPI    C3 5731  12.078   7.875  11.481  0.0529  0.0815  0.0213
  359loPI   PO4 5732  12.524   7.550  11.316 -0.0906  0.0227 -0.1732
  359loPI   GL1 5733  12.214   7.442  11.055 -0.1352  0.2446  0.1992
  359loPI   GL2 5734  12.284   7.694  10.902 -0.2245  0.0124  0.1250
  359loPI   C1A 5735  12.230   7.279  10.667  0.1902 -0.2087  0.3834
  359loPI   C2A 5736  12.116   7.183  10.334 -0.0954 -0.0111  0.1132
  359loPI   C3A 5737  12.133   7.142   9.890  0.2482 -0.0392 -0.0837
  359loPI   C4A 5738  12.134   7.119   9.476 -0.1244  0.1164  0.1479
  359loPI   C5A 5739  12.141   7.065   9.111 -0.1681 -0.2392  0.0365
  359loPI   C6A 5740  12.046   7.290   8.733 -0.1103  0.0984  0.3075
  359loPI   C1B 5741  12.260   7.718  10.426 -0.0322 -0.1227  0.1819
  359loPI   C2B 5742  12.317   7.673  10.023  0.0661 -0.1157  0.2077
  359loPI   C3B 5743  12.358   7.623   9.514 -0.1912 -0.0214 -0.0365
  359loPI   C4B 5744  12.289   7.529   9.047 -0.0268 -0.2975  0.3118
  360loPI    C1 5745   7.772  15.648  11.928 -0.1398 -0.1436 -0.2636
  360loPI    C2 5746   7.890  15.288  12.054  0.1302  0.0346  0.0075
  360loPI    C3 5747   7.590  15.477  12.239  0.0390 -0.0169 -0.0867
  360loPI   PO4 5748   7.723  15.618  11.581 -0.0755 -0.0277  0.0795
  360loPI   GL1 5749   7.660  15.698  11.126 -0.0989 -0.0289 -0.0291
  360loPI   GL2 5750   7.378  15.639  10.967 -0.2425 -0.1974  0.1464
  360loPI   C1A 5751   7.994  15.718  10.666 -0.3888 -0.1560  0.0147
  360loPI   C2A 5752   7.988  15.669  10.149 -0.1471  0.0735  0.2725
  360loPI   C3A 5753   8.031  15.630   9.671 -0.0281  0.2849 -0.0717
  360loPI   C4A 5754   7.962  15.699   9.172  0.0368 -0.1560  0.0794
  360loPI   C5A 5755   7.590  15.913   8.895  0.2466 -0.1298 -0.2392
  360loPI   C6A 5756   7.470  16.255   8.511 -0.0471  0.0636  0.2952
  360loPI   C1B 5757   7.561  15.559  10.501  0.2281  0.0246 -0.1122
  360loPI   C2B 5758   7.468  15.573  10.010  0.2256  0.0136 -0.1055
  360loPI   C3B 5759   7.466  15.500   9.571 -0.2869  0.3065 -0.2275
  360loPI   C4B 5760   7.464  15.444   9.122  0.2637  0.1751 -0.2735
  361loPI    C1 5761  15.876   3.159  11.572  0.0032  0.1173 -0.1004
  361loPI    C2 5762  15.565   3.190  11.822 -0.0093  0.3781 -0.1458
  361loPI    C3 5763  15.936   3.152  11.968 -0.0771 -0.1460 -0.0912
  361loPI   PO4 5764  15.759   3.054  11.313  0.1659 -0.4121 -0.0783
  361loPI   GL1 5765  15.907   2.822  10.912  0.0228  0.2924  0.4966
  361loPI   GL2 5766  16.251   2.952  10.750 -0.1730 -0.0834 -0.2245
  361loPI   C1A 5767  15.674   2.793  10.529  0.0749 -0.2714 -0.1322
  361loPI   C2A 5768  15.751   2.749   9.940  0.1181 -0.0156 -0.2876
  361loPI   C3A 5769  15.697   2.751   9.498  0.0260  0.0328  0.2359
  361loPI   C4A 5770  15.608   2.834   9.142 -0.1592 -0.1565 -0.2153
  361loPI   C5A 5771  15.807   3.120   8.813 -0.0824 -0.0828  0.3386
  361loPI   C6A 5772  15.835   3.410   8.483 -0.2709 -0.2058  0.0175
  361loPI   C1B 5773  16.104   2.940  10.267 -0.1240  0.2901  0.2500
  361loPI   C2B 5774  16.240   2.914   9.872 -0.0334  0.1096  0.0833
  361loPI   C3B 5775  16.296   2.839   9.450 -0.1657  0.0943  0.1111
  361loPI   C4B 5776  16.193   2.848   9.084 -0.1068 -0.3351  0.0231
  362loPI    C1 5777  13.409   0.883  11.626 -0.1741 -0.0741  0.1747
  362loPI    C2 5778  13.754   0.813  11.818 -0.0426 -0.0662 -0.0553
  362loPI    C3 5779  13.407   0.702  11.983  0.0637 -0.0127  0.2093
  362loPI   PO4 5780  13.469   0.896  11.429 -0.0140  0.3118  0.0648
  362loPI   GL1 5781  13.348   1.148  11.175 -0.0318 -0.0456 -0.1014
  362loPI   GL2 5782  13.267   1.354  11.254  0.0802 -0.1827 -0.1449
  362loPI   C1A 5783  13.367   1.036  10.700 -0.1205  0.0968  0.1120
  362loPI   C2A 5784  13.231   0.915  10.256  0.0671  0.1915  0.3827
  362loPI   C3A 5785  13.262   0.896   9.896 -0.2255 -0.2646  0.0907
  362loPI   C4A 5786  13.242   0.876   9.548 -0.1112  0.0430  0.0444
  362loPI   C5A 5787  13.184   0.784   9.118 -0.0944 -0.2915  0.0988
  362loPI   C6A 5788  13.130   0.450   8.820 -0.0181 -0.1096  0.1776
  362loPI   C1B 5789  13.481   1.515  10.859 -0.2268  0.1387  0.0261
  362loPI   C2B 5790  13.548   1.443  10.390 -0.1472 -0.3319  0.1721
  362loPI   C3B 5791  13.525   1.337   9.927  0.0924 -0.1124  0.0813
  362loPI   C4B 5792  13.324   1.425   9.539 -0.0978 -0.2350  0.0270
  363loPI    C1 5793   9.406   6.806  12.099 -0.0432 -0.0553 -0.0225
  363loPI    C2 5794   9.454   6.451  12.278 -0.1950 -0.0813 -0.0324
  363loPI    C3 5795   9.272   6.751  12.471  0.1426  0.0664  0.0639
  363loPI   PO4 5796   9.297   6.733  11.871  0.2039  0.1944  0.2516
  363loPI   GL1 5797   9.279   6.619  11.495 -0.0870 -0.1051 -0.2648
  363loPI   GL2 5798   9.347   6.316  11.263 -0.3204  0.1329 -0.1221
  363loPI   C1A 5799   9.212   6.661  10.939  0.0132  0.1247 -0.0606
  363loPI   C2A 5800   9.160   6.666  10.375 -0.3804  0.0577 -0.5518
  363loPI   C3A 5801   9.146   6.660   9.995 -0.2040 -0.0985  0.0077
  363loPI   C4A 5802   9.129   6.696   9.521  0.0334 -0.0064 -0.0058
  363loPI   C5A 5803   9.280   6.622   9.091 -0.1447  0.1745 -0.0494
  363loPI   C6A 5804   9.252   6.542   8.596 -0.2199 -0.1398 -0.1344
  363loPI   C1B 5805   9.467   6.209  10.812 -0.0666  0.1138  0.0045
  363loPI   C2B 5806   9.479   6.254  10.391 -0.0842 -0.0046  0.4778
  363loPI   C3B 5807   9.453   6.242   9.924  0.1674 -0.0262  0.0346
  363loPI   C4B 5808   9.437   6.191   9.448  0.1844  0.1434  0.0995
  364loPI    C1 5809  15.514   6.562  11.564 -0.1228 -0.2579  0.2382
  364loPI    C2 5810  15.354   6.877  11.376 -0.0656 -0.3705 -0.0030
  364loPI    C3 5811  15.440   6.899  11.766 -0.2471 -0.1565  0.0269
  364loPI   PO4 5812  15.638   6.474  11.380  0.1857 -0.1000 -0.1851
  364loPI   GL1 5813  15.746   6.643  11.081 -0.1955  0.0944 -0.3012
  364loPI   GL2 5814  15.887   6.823  10.894 -0.1086  0.3648 -0.2705
  364loPI   C1A 5815  15.702   6.470  10.619  0.0935 -0.0576  0.1022
  364loPI   C2A 5816  15.629   6.493  10.180 -0.0406 -0.3512 -0.1355
  364loPI   C3A 5817  15.613   6.512   9.705 -0.1931 -0.0496 -0.1724
  364loPI   C4A 5818  15.633   6.444   9.244 -0.0337  0.2688  0.1971
  364loPI   C5A 5819  15.538   6.361   8.780 -0.2946 -0.0814  0.1704
  364loPI   C6A 5820  15.445   6.070   8.546 -0.0042 -0.2386 -0.1420
  364loPI   C1B 5821  15.864   6.887  10.432  0.0682  0.0687  0.1724
  364loPI   C2B 5822  15.849   6.980  10.023 -0.2740 -0.0318  0.0068
  364loPI   C3B 5823  15.834   6.932   9.597  0.0466  0.2392  0.0823
  364loPI   C4B 5824  15.840   7.067   9.180  0.2879  0.0172  0.0436
  365loPI    C1 5825   6.899  12.521  11.863  0.0191  0.0727 -0.1024
  365loPI    C2 5826   6.881  12.789  12.159  0.0003  0.0115 -0.0481
  365loPI    C3 5827   7.180  12.524  12.147  0.0266  0.0438 -0.1095
  365loPI   PO4 5828   6.881  12.648  11.667  0.2521 -0.1415  0.1208
  365loPI   GL1 5829   7.038  12.451  11.285  0.0290 -0.1675 -0.2221
  365loPI   GL2 5830   7.323  12.477  11.183 -0.2205 -0.0536  0.2450
  365loPI   C1A 5831   6.895  12.243  10.977 -0.1217 -0.1577  0.3648
  365loPI   C2A 5832   6.787  12.231  10.561 -0.0704 -0.1397  0.3426
  365loPI   C3A 5833   6.821  12.268  10.096 -0.2892 -0.0076  0.1714
  365loPI   C4A 5834   6.777  12.197   9.730 -0.2262 -0.0755 -0.2026
  365loPI   C5A 5835   6.777  12.088   9.367  0.0669 -0.2433 -0.1682
  365loPI   C6A 5836   7.068  12.099   9.057 -0.0513  0.1170 -0.1057
  365loPI   C1B 5837   7.365  12.402  10.792 -0.1293 -0.2817 -0.2428
  365loPI   C2B 5838   7.327  12.342  10.284  0.2234  0.0487 -0.1467
  365loPI   C3B 5839   7.319  12.305   9.921  0.0435 -0.0284 -0.0595
  365loPI   C4B 5840   7.256  12.179   9.496 -0.0087 -0.1605 -0.2085
  366loPI    C1 5841   0.226   1.197  11.323  0.3203  0.0063  0.0860
  366loPI    C2 5842   0.226   1.232  11.721  0.0380  0.2677  0.0671
  366loPI    C3 5843  -0.118   1.171  11.527  0.1890  0.0270 -0.1300
  366loPI   PO4 5844   0.376   1.364  11.227 -0.0353 -0.2254 -0.0159
  366loPI   GL1 5845   0.485   1.625  10.903 -0.1838  0.0583 -0.2573
  366loPI   GL2 5846   0.629   1.433  10.639  0.1001  0.0867 -0.0567
  366loPI   C1A 5847   0.324   1.848  10.512 -0.0026 -0.3035  0.3249
  366loPI   C2A 5848   0.329   1.822   9.999  0.0203 -0.1320  0.1317
  366loPI   C3A 5849   0.331   1.742   9.530 -0.1549  0.0191  0.1098
  366loPI   C4A 5850   0.181   1.720   9.089 -0.1392  0.2937 -0.0432
  366loPI   C5A 5851  -0.218   1.820   8.900 -0.0878 -0.3503  0.0740
  366loPI   C6A 5852  -0.591   1.752   8.897  0.0002  0.0506  0.5742
  366loPI   C1B 5853   0.607   1.468  10.252  0.0046  0.1801 -0.2864
  366loPI   C2B 5854   0.643   1.431   9.770  0.2750 -0.1529 -0.1052
  366loPI   C3B 5855   0.599   1.356   9.310  0.0927 -0.1687  0.1225
  366loPI   C4B 5856   0.812   1.371   8.915  0.0012 -0.2122  0.0462
  367loPI    C1 5857  16.381   5.983  11.703  0.1038 -0.0722 -0.0895
  367loPI    C2 5858  16.532   6.345  11.780 -0.2441  0.1453 -0.3915
  367loPI    C3 5859  16.230   6.204  12.001  0.1354 -0.1305 -0.0298
  367loPI   PO4 5860  16.398   5.937  11.381 -0.0591  0.2610 -0.0129
  367loPI   GL1 5861  16.167   5.860  10.976 -0.0293  0.1721  0.1011
  367loPI   GL2 5862  16.435   5.616  10.832 -0.0566 -0.1575  0.2465
  367loPI   C1A 5863  15.925   6.039  10.783  0.1737  0.6373  0.0115
  367loPI   C2A 5864  15.961   6.154  10.344 -0.1278  0.2880 -0.0356
  367loPI   C3A 5865  15.948   6.077   9.873 -0.0265  0.0798 -0.0192
  367loPI   C4A 5866  15.971   6.070   9.410  0.0543  0.0644 -0.1890
  367loPI   C5A 5867  15.859   5.873   8.947 -0.3073  0.0338  0.0037
  367loPI   C6A 5868  16.056   5.478   8.765  0.1924 -0.1558 -0.4091
  367loPI   C1B 5869  16.207   5.666  10.455  0.0438 -0.1893  0.0295
  367loPI   C2B 5870  16.287   5.620  10.059 -0.1372 -0.1094 -0.0950
  367loPI   C3B 5871  16.287   5.632   9.670 -0.2315  0.1074  0.2745
  367loPI   C4B 5872  16.241   5.659   9.226  0.0851  0.0321  0.0475
  368loPI    C1 5873   3.843  14.214  11.641  0.0622  0.1288 -0.1499
  368loPI    C2 5874   3.761  14.584  11.768  0.0576  0.0278  0.1516
  368loPI    C3 5875   4.140  14.455  11.758  0.0591  0.0385  0.0482
  368loPI   PO4 5876   3.719  14.148  11.420 -0.0014  0.1108 -0.0601
  368loPI   GL1 5877   3.697  14.049  11.023  0.0070 -0.0704 -0.1816
  368loPI   GL2 5878   3.862  13.723  10.953  0.1465 -0.0255  0.0512
  368loPI   C1A 5879   3.654  13.987  10.580  0.0535  0.1429  0.2215
  368loPI   C2A 5880   3.529  13.881  10.091 -0.0871 -0.0691 -0.2401
  368loPI   C3A 5881   3.618  13.920   9.741 -0.1906 -0.0626  0.0423
  368loPI   C4A 5882   3.524  13.838   9.298  0.2776  0.2143 -0.1627
  368loPI   C5A 5883   3.593  13.842   8.861  0.0550  0.0496  0.3558
  368loPI   C6A 5884   3.717  13.445   8.551  0.1916  0.1522  0.1184
  368loPI   C1B 5885   4.051  13.546  10.590  0.1200 -0.1870 -0.4168
  368loPI   C2B 5886   3.930  13.531  10.160 -0.0466 -0.0559  0.0032
  368loPI   C3B 5887   3.915  13.465   9.688  0.1094 -0.0467  0.0003
  368loPI   C4B 5888   3.874  13.479   9.252  0.1528 -0.0348 -0.2678
  369loPI    C1 5889   5.349   0.959  11.541 -0.1510  0.1202 -0.0879
  369loPI    C2 5890   5.638   1.131  11.758 -0.1515  0.0975 -0.0690
  369loPI    C3 5891   5.270   1.093  11.909 -0.0592 -0.2603  0.0758
  369loPI   PO4 5892   5.444   0.891  11.276  0.0055 -0.3872  0.1369
  369loPI   GL1 5893   5.529   0.964  10.914  0.0416 -0.1484  0.0613
  369loPI   GL2 5894   5.700   1.043  10.684  0.1077  0.0604 -0.1542
  369loPI   C1A 5895   5.257   0.916  10.497  0.0209  0.2025  0.0123
  369loPI   C2A 5896   5.171   0.795  10.099 -0.0925  0.1403  0.0267
  369loPI   C3A 5897   5.177   0.696   9.738  0.2824  0.4066  0.0087
  369loPI   C4A 5898   5.132   0.879   9.402  0.0378  0.2288 -0.0811
  369loPI   C5A 5899   5.089   0.857   8.890 -0.0073  0.2779  0.1426
  369loPI   C6A 5900   5.390   1.149   8.728  0.0927  0.0747  0.2174
  369loPI   C1B 5901   5.723   0.844  10.381 -0.2822  0.0060 -0.1917
  369loPI   C2B 5902   5.734   0.849   9.910 -0.2490  0.0888 -0.0597
  369loPI   C3B 5903   5.628   0.981   9.563  0.1957  0.2832 -0.0481
  369loPI   C4B 5904   5.630   0.875   9.169 -0.4276  0.2038 -0.0184
  370loPI    C1 5905   4.741  16.323  11.270  0.0808  0.0237 -0.1956
  370loPI    C2 5906   4.563  16.030  11.475  0.0397  0.0744 -0.1583
  370loPI    C3 5907   4.717  16.344  11.668  0.1827  0.0242 -0.1892
  370loPI   PO4 5908   4.862  16.222  11.063  0.2515 -0.1059 -0.1526
  370loPI   GL1 5909   4.756  16.217  10.700  0.1367  0.2889  0.0372
  370loPI   GL2 5910   4.440  16.341  10.635 -0.0945  0.0670  0.2821
  370loPI   C1A 5911   4.830  15.969  10.297 -0.0739  0.4257 -0.0615
  370loPI   C2A 5912   4.748  15.964   9.865  0.1911 -0.2232  0.1050
  370loPI   C3A 5913   4.829  15.910   9.471  0.0940  0.0020  0.1012
  370loPI   C4A 5914   4.792  15.867   9.000 -0.0923 -0.2930  0.4709
  370loPI   C5A 5915   4.806  16.057   8.557  0.1926 -0.0435  0.0239
  370loPI   C6A 5916   4.743  15.935   8.106  0.0314 -0.0301  0.2167
  370loPI   C1B 5917   4.484  16.401  10.197 -0.0008  0.1350 -0.0638
  370loPI   C2B 5918   4.459  16.335   9.754  0.0960  0.0645  0.0020
  370loPI   C3B 5919   4.544  16.295   9.368 -0.0916 -0.0451  0.0674
  370loPI   C4B 5920   4.603  16.347   8.901  0.2853 -0.0655 -0.1854
  371loPI    C1 5921  10.617  13.167  11.511 -0.0045  0.2190 -0.0669
  371loPI    C2 5922  10.767  13.533  11.576  0.2625  0.1134 -0.0728
  371loPI    C3 5923  10.909  13.220  11.779  0.1328 -0.0093 -0.1685
  371loPI   PO4 5924  10.634  13.102  11.337  0.0430  0.4267 -0.1303
  371loPI   GL1 5925  10.427  12.838  11.117 -0.1035 -0.0341 -0.3605
  371loPI   GL2 5926  10.108  12.756  11.096 -0.0866  0.2250 -0.1414
  371loPI   C1A 5927  10.356  12.824  10.649  0.0049  0.3722 -0.1248
  371loPI   C2A 5928  10.275  12.755  10.268 -0.0742 -0.0696 -0.1861
  371loPI   C3A 5929  10.227  12.514   9.947 -0.0265 -0.0195  0.3679
  371loPI   C4A 5930  10.115  12.308   9.632 -0.4035 -0.0307  0.1002
  371loPI   C5A 5931   9.904  12.209   9.293 -0.1080  0.2177 -0.1483
  371loPI   C6A 5932   9.992  11.951   9.073 -0.1232  0.1332  0.1023
  371loPI   C1B 5933  10.132  12.281  10.806 -0.2443 -0.0493 -0.0263
  371loPI   C2B 5934  10.086  12.262  10.401 -0.2969  0.3120  0.1857
  371loPI   C3B 5935   9.816  12.223  10.030  0.1542 -0.0838  0.3287
  371loPI   C4B 5936   9.563  12.239   9.669  0.0835  0.3720  0.0866
  372loPI    C1 5937  13.626  11.985  11.457  0.3650  0.4031  0.1949
  372loPI    C2 5938  13.541  11.879  11.833 -0.0197  0.1334  0.0382
  372loPI    C3 5939  13.917  11.857  11.699  0.0777 -0.0161  0.3289
  372loPI   PO4 5940  13.506  11.861  11.299  0.1830 -0.1649 -0.0969
  372loPI   GL1 5941  13.471  11.620  10.957  0.3247 -0.2163  0.0294
  372loPI   GL2 5942  13.733  11.660  10.730  0.1369  0.3740  0.1066
  372loPI   C1A 5943  13.142  11.704  10.630  0.1763 -0.1706 -0.4284
  372loPI   C2A 5944  13.118  11.596  10.144 -0.1662  0.1732 -0.0102
  372loPI   C3A 5945  13.145  11.546   9.704 -0.0648  0.0421 -0.1455
  372loPI   C4A 5946  13.100  11.545   9.259 -0.2433  0.1480 -0.0867
  372loPI   C5A 5947  13.180  11.838   8.821 -0.1066 -0.1854 -0.6183
  372loPI   C6A 5948  13.121  11.958   8.406  0.0275 -0.1018 -0.0495
  372loPI   C1B 5949  13.645  11.703  10.306  0.2190 -0.1186  0.1687
  372loPI   C2B 5950  13.617  11.583   9.798 -0.1173 -0.0633  0.0639
  372loPI   C3B 5951  13.660  11.604   9.370  0.1593 -0.1325 -0.2550
  372loPI   C4B 5952  13.606  11.444   8.993  0.0315 -0.0825 -0.0700
  373loPI    C1 5953  12.571   1.932  11.551 -0.0571 -0.0972 -0.1293
  373loPI    C2 5954  12.764   1.781  11.868 -0.1829  0.0035 -0.0034
  373loPI    C3 5955  12.402   1.643  11.769 -0.2009  0.0648 -0.0238
  373loPI   PO4 5956  12.719   1.917  11.339 -0.2047 -0.2068 -0.0470
  373loPI   GL1 5957  12.582   1.866  10.969 -0.1385 -0.0134  0.2816
  373loPI   GL2 5958  12.549   1.592  10.965 -0.3174 -0.3771  0.0121
  373loPI   C1A 5959  12.666   1.806  10.570  0.1244 -0.3037  0.0329
  373loPI   C2A 5960  12.545   1.723  10.196 -0.3669  0.0735 -0.0955
  373loPI   C3A 5961  12.600   1.660   9.792 -0.0329 -0.0241 -0.0083
  373loPI   C4A 5962  12.506   1.748   9.381 -0.2214 -0.0788 -0.2736
  373loPI   C5A 5963  12.423   1.706   8.913 -0.0557  0.2994  0.0969
  373loPI   C6A 5964  12.620   1.572   8.541 -0.0233  0.2251  0.0082
  373loPI   C1B 5965  12.454   1.360  10.551  0.1615  0.1552  0.0173
  373loPI   C2B 5966  12.428   1.230  10.088 -0.3187 -0.0230  0.0639
  373loPI   C3B 5967  12.417   1.187   9.624  0.0097  0.4355  0.1140
  373loPI   C4B 5968  12.325   1.224   9.224  0.0713  0.3574 -0.1791
  374loPI    C1 5969   9.078   4.044  11.982  0.3368  0.0695 -0.1517
  374loPI    C2 5970   9.331   4.275  12.188  0.1974  0.1775 -0.1004
  374loPI    C3 5971   8.947   4.382  12.151  0.1406 -0.0258 -0.1102
  374loPI   PO4 5972   9.133   3.957  11.674 -0.0988  0.1096 -0.0722
  374loPI   GL1 5973   9.125   4.076  11.222 -0.1281 -0.0189  0.2220
  374loPI   GL2 5974   9.102   3.713  11.020  0.1511 -0.1188  0.2486
  374loPI   C1A 5975   8.878   4.172  10.853  0.0287  0.4398  0.1415
  374loPI   C2A 5976   8.788   4.329  10.382  0.2247  0.0870  0.1695
  374loPI   C3A 5977   8.716   4.342   9.981  0.0196 -0.1119 -0.1698
  374loPI   C4A 5978   8.741   4.226   9.579  0.3779 -0.1541  0.4630
  374loPI   C5A 5979   8.719   4.222   9.270 -0.1907 -0.1461 -0.0256
  374loPI   C6A 5980   8.646   3.991   8.947  0.0439  0.1754  0.0143
  374loPI   C1B 5981   9.027   3.786  10.527 -0.1322 -0.0155 -0.0349
  374loPI   C2B 5982   8.975   3.905  10.051 -0.0821 -0.1231 -0.0660
  374loPI   C3B 5983   9.057   3.888   9.659  0.0874  0.0317  0.1760
  374loPI   C4B 5984   9.016   3.756   9.188  0.0464 -0.1615 -0.1164
  375loPI    C1 5985  14.683   6.217  11.754 -0.1292  0.0226  0.1308
  375loPI    C2 5986  14.935   6.007  11.982 -0.0032 -0.1209 -0.1350
  375loPI    C3 5987  14.750   6.329  12.132  0.1247 -0.1754  0.1468
  375loPI   PO4 5988  14.711   6.211  11.561 -0.0206  0.3422 -0.0004
  375loPI   GL1 5989  14.841   6.152  11.164 -0.0056  0.1210  0.2258
  375loPI   GL2 5990  14.556   6.305  11.095 -0.2616  0.2762 -0.4315
  375loPI   C1A 5991  14.950   5.962  10.808 -0.2655 -0.0073 -0.2365
  375loPI   C2A 5992  15.037   5.891  10.429 -0.0531 -0.0867  0.0468
  375loPI   C3A 5993  14.942   5.904   9.955 -0.0247 -0.0487  0.1543
  375loPI   C4A 5994  15.071   5.842   9.572  0.0053 -0.0963  0.2299
  375loPI   C5A 5995  14.842   5.654   9.135  0.4269  0.1116 -0.3849
  375loPI   C6A 5996  14.979   5.508   8.665  0.0194  0.1859 -0.1399
  375loPI   C1B 5997  14.583   6.294  10.648 -0.0123 -0.1159  0.0782
  375loPI   C2B 5998  14.691   6.250  10.227 -0.1254 -0.1705  0.2361
  375loPI   C3B 5999  14.596   6.263   9.747 -0.1500  0.2122 -0.0410
  375loPI   C4B 6000  14.663   6.183   9.250  0.1368 -0.1579  0.0708
  376loPI    C1 6001   1.224  17.232  11.469  0.0936  0.1723 -0.1434
  376loPI    C2 6002   1.556  17.141  11.674 -0.1414  0.1748  0.2481
  376loPI    C3 6003   1.334  17.456  11.781 -0.1925  0.2643 -0.1058
  376loPI   PO4 6004   1.324  17.085  11.207  0.0717 -0.1588  0.1116
  376loPI   GL1 6005   1.407  17.109  10.757  0.0470  0.0754 -0.1749
  376loPI   GL2 6006   1.258  16.837  10.773  0.3130  0.0163  0.2283
  376loPI   C1A 6007   1.508  17.207  10.414  0.2372  0.1154  0.3036
  376loPI   C2A 6008   1.514  17.180  10.065 -0.1319  0.1555 -0.0682
  376loPI   C3A 6009   1.524  17.239   9.529 -0.0571  0.3170 -0.0017
  376loPI   C4A 6010   1.562  17.160   9.093 -0.0595  0.3745 -0.0684
  376loPI   C5A 6011   1.554  17.273   8.687  0.0126 -0.1688 -0.1008
  376loPI   C6A 6012   1.795  17.583   8.532  0.0476 -0.0896  0.1549
  376loPI   C1B 6013   1.340  16.751  10.354  0.3799 -0.0250  0.1563
  376loPI   C2B 6014   1.244  16.724   9.990  0.0575  0.4511  0.4671
  376loPI   C3B 6015   1.277  16.621   9.542 -0.0104 -0.2199 -0.0617
  376loPI   C4B 6016   1.414  16.634   9.178  0.1263 -0.0289 -0.1371
  377loPI    C1 6017   5.393   7.084  11.696  0.1746 -0.0834  0.0530
  377loPI    C2 6018   5.270   7.460  11.758  0.1053 -0.1100  0.0773
  377loPI    C3 6019   5.516   7.284  12.020 -0.0407 -0.1586  0.1828
  377loPI   PO4 6020   5.416   7.094  11.433 -0.1748 -0.0401 -0.0411
  377loPI   GL1 6021   5.452   7.469  11.172 -0.0330  0.0979  0.2682
  377loPI   GL2 6022   5.226   7.270  11.001 -0.1465  0.1022  0.0771
  377loPI   C1A 6023   5.668   7.354  10.803  0.0282  0.2414  0.7024
  377loPI   C2A 6024   5.589   7.375  10.397  0.1533 -0.0270 -0.0020
  377loPI   C3A 6025   5.698   7.377   9.938 -0.1495  0.1157 -0.0213
  377loPI   C4A 6026   5.591   7.344   9.524 -0.2211 -0.2435 -0.1355
  377loPI   C5A 6027   5.622   7.308   9.093 -0.0028  0.2385 -0.0575
  377loPI   C6A 6028   5.588   7.347   8.630  0.0281  0.2322  0.1931
  377loPI   C1B 6029   5.086   7.322  10.542 -0.1969 -0.1086  0.2301
  377loPI   C2B 6030   4.979   7.371  10.101  0.0290 -0.1206  0.2154
  377loPI   C3B 6031   5.051   7.306   9.708 -0.2022  0.1522 -0.0054
  377loPI   C4B 6032   5.194   7.185   9.270 -0.0783 -0.1611  0.2160
  378loPI    C1 6033  17.217  12.960  11.389 -0.2004 -0.0068 -0.0612
  378loPI    C2 6034  17.498  13.002  11.671 -0.0191 -0.1255 -0.2221
  378loPI    C3 6035  17.183  12.765  11.737 -0.1080  0.0452 -0.0225
  378loPI   PO4 6036  17.257  12.974  11.208  0.0596  0.0935 -0.0875
  378loPI   GL1 6037  17.250  13.236  10.885  0.1115  0.3615  0.1404
  378loPI   GL2 6038  17.517  13.315  10.704 -0.2154  0.1502 -0.0209
  378loPI   C1A 6039  17.106  13.206  10.388  0.0167  0.4702 -0.0313
  378loPI   C2A 6040  17.032  13.226   9.820  0.1846 -0.1227 -0.0115
  378loPI   C3A 6041  17.030  13.219   9.311  0.0118  0.1513  0.1298
  378loPI   C4A 6042  17.046  13.172   8.884  0.0701 -0.2090  0.0517
  378loPI   C5A 6043  17.201  13.323   8.511 -0.1065  0.1087  0.3167
  378loPI   C6A 6044  17.570  13.399   8.351 -0.0441 -0.2689 -0.2041
  378loPI   C1B 6045  17.579  13.278  10.313  0.0210 -0.0580  0.2569
  378loPI   C2B 6046  17.553  13.338   9.856  0.0083  0.1837 -0.0256
  378loPI   C3B 6047  17.571  13.303   9.408 -0.1336 -0.1096  0.2068
  378loPI   C4B 6048  17.586  13.313   8.925 -0.0752 -0.0279  0.2218
  379loPI    C1 6049   7.465  16.772  11.667 -0.0874  0.2743  0.0683
  379loPI    C2 6050   7.254  16.997  11.922 -0.3833 -0.0510  0.1171
  379loPI    C3 6051   7.283  16.602  11.980  0.0531 -0.0438 -0.0188
  379loPI   PO4 6052   7.350  16.865  11.444  0.1918 -0.0185 -0.1929
  379loPI   GL1 6053   7.343  16.719  11.035  0.0715  0.1897 -0.0030
  379loPI   GL2 6054   7.548  16.921  10.992  0.1375  0.1516  0.0862
  379loPI   C1A 6055   7.365  16.403  10.645  0.2287 -0.0202  0.1924
  379loPI   C2A 6056   7.262  16.427  10.242 -0.0579  0.1427  0.2447
  379loPI   C3A 6057   7.311  16.411   9.829  0.1506  0.1577 -0.2147
  379loPI   C4A 6058   7.220  16.385   9.441  0.0300 -0.4244 -0.4645
  379loPI   C5A 6059   7.206  16.287   8.966 -0.1749 -0.3465 -0.0144
  379loPI   C6A 6060   6.961  16.278   8.556 -0.0448 -0.0730  0.2540
  379loPI   C1B 6061   7.557  16.939  10.567  0.1550  0.0552 -0.1943
  379loPI   C2B 6062   7.478  16.837  10.094 -0.0671 -0.0319 -0.1037
  379loPI   C3B 6063   7.443  16.907   9.648  0.0091  0.1654 -0.3614
  379loPI   C4B 6064   7.437  16.791   9.282 -0.0724  0.0124 -0.0534
  380loPI    C1 6065  12.383   9.440  11.726  0.1162  0.0760  0.0132
  380loPI    C2 6066  12.032   9.611  11.811 -0.0429 -0.1120 -0.2485
  380loPI    C3 6067  12.169   9.314  12.040  0.0700  0.1292  0.0031
  380loPI   PO4 6068  12.326   9.315  11.489 -0.1996 -0.0577 -0.1372
  380loPI   GL1 6069  12.344   9.388  11.067 -0.0559 -0.1304  0.0228
  380loPI   GL2 6070  12.291   9.624  10.992  0.0816  0.2152 -0.1059
  380loPI   C1A 6071  11.939   9.403  10.750  0.0901 -0.1376 -0.2713
  380loPI   C2A 6072  11.956   9.391  10.263 -0.1968 -0.0704  0.2490
  380loPI   C3A 6073  11.996   9.464   9.798 -0.1294 -0.0026  0.0027
  380loPI   C4A 6074  12.073   9.446   9.311 -0.0077  0.1091 -0.3214
  380loPI   C5A 6075  12.033   9.134   8.953 -0.1680 -0.0001  0.0295
  380loPI   C6A 6076  12.233   9.001   8.680  0.2436 -0.0531  0.2943
  380loPI   C1B 6077  12.346   9.541  10.489 -0.1047 -0.1966 -0.2423
  380loPI   C2B 6078  12.457   9.486  10.075 -0.0022  0.0845 -0.0445
  380loPI   C3B 6079  12.536   9.481   9.687  0.1443 -0.0832 -0.0735
  380loPI   C4B 6080  12.540   9.683   9.267 -0.0660  0.1421  0.0900
  381loPI    C1 6081   2.236   3.563  11.590  0.0226 -0.1553  0.0293
  381loPI    C2 6082   2.117   3.194  11.687 -0.0378 -0.1932 -0.1840
  381loPI    C3 6083   2.440   3.246  11.458 -0.1848 -0.1257 -0.3794
  381loPI   PO4 6084   2.040   3.676  11.491 -0.0137 -0.1214 -0.1864
  381loPI   GL1 6085   2.010   3.960  11.105  0.0825  0.0690 -0.0125
  381loPI   GL2 6086   2.278   3.756  11.025  0.0029  0.0954 -0.0817
  381loPI   C1A 6087   2.003   4.030  10.736  0.0911 -0.1003 -0.3115
  381loPI   C2A 6088   1.955   3.914  10.330  0.0922 -0.0741  0.1070
  381loPI   C3A 6089   1.998   3.854   9.808  0.1438  0.1672 -0.1090
  381loPI   C4A 6090   1.976   3.887   9.372  0.0585 -0.0875 -0.2144
  381loPI   C5A 6091   2.065   3.821   8.987 -0.2187 -0.0971 -0.0463
  381loPI   C6A 6092   2.463   3.725   8.812  0.0044  0.3450 -0.1508
  381loPI   C1B 6093   2.243   3.618  10.609  0.2339  0.2418  0.3941
  381loPI   C2B 6094   2.278   3.588  10.082 -0.0948 -0.1328 -0.0020
  381loPI   C3B 6095   2.305   3.464   9.709 -0.2333 -0.2159 -0.4070
  381loPI   C4B 6096   2.309   3.465   9.262 -0.4503 -0.3062  0.0073
  382loPI    C1 6097  12.871  12.760  11.789 -0.0615  0.0995  0.0263
  382loPI    C2 6098  13.102  12.626  12.086 -0.0932  0.3701  0.1763
  382loPI    C3 6099  12.710  12.676  12.146 -0.1664  0.0662 -0.0284
  382loPI   PO4 6100  12.922  12.613  11.576 -0.1069 -0.1182  0.1569
  382loPI   GL1 6101  12.784  12.537  11.176 -0.1718  0.1477  0.0944
  382loPI   GL2 6102  13.054  12.568  11.109  0.0854  0.1502  0.3384
  382loPI   C1A 6103  12.673  12.867  10.751  0.0874 -0.0451 -0.0898
  382loPI   C2A 6104  12.647  12.848  10.292 -0.0111 -0.2135  0.0926
  382loPI   C3A 6105  12.736  12.906   9.904  0.0132  0.3562  0.3548
  382loPI   C4A 6106  12.691  12.824   9.410 -0.0458  0.1583  0.1279
  382loPI   C5A 6107  12.508  12.767   9.031 -0.1365  0.0942  0.1217
  382loPI   C6A 6108  12.516  12.636   8.600  0.1023  0.0832  0.1153
  382loPI   C1B 6109  12.963  12.474  10.696 -0.0535 -0.1143 -0.1781
  382loPI   C2B 6110  13.091  12.535  10.269  0.2358  0.1984  0.2759
  382loPI   C3B 6111  13.089  12.411   9.804 -0.0088 -0.2370 -0.2007
  382loPI   C4B 6112  13.019  12.462   9.313 -0.0262  0.2014  0.2756
  383loPI    C1 6113  10.914   3.775  11.637 -0.1609  0.0119  0.0661
  383loPI    C2 6114  10.999   3.822  12.025 -0.1716 -0.1024  0.0827
  383loPI    C3 6115  10.951   3.455  11.874  0.2441 -0.0815 -0.1146
  383loPI   PO4 6116  11.021   3.966  11.495  0.2584 -0.0110  0.3099
  383loPI   GL1 6117  10.988   3.919  11.155  0.2335 -0.1200 -0.0474
  383loPI   GL2 6118  11.354   3.739  11.057 -0.0751  0.0518 -0.0308
  383loPI   C1A 6119  10.962   3.684  10.723 -0.1546  0.1474  0.1396
  383loPI   C2A 6120  10.971   3.858  10.263 -0.0850  0.0217 -0.0228
  383loPI   C3A 6121  10.944   3.709   9.829 -0.1034  0.2269  0.0206
  383loPI   C4A 6122  10.840   3.606   9.467 -0.1998 -0.1211 -0.1317
  383loPI   C5A 6123  10.656   3.458   9.186  0.0446  0.1871 -0.0211
  383loPI   C6A 6124  10.382   3.169   8.968 -0.0472 -0.1225 -0.0390
  383loPI   C1B 6125  11.404   3.929  10.655  0.0884  0.1491  0.1983
  383loPI   C2B 6126  11.460   3.896  10.339 -0.2456 -0.1334  0.5382
  383loPI   C3B 6127  11.404   3.869   9.892  0.0126 -0.2681  0.0872
  383loPI   C4B 6128  11.311   3.695   9.491 -0.2018 -0.2053 -0.0012
  384loPI    C1 6129  16.581   5.171  11.468 -0.0910  0.2041 -0.1958
  384loPI    C2 6130  16.690   5.057  11.836  0.0632  0.1198 -0.2665
  384loPI    C3 6131  16.307   5.032  11.723  0.0428 -0.0153 -0.1690
  384loPI   PO4 6132  16.772   5.004  11.314 -0.0080 -0.0681  0.0077
  384loPI   GL1 6133  16.602   4.794  10.896 -0.0798  0.3951 -0.0473
  384loPI   GL2 6134  16.441   5.064  10.960  0.2616 -0.1630 -0.0796
  384loPI   C1A 6135  16.479   4.805  10.475 -0.1353  0.0971 -0.2442
  384loPI   C2A 6136  16.485   4.793  10.068 -0.1799  0.0375 -0.1199
  384loPI   C3A 6137  16.423   4.832   9.636  0.4201  0.1539  0.1553
  384loPI   C4A 6138  16.471   4.769   9.258 -0.1758 -0.0804  0.1019
  384loPI   C5A 6139  16.526   4.609   8.793  0.0381  0.1913 -0.0339
  384loPI   C6A 6140  16.748   4.703   8.457 -0.1082 -0.0070 -0.1738
  384loPI   C1B 6141  16.676   5.232  10.567 -0.0024 -0.0560 -0.0614
  384loPI   C2B 6142  16.668   5.350  10.135 -0.1141  0.1791  0.3470
  384loPI   C3B 6143  16.650   5.227   9.787 -0.2735  0.1754 -0.1722
  384loPI   C4B 6144  16.565   5.232   9.429 -0.1029 -0.0403  0.0245
  385loPI    C1 6145   3.499   6.135  11.438 -0.1663  0.0450  0.1211
  385loPI    C2 6146   3.517   5.798  11.223 -0.3571  0.1778 -0.1086
  385loPI    C3 6147   3.545   5.783  11.622 -0.2989 -0.1016 -0.1213
  385loPI   PO4 6148   3.349   6.290  11.358  0.0965 -0.3284 -0.0367
  385loPI   GL1 6149   3.042   6.410  10.996 -0.1207 -0.0221 -0.0513
  385loPI   GL2 6150   3.222   6.135  10.825  0.1660  0.1137  0.0854
  385loPI   C1A 6151   2.843   6.422  10.648  0.1802  0.2885  0.0783
  385loPI   C2A 6152   2.916   6.394  10.168 -0.3510 -0.1957 -0.1447
  385loPI   C3A 6153   2.854   6.341   9.731 -0.1521  0.2241 -0.2630
  385loPI   C4A 6154   2.918   6.443   9.305 -0.1178 -0.1629  0.0066
  385loPI   C5A 6155   2.597   6.638   9.061  0.2678  0.2746  0.1696
  385loPI   C6A 6156   2.510   6.870   8.754 -0.0654  0.2581  0.2095
  385loPI   C1B 6157   3.199   6.062  10.448  0.3518 -0.3302  0.2393
  385loPI   C2B 6158   3.259   5.918  10.008  0.3187  0.1026  0.0433
  385loPI   C3B 6159   3.252   5.892   9.541  0.0463  0.1578 -0.2679
  385loPI   C4B 6160   3.161   6.053   9.150 -0.1893 -0.0370  0.0244
  386loPI    C1 6161   8.807   5.441  11.891 -0.1555 -0.1463  0.2323
  386loPI    C2 6162   8.568   5.501  12.206  0.0631  0.3877  0.3055
  386loPI    C3 6163   8.965   5.523  12.248  0.1325 -0.3190  0.1478
  386loPI   PO4 6164   8.742   5.551  11.629  0.2043  0.1456 -0.1534
  386loPI   GL1 6165   8.582   5.708  11.207 -0.1513  0.0979  0.0359
  386loPI   GL2 6166   8.698   5.478  11.123  0.0451  0.2203  0.1264
  386loPI   C1A 6167   8.452   6.093  10.868  0.0853  0.1605  0.0071
  386loPI   C2A 6168   8.450   6.069  10.442 -0.0315  0.2825  0.2639
  386loPI   C3A 6169   8.516   6.132   9.990 -0.2888 -0.3235  0.2531
  386loPI   C4A 6170   8.505   6.059   9.558  0.3349  0.1529  0.1913
  386loPI   C5A 6171   8.441   6.037   9.104 -0.0284  0.0376 -0.3723
  386loPI   C6A 6172   8.275   5.905   8.748  0.1100 -0.0672  0.1242
  386loPI   C1B 6173   8.725   5.680  10.702  0.0889  0.3691  0.1220
  386loPI   C2B 6174   8.810   5.741  10.315  0.0287 -0.0999 -0.0224
  386loPI   C3B 6175   8.721   5.668   9.846  0.1441 -0.2071  0.0052
  386loPI   C4B 6176   8.809   5.548   9.383  0.0581 -0.1194 -0.0618
  387loPI    C1 6177  15.364   5.724  11.780 -0.1308  0.0576  0.0680
  387loPI    C2 6178  15.354   5.325  11.760  0.1471  0.0506  0.0213
  387loPI    C3 6179  15.455   5.506  12.102 -0.0350  0.0837  0.0590
  387loPI   PO4 6180  15.405   5.760  11.397 -0.1528  0.0067 -0.0932
  387loPI   GL1 6181  15.327   5.845  11.081  0.1112 -0.2132  0.2900
  387loPI   GL2 6182  15.506   6.153  11.012 -0.0883  0.1324 -0.0778
  387loPI   C1A 6183  15.289   5.521  10.800 -0.3295 -0.0004 -0.3227
  387loPI   C2A 6184  15.304   5.432  10.360 -0.0524 -0.0745  0.1467
  387loPI   C3A 6185  15.250   5.446   9.936 -0.0572  0.2202 -0.0220
  387loPI   C4A 6186  15.298   5.457   9.479  0.1859  0.3106  0.0607
  387loPI   C5A 6187  15.281   5.330   9.141  0.1004  0.1239  0.0187
  387loPI   C6A 6188  15.403   5.612   8.865 -0.1350 -0.2571 -0.2856
  387loPI   C1B 6189  15.492   6.032  10.568  0.0976 -0.1059  0.2114
  387loPI   C2B 6190  15.487   5.952  10.161  0.0571  0.1152  0.2637
  387loPI   C3B 6191  15.447   6.022   9.779 -0.0860  0.4360 -0.0592
  387loPI   C4B 6192  15.451   5.936   9.255  0.0591  0.6153  0.3407
  388loPI    C1 6193   7.559   1.967  11.636 -0.2073  0.0967  0.0824
  388loPI    C2 6194   7.814   1.660  11.665 -0.2658  0.0204 -0.1850
  388loPI    C3 6195   7.468   1.651  11.865 -0.2154 -0.0343 -0.0996
  388loPI   PO4 6196   7.539   1.935  11.320 -0.1710 -0.1577  0.0247
  388loPI   GL1 6197   7.582   2.137  10.925  0.1926  0.4199  0.1793
  388loPI   GL2 6198   7.303   2.213  10.918 -0.1549  0.2588 -0.1571
  388loPI   C1A 6199   7.576   2.308  10.519  0.0994  0.0197 -0.0043
  388loPI   C2A 6200   7.541   2.328  10.101  0.0637  0.3097 -0.1583
  388loPI   C3A 6201   7.550   2.153   9.795  0.1392  0.0321 -0.0679
  388loPI   C4A 6202   7.531   2.130   9.374  0.0901 -0.1051  0.1522
  388loPI   C5A 6203   7.549   2.391   9.009 -0.0547 -0.2154  0.0460
  388loPI   C6A 6204   7.271   2.746   8.922  0.0205  0.1177 -0.4436
  388loPI   C1B 6205   7.110   2.205  10.520 -0.1115  0.1922 -0.1677
  388loPI   C2B 6206   7.068   2.197  10.151  0.2228 -0.1369  0.2392
  388loPI   C3B 6207   7.039   2.011   9.744  0.2998 -0.0981  0.1612
  388loPI   C4B 6208   7.055   1.938   9.286  0.2613 -0.1736 -0.0285
  389loPI    C1 6209  16.330  15.846  11.413 -0.0631 -0.0226  0.0941
  389loPI    C2 6210  16.347  15.620  11.742 -0.1690  0.0979  0.1832
  389loPI    C3 6211  16.485  15.995  11.750  0.0916  0.0082  0.0104
  389loPI   PO4 6212  16.116  15.915  11.355  0.1777  0.2222  0.1603
  389loPI   GL1 6213  15.827  15.889  11.082  0.2242 -0.0858  0.2203
  389loPI   GL2 6214  16.121  15.792  10.862 -0.0558 -0.2253 -0.0577
  389loPI   C1A 6215  15.628  15.830  10.680  0.0303  0.0594  0.0505
  389loPI   C2A 6216  15.616  15.759  10.209  0.2657  0.1003 -0.0075
  389loPI   C3A 6217  15.502  15.567   9.804  0.0849  0.1058 -0.0380
  389loPI   C4A 6218  15.509  15.583   9.369 -0.2056  0.0699 -0.5809
  389loPI   C5A 6219  15.518  15.475   8.953  0.2337 -0.0037 -0.1575
  389loPI   C6A 6220  15.405  15.082   8.789 -0.3360  0.0328  0.1235
  389loPI   C1B 6221  16.065  15.798  10.404  0.1841  0.1332 -0.3360
  389loPI   C2B 6222  16.086  15.747  10.008  0.3416 -0.0196  0.0697
  389loPI   C3B 6223  16.113  15.708   9.593 -0.0300 -0.2949  0.1884
  389loPI   C4B 6224  15.960  15.659   9.179 -0.1032  0.2811  0.1123
  390loPI    C1 6225  13.898   0.522  11.441  0.1031 -0.0836  0.0226
  390loPI    C2 6226  13.572   0.423  11.231 -0.0129  0.1311  0.0984
  390loPI    C3 6227  13.574   0.379  11.628  0.0828  0.0477  0.0888
  390loPI   PO4 6228  13.944   0.798  11.372 -0.0617 -0.0815  0.1125
  390loPI   GL1 6229  13.848   1.108  11.060  0.2400 -0.0383 -0.1355
  390loPI   GL2 6230  13.717   0.820  10.961  0.0198  0.0678 -0.1222
  390loPI   C1A 6231  13.830   1.153  10.602 -0.0569  0.3763  0.1464
  390loPI   C2A 6232  13.716   0.975  10.209  0.2232 -0.0353  0.0051
  390loPI   C3A 6233  13.760   0.967   9.700  0.5903 -0.0048 -0.0235
  390loPI   C4A 6234  13.633   1.037   9.353 -0.1118  0.0612 -0.0823
  390loPI   C5A 6235  13.368   1.239   8.968  0.2765 -0.0523 -0.0501
  390loPI   C6A 6236  12.920   1.235   8.865 -0.0635 -0.2667 -0.0379
  390loPI   C1B 6237  13.623   0.545  10.611  0.2230 -0.1730  0.0296
  390loPI   C2B 6238  13.569   0.500  10.156 -0.3280  0.1284 -0.0755
  390loPI   C3B 6239  13.552   0.536   9.664  0.0753 -0.0466 -0.0077
  390loPI   C4B 6240  13.545   0.488   9.229  0.3630  0.1534  0.1852
  391loPI    C1 6241   2.660   2.317  11.611 -0.0573  0.0691  0.1015
  391loPI    C2 6242   2.587   1.980  11.814 -0.2603  0.0651  0.0244
  391loPI    C3 6243   2.795   2.276  11.985 -0.1187 -0.0809  0.1081
  391loPI   PO4 6244   2.487   2.280  11.293  0.2425 -0.0531  0.3330
  391loPI   GL1 6245   2.256   2.400  10.973 -0.3728 -0.0090 -0.1392
  391loPI   GL2 6246   2.188   2.743  11.224  0.3729  0.1058 -0.0702
  391loPI   C1A 6247   1.993   2.557  10.570 -0.2624  0.3232 -0.2634
  391loPI   C2A 6248   1.967   2.578  10.139  0.1390  0.0539  0.2950
  391loPI   C3A 6249   1.986   2.534   9.702  0.0926  0.2652 -0.4331
  391loPI   C4A 6250   1.943   2.486   9.226  0.0357  0.1310 -0.1355
  391loPI   C5A 6251   1.826   2.439   8.764  0.1539 -0.0383 -0.0663
  391loPI   C6A 6252   1.654   2.401   8.381  0.1426  0.2099 -0.1045
  391loPI   C1B 6253   2.141   2.906  10.847  0.3116 -0.0022  0.0213
  391loPI   C2B 6254   2.144   3.064  10.451 -0.0758  0.0367 -0.0662
  391loPI   C3B 6255   2.123   3.099  10.046 -0.1151  0.0074  0.0525
  391loPI   C4B 6256   2.175   2.958   9.576 -0.2328 -0.0047 -0.0859
  392loPI    C1 6257   6.305  10.274  11.751  0.1011 -0.0167 -0.0169
  392loPI    C2 6258   6.171  10.343  12.121  0.0288  0.2207 -0.0854
  392loPI    C3 6259   6.562  10.294  12.056 -0.0023 -0.3550  0.0976
  392loPI   PO4 6260   6.178  10.477  11.610  0.0484  0.1614 -0.1812
  392loPI   GL1 6261   5.865  10.456  11.153  0.0755  0.0327 -0.2150
  392loPI   GL2 6262   6.159  10.367  11.102  0.0238  0.0683  0.1108
  392loPI   C1A 6263   5.992  10.243  10.679 -0.2485 -0.2100 -0.2635
  392loPI   C2A 6264   6.096  10.303  10.262  0.0532 -0.1275  0.2359
  392loPI   C3A 6265   6.102  10.286   9.786 -0.3382  0.1631 -0.0358
  392loPI   C4A 6266   6.332  10.173   9.456 -0.0598 -0.0137  0.0552
  392loPI   C5A 6267   6.655   9.977   9.343  0.0088 -0.1345 -0.3462
  392loPI   C6A 6268   7.076  10.094   9.421  0.1506  0.0878  0.3125
  392loPI   C1B 6269   6.303   9.924  10.950 -0.1627  0.0784  0.2919
  392loPI   C2B 6270   6.414   9.853  10.577 -0.0132 -0.0141  0.0410
  392loPI   C3B 6271   6.415   9.752  10.204 -0.3703 -0.1400  0.1176
  392loPI   C4B 6272   6.358   9.761   9.727 -0.0258 -0.0612 -0.1107
  393loPI    C1 6273  15.777   1.557  11.676 -0.0825  0.1967  0.0839
  393loPI    C2 6274  15.483   1.705  11.904 -0.1399  0.0897  0.0802
  393loPI    C3 6275  15.556   1.312  11.902 -0.0246  0.1108  0.0480
  393loPI   PO4 6276  15.808   1.589  11.499  0.0049 -0.0749  0.4225
  393loPI   GL1 6277  16.048   1.699  11.145  0.0094  0.0408  0.0936
  393loPI   GL2 6278  16.210   1.416  11.225  0.2255  0.0317  0.2582
  393loPI   C1A 6279  16.198   1.653  10.756  0.0599 -0.2989  0.0381
  393loPI   C2A 6280  16.243   1.647  10.311  0.0535 -0.3667  0.4179
  393loPI   C3A 6281  16.272   1.591   9.866 -0.3163 -0.4870  0.0904
  393loPI   C4A 6282  16.192   1.520   9.439 -0.0370 -0.0982  0.0310
  393loPI   C5A 6283  16.160   1.321   9.107 -0.2219 -0.0625 -0.2756
  393loPI   C6A 6284  16.147   1.151   8.648 -0.1007  0.2025 -0.1675
  393loPI   C1B 6285  16.093   1.140  10.825 -0.1716  0.0260 -0.0759
  393loPI   C2B 6286  16.050   1.093  10.450 -0.1238  0.1604  0.0209
  393loPI   C3B 6287  16.025   1.086  10.035  0.0560 -0.0181 -0.1996
  393loPI   C4B 6288  15.984   1.095   9.574 -0.2079  0.0300  0.3664
  394loPI    C1 6289   6.268  14.292  11.508  0.0809  0.0486  0.1345
  394loPI    C2 6290   6.327  14.037  11.811 -0.3651  0.0028  0.1892
  394loPI    C3 6291   6.169  14.398  11.880 -0.0614  0.1640  0.0646
  394loPI   PO4 6292   6.457  14.239  11.338  0.2167  0.1080 -0.0510
  394loPI   GL1 6293   6.463  14.108  10.980  0.1641  0.3187  0.3425
  394loPI   GL2 6294   6.684  14.410  10.921  0.0868  0.0022 -0.1160
  394loPI   C1A 6295   6.616  14.008  10.616 -0.1656  0.3461  0.2727
  394loPI   C2A 6296   6.591  13.922  10.253  0.1022 -0.0268 -0.4312
  394loPI   C3A 6297   6.490  14.028   9.824  0.0846  0.1142 -0.2468
  394loPI   C4A 6298   6.436  13.880   9.374  0.0500  0.2153  0.1488
  394loPI   C5A 6299   6.401  13.808   8.942 -0.0573 -0.0281 -0.3186
  394loPI   C6A 6300   6.069  14.016   8.547 -0.0204  0.0543  0.1131
  394loPI   C1B 6301   6.720  14.507  10.562 -0.3102  0.0958 -0.1309
  394loPI   C2B 6302   6.740  14.528  10.105 -0.1456 -0.1783  0.0074
  394loPI   C3B 6303   6.608  14.489   9.612  0.1056 -0.0255  0.0170
  394loPI   C4B 6304   6.626  14.286   9.189 -0.2828 -0.1751 -0.0230
  395loPI    C1 6305   8.341  13.772  11.566 -0.1934 -0.2009  0.0345
  395loPI    C2 6306   8.633  13.651  11.811 -0.0900  0.2602  0.1493
  395loPI    C3 6307   8.257  13.673  11.945 -0.1456 -0.1137  0.0682
  395loPI   PO4 6308   8.449  13.761  11.359 -0.0280  0.1361 -0.0266
  395loPI   GL1 6309   8.442  13.942  11.006 -0.0011  0.1481 -0.1185
  395loPI   GL2 6310   8.192  14.151  10.875 -0.0182  0.0815  0.1387
  395loPI   C1A 6311   8.377  13.802  10.550  0.2633 -0.2953  0.2173
  395loPI   C2A 6312   8.409  13.786  10.050 -0.0793 -0.1661 -0.0675
  395loPI   C3A 6313   8.419  13.763   9.575  0.0343  0.0338  0.0592
  395loPI   C4A 6314   8.416  13.712   9.141  0.0283  0.4252  0.1081
  395loPI   C5A 6315   8.209  13.619   8.840  0.2340  0.0788 -0.0242
  395loPI   C6A 6316   7.901  13.553   8.506 -0.1287 -0.2471  0.0986
  395loPI   C1B 6317   8.031  14.309  10.597 -0.1225  0.1350 -0.0686
  395loPI   C2B 6318   7.973  14.288  10.097 -0.0589 -0.2425 -0.0636
  395loPI   C3B 6319   8.033  14.166   9.656 -0.0025 -0.2787 -0.0244
  395loPI   C4B 6320   8.131  14.166   9.250 -0.1149 -0.2030 -0.0266
  396loPI    C1 6321  16.866   6.000  11.625 -0.1129  0.0461 -0.0754
  396loPI    C2 6322  17.096   6.315  11.715 -0.0085 -0.0254 -0.0895
  396loPI    C3 6323  17.165   5.961  11.888 -0.0576 -0.0667 -0.1540
  396loPI   PO4 6324  16.961   5.995  11.356 -0.4174 -0.1207  0.0589
  396loPI   GL1 6325  16.774   5.980  10.938 -0.0023 -0.0783 -0.0966
  396loPI   GL2 6326  16.582   6.145  10.780  0.3034  0.0690 -0.0585
  396loPI   C1A 6327  16.794   5.786  10.488  0.2431 -0.2118 -0.3194
  396loPI   C2A 6328  16.868   5.810  10.129  0.3417 -0.0405 -0.0723
  396loPI   C3A 6329  16.806   5.661   9.687 -0.0684  0.1197 -0.0574
  396loPI   C4A 6330  16.781   5.649   9.215 -0.0366 -0.0538  0.1278
  396loPI   C5A 6331  16.921   5.766   8.894  0.0504 -0.0870  0.2331
  396loPI   C6A 6332  16.874   6.198   8.782 -0.2043  0.0452 -0.1137
  396loPI   C1B 6333  16.541   6.147  10.315  0.0361 -0.1580  0.1371
  396loPI   C2B 6334  16.470   6.062   9.858  0.1407 -0.2320 -0.0407
  396loPI   C3B 6335  16.518   6.092   9.374  0.0652  0.1706 -0.4863
  396loPI   C4B 6336  16.374   5.997   8.909  0.2590 -0.4326  0.0433
  397loPI    C1 6337  13.374   4.871  11.772  0.0671 -0.0608  0.0785
  397loPI    C2 6338  13.482   4.575  12.019 -0.0138 -0.1074  0.0583
  397loPI    C3 6339  13.593   4.951  12.097  0.0531 -0.1370  0.1069
  397loPI   PO4 6340  13.382   4.787  11.543  0.1863  0.2367 -0.1910
  397loPI   GL1 6341  13.377   4.877  11.155 -0.0365  0.1760 -0.1466
  397loPI   GL2 6342  13.303   5.024  10.982 -0.1661  0.0588  0.0236
  397loPI   C1A 6343  13.716   4.776  10.839  0.0882  0.0295 -0.0333
  397loPI   C2A 6344  13.678   4.712  10.356 -0.3944  0.1777  0.4918
  397loPI   C3A 6345  13.671   4.706  10.011  0.3732  0.0271  0.2311
  397loPI   C4A 6346  13.552   4.640   9.589  0.0644  0.2070 -0.1213
  397loPI   C5A 6347  13.336   4.531   9.267  0.0085 -0.1561 -0.2118
  397loPI   C6A 6348  13.242   4.518   8.926 -0.2282 -0.0256  0.2080
  397loPI   C1B 6349  13.357   5.043  10.588 -0.2130  0.1027 -0.2073
  397loPI   C2B 6350  13.241   5.234  10.311 -0.0441 -0.0434  0.1976
  397loPI   C3B 6351  13.279   5.113   9.886  0.0347  0.1371  0.1079
  397loPI   C4B 6352  13.273   5.140   9.462 -0.1276  0.2797 -0.0243
  398loPI    C1 6353   7.393  15.964  11.526  0.2653 -0.1645  0.1173
  398loPI    C2 6354   7.230  16.083  11.872 -0.0205  0.0287 -0.0786
  398loPI    C3 6355   7.587  16.225  11.760  0.0587 -0.0103  0.1196
  398loPI   PO4 6356   7.216  15.870  11.355 -0.3371 -0.2825 -0.1948
  398loPI   GL1 6357   7.082  16.068  11.063 -0.0136  0.1849 -0.0428
  398loPI   GL2 6358   6.885  16.332  11.001 -0.1938  0.1157 -0.0036
  398loPI   C1A 6359   7.123  15.948  10.616  0.0806 -0.0195 -0.0520
  398loPI   C2A 6360   7.152  15.924  10.139 -0.0622  0.0320 -0.0307
  398loPI   C3A 6361   7.155  15.959   9.768 -0.0629 -0.1091  0.0420
  398loPI   C4A 6362   7.160  15.892   9.340  0.1105  0.2348 -0.1129
  398loPI   C5A 6363   7.087  15.818   8.863 -0.1592 -0.0678  0.0060
  398loPI   C6A 6364   7.429  15.619   8.523 -0.0110 -0.0641  0.2709
  398loPI   C1B 6365   6.790  16.368  10.577  0.1220 -0.0269 -0.4039
  398loPI   C2B 6366   6.829  16.279  10.174 -0.0894 -0.3521 -0.1960
  398loPI   C3B 6367   6.823  16.303   9.702  0.1965 -0.0197  0.2328
  398loPI   C4B 6368   6.760  16.206   9.182  0.2111  0.2174 -0.0235
  399loPI    C1 6369   7.657   0.114  11.371 -0.1392  0.2536  0.1469
  399loPI    C2 6370   7.406  -0.149  11.536 -0.0391  0.1219  0.0908
  399loPI    C3 6371   7.330  -0.002  11.172 -0.0254  0.0680  0.0660
  399loPI   PO4 6372   7.888   0.006  11.368  0.0323  0.0779  0.1315
  399loPI   GL1 6373   8.088   0.056  10.995  0.2650  0.0624 -0.1678
  399loPI   GL2 6374   7.720  -0.110  10.845  0.1281  0.0734  0.1009
  399loPI   C1A 6375   8.172  -0.042  10.573 -0.0810  0.1880  0.0530
  399loPI   C2A 6376   8.147   0.100  10.124  0.3748  0.3733  0.0356
  399loPI   C3A 6377   8.279   0.049   9.717 -0.0468 -0.0275  0.1083
  399loPI   C4A 6378   8.103   0.088   9.369 -0.3404 -0.0359 -0.3341
  399loPI   C5A 6379   7.940   0.110   8.975  0.0418 -0.1017  0.0125
  399loPI   C6A 6380   7.663  -0.107   8.840 -0.1380  0.0679  0.0188
  399loPI   C1B 6381   7.698   0.007  10.459  0.0224  0.2444  0.3516
  399loPI   C2B 6382   7.615  -0.160  10.101 -0.0360 -0.1787  0.1229
  399loPI   C3B 6383   7.658  -0.111   9.672  0.1693  0.0429  0.0265
  399loPI   C4B 6384   7.654  -0.281   9.294  0.0290  0.0089  0.2294
  400loPI    C1 6385  10.654  15.359  11.548 -0.2407 -0.0377 -0.0962
  400loPI    C2 6386  10.549  15.553  11.882  0.0258 -0.1231  0.0397
  400loPI    C3 6387  10.523  15.154  11.866 -0.3555 -0.0940 -0.1790
  400loPI   PO4 6388  10.565  15.535  11.328 -0.0202 -0.1215 -0.1381
  400loPI   GL1 6389  10.543  15.600  10.897  0.2232  0.1910  0.1331
  400loPI   GL2 6390  10.788  15.653  10.895  0.0654 -0.0992  0.3491
  400loPI   C1A 6391  10.421  15.581  10.543 -0.0423  0.0642  0.0467
  400loPI   C2A 6392  10.340  15.632  10.109 -0.3151  0.0549  0.0572
  400loPI   C3A 6393  10.389  15.656   9.654 -0.2265 -0.5262 -0.0844
  400loPI   C4A 6394  10.157  15.717   9.311  0.0877  0.1303  0.0920
  400loPI   C5A 6395  10.043  15.811   8.858 -0.1317  0.1979  0.1682
  400loPI   C6A 6396   9.872  16.058   8.569  0.2657 -0.4758 -0.2015
  400loPI   C1B 6397  10.913  15.613  10.463  0.4164 -0.2302  0.0204
  400loPI   C2B 6398  10.863  15.689  10.013  0.0661 -0.0439 -0.0904
  400loPI   C3B 6399  10.889  15.697   9.637 -0.1210  0.4824  0.1328
  400loPI   C4B 6400  10.740  15.751   9.265  0.2532 -0.0360  0.2219
  401loPI    C1 6401   0.359  13.700  11.347  0.0168 -0.1547 -0.0151
  401loPI    C2 6402   0.302  13.449  11.653  0.2298 -0.3187 -0.1071
  401loPI    C3 6403   0.604  13.710  11.663  0.1027 -0.1712 -0.0808
  401loPI   PO4 6404   0.286  13.637  11.059 -0.1495  0.1965  0.3108
  401loPI   GL1 6405   0.044  13.779  10.834 -0.0793  0.1049 -0.0074
  401loPI   GL2 6406  -0.271  13.734  10.901 -0.0849  0.0406  0.1209
  401loPI   C1A 6407   0.231  13.776  10.411  0.3450  0.3362 -0.1775
  401loPI   C2A 6408   0.171  13.821  10.070 -0.4335 -0.1916 -0.0973
  401loPI   C3A 6409   0.193  13.787   9.615 -0.1534  0.3820  0.1218
  401loPI   C4A 6410   0.241  13.772   9.210  0.0831 -0.0288 -0.2289
  401loPI   C5A 6411   0.051  13.820   8.777 -0.1304 -0.1362 -0.1251
  401loPI   C6A 6412  -0.123  13.837   8.428  0.0805 -0.2872 -0.0822
  401loPI   C1B 6413  -0.267  13.696  10.430 -0.0784 -0.2962 -0.1418
  401loPI   C2B 6414  -0.286  13.710  10.025  0.1756  0.3029 -0.1593
  401loPI   C3B 6415  -0.319  13.703   9.592 -0.1366  0.0613 -0.1463
  401loPI   C4B 6416  -0.252  13.629   9.140 -0.1059 -0.1146 -0.1405
  402loPI    C1 6417  10.252   7.798  11.872  0.1464  0.0323  0.0183
  402loPI    C2 6418  10.488   7.513  12.022  0.1755  0.1902  0.2800
  402loPI    C3 6419  10.340   7.796  12.262 -0.1445  0.1905  0.0877
  402loPI   PO4 6420  10.287   7.818  11.637 -0.0146  0.2179 -0.1120
  402loPI   GL1 6421  10.151   7.693  11.318  0.0606  0.3191  0.0973
  402loPI   GL2 6422  10.388   7.810  11.078 -0.1682  0.0223  0.0345
  402loPI   C1A 6423   9.867   7.722  10.947 -0.0097 -0.1128 -0.2521
  402loPI   C2A 6424   9.932   7.698  10.546 -0.0867  0.1022  0.2289
  402loPI   C3A 6425   9.944   7.704  10.145  0.0397 -0.2959 -0.5169
  402loPI   C4A 6426   9.920   7.701   9.731  0.1280 -0.1478 -0.0690
  402loPI   C5A 6427  10.109   7.775   9.285 -0.0577 -0.1596 -0.0590
  402loPI   C6A 6428  10.216   7.825   8.934 -0.1351  0.2222  0.1862
  402loPI   C1B 6429  10.436   7.821  10.579  0.0349  0.1548  0.1217
  402loPI   C2B 6430  10.404   7.776  10.188 -0.2952 -0.1584 -0.1900
  402loPI   C3B 6431  10.416   7.816   9.719  0.1700  0.0709 -0.0889
  402loPI   C4B 6432  10.611   7.840   9.294 -0.0040 -0.0507 -0.0083
  403loPI    C1 6433   5.264   9.985  11.843 -0.0584  0.1570  0.0836
  403loPI    C2 6434   5.319   9.618  11.990 -0.1413  0.0538 -0.1377
  403loPI    C3 6435   5.411   9.938  12.212  0.1272 -0.1006 -0.0204
  403loPI   PO4 6436   5.384  10.000  11.649 -0.3825  0.1944  0.0989
  403loPI   GL1 6437   5.481   9.818  11.333  0.0418  0.0778  0.0386
  403loPI   GL2 6438   5.097  10.016  11.227 -0.0096  0.0230 -0.0620
  403loPI   C1A 6439   5.820   9.705  11.037 -0.0313 -0.0246 -0.1414
  403loPI   C2A 6440   5.839   9.777  10.659 -0.0074 -0.1737 -0.1859
  403loPI   C3A 6441   5.940   9.817  10.230  0.2265 -0.1067 -0.2432
  403loPI   C4A 6442   5.890   9.701   9.818 -0.0173  0.0204  0.1205
  403loPI   C5A 6443   5.982   9.673   9.391 -0.2760 -0.1891  0.1942
  403loPI   C6A 6444   6.331   9.622   9.079  0.0305 -0.0671  0.3820
  403loPI   C1B 6445   5.053  10.116  10.832  0.0342 -0.2628  0.0526
  403loPI   C2B 6446   5.075  10.101  10.385 -0.0526  0.2542  0.0662
  403loPI   C3B 6447   5.110  10.091   9.914 -0.2262  0.1534  0.0184
  403loPI   C4B 6448   5.144  10.038   9.431  0.1412  0.0047  0.2400
  404loPI    C1 6449   5.191   8.209  11.954  0.1335  0.0367 -0.0025
  404loPI    C2 6450   5.004   8.547  12.059 -0.2099 -0.1048 -0.1451
  404loPI    C3 6451   4.963   8.217  12.282 -0.0018 -0.0970 -0.0926
  404loPI   PO4 6452   5.125   8.249  11.706  0.0962  0.0028  0.0970
  404loPI   GL1 6453   5.183   8.334  11.219 -0.0199 -0.3165  0.0645
  404loPI   GL2 6454   4.973   8.576  11.093 -0.1238  0.0517 -0.1282
  404loPI   C1A 6455   5.343   8.344  10.821  0.0992  0.3096 -0.0438
  404loPI   C2A 6456   5.353   8.322  10.424 -0.2090  0.0626 -0.0716
  404loPI   C3A 6457   5.406   8.281   9.993  0.1310 -0.1847 -0.2481
  404loPI   C4A 6458   5.378   8.271   9.575  0.1569  0.1723 -0.1852
  404loPI   C5A 6459   5.525   8.198   9.157 -0.2834 -0.4342  0.0939
  404loPI   C6A 6460   5.583   7.846   8.791 -0.2030 -0.1463  0.2359
  404loPI   C1B 6461   4.980   8.606  10.624  0.3963 -0.1010 -0.0751
  404loPI   C2B 6462   5.063   8.736  10.233  0.3062  0.2989  0.0691
  404loPI   C3B 6463   5.037   8.738   9.773 -0.3151 -0.1552 -0.1808
  404loPI   C4B 6464   5.118   8.635   9.360  0.0258 -0.1953 -0.0995
  405loPI    C1 6465  16.853   2.735  11.738  0.0539  0.2863  0.0878
  405loPI    C2 6466  16.880   2.336  11.717 -0.0195  0.2882 -0.0570
  405loPI    C3 6467  17.124   2.541  11.959  0.0440  0.1588 -0.0106
  405loPI   PO4 6468  16.803   2.900  11.514 -0.0519  0.2837 -0.3517
  405loPI   GL1 6469  16.715   3.212  11.096 -0.3900 -0.2571 -0.1561
  405loPI   GL2 6470  16.800   3.462  11.164  0.2250  0.0220  0.3178
  405loPI   C1A 6471  16.765   3.121  10.663  0.0303 -0.1788  0.2996
  405loPI   C2A 6472  16.675   3.018  10.232  0.2898  0.0550 -0.2531
  405loPI   C3A 6473  16.824   2.996   9.900  0.3071 -0.2977 -0.3222
  405loPI   C4A 6474  16.813   2.977   9.380 -0.0634  0.4107  0.1698
  405loPI   C5A 6475  16.906   3.001   8.853  0.1210 -0.2498 -0.0157
  405loPI   C6A 6476  17.074   2.725   8.623 -0.0608 -0.3839 -0.2973
  405loPI   C1B 6477  16.997   3.546  10.780  0.1269 -0.1720  0.1393
  405loPI   C2B 6478  16.893   3.533  10.445 -0.0376 -0.2901  0.2009
  405loPI   C3B 6479  16.908   3.488  10.018 -0.1843 -0.2049 -0.0132
  405loPI   C4B 6480  16.907   3.441   9.581 -0.0025 -0.1296  0.0643
  406loPI    C1 6481  12.329  12.458  11.829  0.2865 -0.0379  0.0512
  406loPI    C2 6482  12.358  12.059  11.823  0.2747 -0.0392  0.0825
  406loPI    C3 6483  12.447  12.261  12.157  0.2134 -0.0209  0.0880
  406loPI   PO4 6484  12.428  12.556  11.559  0.0939  0.1310 -0.0165
  406loPI   GL1 6485  12.297  12.417  11.255 -0.2173  0.2217 -0.1380
  406loPI   GL2 6486  12.212  12.777  11.179  0.0168 -0.0424  0.2712
  406loPI   C1A 6487  12.449  12.352  10.816 -0.0317  0.2694 -0.0302
  406loPI   C2A 6488  12.507  12.374  10.442  0.1639 -0.1333 -0.0803
  406loPI   C3A 6489  12.468  12.436  10.000  0.0460 -0.0072  0.0507
  406loPI   C4A 6490  12.571  12.342   9.611  0.0608 -0.0154 -0.0658
  406loPI   C5A 6491  12.515  12.325   9.211 -0.5125  0.0046  0.1170
  406loPI   C6A 6492  12.214  12.315   8.818  0.2645 -0.0447  0.1276
  406loPI   C1B 6493  12.178  12.781  10.678 -0.5034  0.1761 -0.0942
  406loPI   C2B 6494  12.147  12.696  10.272  0.0776  0.0335  0.1120
  406loPI   C3B 6495  12.174  12.782   9.817  0.3539 -0.0351  0.0760
  406loPI   C4B 6496  12.114  12.623   9.369  0.0496  0.0710  0.0123
  407loPI    C1 6497  10.835  16.046  11.769  0.0755  0.0469 -0.1991
  407loPI    C2 6498  10.535  16.030  12.033  0.1239 -0.0107 -0.1475
  407loPI    C3 6499  10.902  15.912  12.140  0.1691  0.0771 -0.2048
  407loPI   PO4 6500  10.682  16.323  11.606 -0.1627 -0.0051 -0.2235
  407loPI   GL1 6501  10.724  16.619  11.276  0.0125  0.0853 -0.1859
  407loPI   GL2 6502  10.831  16.934  11.149  0.3224 -0.0626 -0.0493
  407loPI   C1A 6503  10.670  16.578  10.814 -0.1216  0.2150 -0.2394
  407loPI   C2A 6504  10.717  16.635  10.385 -0.4111  0.0039  0.4053
  407loPI   C3A 6505  10.739  16.599   9.957 -0.0361  0.1860 -0.3866
  407loPI   C4A 6506  10.697  16.553   9.560  0.1396  0.1734 -0.1420
  407loPI   C5A 6507  10.585  16.541   9.177 -0.1605 -0.1800 -0.1367
  407loPI   C6A 6508  10.243  16.451   8.801 -0.0000  0.1485  0.2326
  407loPI   C1B 6509  10.797  17.047  10.774 -0.3420 -0.0413  0.1305
  407loPI   C2B 6510  10.871  17.217  10.348  0.1569  0.1374  0.2312
  407loPI   C3B 6511  10.887  17.116   9.897  0.0502  0.0633 -0.0757
  407loPI   C4B 6512  10.854  17.000   9.410  0.3283  0.0651  0.4650
  408loPI    C1 6513   4.093  15.047  11.634  0.1321 -0.0908 -0.3278
  408loPI    C2 6514   4.342  15.284  11.838  0.0433 -0.0981 -0.2095
  408loPI    C3 6515   4.279  14.909  11.960 -0.2473 -0.0063 -0.0679
  408loPI   PO4 6516   4.137  15.056  11.451  0.3541  0.1366 -0.0376
  408loPI   GL1 6517   4.304  15.100  11.112 -0.4924  0.1785  0.6604
  408loPI   GL2 6518   4.079  14.930  10.914 -0.2604  0.0299 -0.0951
  408loPI   C1A 6519   4.528  15.061  10.658 -0.1849  0.1015 -0.0607
  408loPI   C2A 6520   4.515  14.909  10.265 -0.0611 -0.1286  0.1488
  408loPI   C3A 6521   4.429  14.935   9.871 -0.1492  0.0968  0.0340
  408loPI   C4A 6522   4.505  14.911   9.546 -0.2098 -0.0418  0.0307
  408loPI   C5A 6523   4.545  14.827   9.058  0.3066  0.1717 -0.0083
  408loPI   C6A 6524   4.635  14.933   8.569  0.0847 -0.2410 -0.2465
  408loPI   C1B 6525   3.976  14.981  10.419  0.3777 -0.3593 -0.0090
  408loPI   C2B 6526   3.954  14.880  10.047 -0.0648 -0.4744  0.2281
  408loPI   C3B 6527   4.030  14.899   9.635 -0.0939  0.0060 -0.2317
  408loPI   C4B 6528   4.016  14.813   9.161 -0.0122 -0.0041 -0.0497
  409loPI    C1 6529   3.347   5.318  11.865 -0.0207  0.1675 -0.0213
  409loPI    C2 6530   3.531   5.100  12.146 -0.0681  0.0560 -0.0763
  409loPI    C3 6531   3.194   5.298  12.234 -0.1101 -0.0192 -0.0674
  409loPI   PO4 6532   3.545   5.298  11.625  0.3036 -0.2781  0.2164
  409loPI   GL1 6533   3.527   5.263  11.192  0.1312 -0.1564 -0.0726
  409loPI   GL2 6534   3.500   5.024  11.106 -0.1108 -0.0339  0.0264
  409loPI   C1A 6535   3.646   5.527  10.849 -0.0303  0.2286 -0.2448
  409loPI   C2A 6536   3.574   5.508  10.450  0.1263 -0.3218 -0.1237
  409loPI   C3A 6537   3.530   5.497   9.971 -0.2293 -0.1871  0.1657
  409loPI   C4A 6538   3.593   5.505   9.565  0.1956  0.2826 -0.0165
  409loPI   C5A 6539   3.509   5.604   9.156 -0.1902 -0.1028  0.1362
  409loPI   C6A 6540   3.562   5.388   8.796  0.1833 -0.2429  0.2292
  409loPI   C1B 6541   3.578   5.070  10.677  0.1346 -0.0918  0.0819
  409loPI   C2B 6542   3.756   4.744  10.357 -0.1516  0.1270  0.1973
  409loPI   C3B 6543   3.732   4.643   9.940  0.0823 -0.0036  0.0709
  409loPI   C4B 6544   3.693   4.708   9.518 -0.2341 -0.2897 -0.0016
  410loPI    C1 6545  16.212  11.472  11.349 -0.0467 -0.0035  0.0417
  410loPI    C2 6546  15.956  11.599  11.629 -0.1119 -0.1224  0.0366
  410loPI    C3 6547  16.283  11.394  11.735  0.0834  0.1947  0.0592
  410loPI   PO4 6548  16.080  11.322  11.201  0.4007  0.0773  0.4519
  410loPI   GL1 6549  15.901  11.385  10.831  0.0133 -0.1428  0.1169
  410loPI   GL2 6550  16.120  11.608  10.755  0.4386 -0.0959 -0.0439
  410loPI   C1A 6551  15.765  11.215  10.470 -0.2001  0.1624 -0.0195
  410loPI   C2A 6552  15.789  11.160   9.998 -0.3801  0.0966 -0.0714
  410loPI   C3A 6553  15.758  11.091   9.517  0.0375 -0.0919 -0.2616
  410loPI   C4A 6554  15.762  10.977   9.062 -0.1771 -0.0046 -0.1231
  410loPI   C5A 6555  15.625  10.635   8.834 -0.0523  0.0551  0.0036
  410loPI   C6A 6556  15.611  10.243   8.666  0.0110 -0.0316 -0.0152
  410loPI   C1B 6557  16.011  11.667  10.382 -0.0626  0.0349  0.2312
  410loPI   C2B 6558  16.115  11.502  10.014  0.1283 -0.2253  0.3123
  410loPI   C3B 6559  15.967  11.557   9.538  0.3098 -0.0813 -0.0754
  410loPI   C4B 6560  15.903  11.469   9.158  0.1275 -0.1117 -0.1729
  411loPI    C1 6561   0.393  16.797  11.591  0.1134  0.1949  0.0243
  411loPI    C2 6562   0.607  16.540  11.810  0.0150  0.0648 -0.0307
  411loPI    C3 6563   0.429  16.852  11.986 -0.1140 -0.0726  0.0857
  411loPI   PO4 6564   0.435  16.758  11.356  0.1920 -0.0919 -0.0886
  411loPI   GL1 6565   0.165  16.658  10.997  0.1749 -0.0618 -0.1067
  411loPI   GL2 6566  -0.078  16.499  10.943 -0.2720  0.5726  0.2414
  411loPI   C1A 6567   0.211  16.564  10.483 -0.0276 -0.0263  0.1012
  411loPI   C2A 6568   0.237  16.465  10.116  0.2659  0.1668 -0.0637
  411loPI   C3A 6569   0.315  16.421   9.771  0.1358  0.2823 -0.1085
  411loPI   C4A 6570   0.283  16.422   9.353  0.1331  0.0966 -0.0117
  411loPI   C5A 6571   0.143  16.347   8.961 -0.0052 -0.1982 -0.1912
  411loPI   C6A 6572   0.231  16.379   8.533  0.1877  0.1059  0.1920
  411loPI   C1B 6573  -0.276  16.485  10.521 -0.5282 -0.2894 -0.1687
  411loPI   C2B 6574  -0.295  16.483  10.041  0.1283 -0.1608  0.0765
  411loPI   C3B 6575  -0.182  16.423   9.598 -0.0894 -0.1733 -0.1539
  411loPI   C4B 6576  -0.359  16.250   9.116 -0.0346  0.0095  0.0007
  412loPI    C1 6577   8.802  15.869  11.619  0.2070  0.0093 -0.2398
  412loPI    C2 6578   8.696  15.613  11.908  0.1796 -0.0475 -0.3000
  412loPI    C3 6579   9.022  15.841  11.952 -0.0312  0.2161 -0.0613
  412loPI   PO4 6580   8.703  15.813  11.442 -0.0167 -0.0170  0.5900
  412loPI   GL1 6581   8.875  15.902  11.080 -0.2924  0.0418  0.1421
  412loPI   GL2 6582   8.821  16.238  10.958 -0.0410  0.1849  0.3360
  412loPI   C1A 6583   9.013  15.843  10.670  0.0948 -0.0994 -0.2983
  412loPI   C2A 6584   8.999  15.772  10.172  0.0703  0.0658 -0.0379
  412loPI   C3A 6585   8.966  15.770   9.805  0.0638  0.1853 -0.2111
  412loPI   C4A 6586   8.925  15.737   9.328 -0.0313 -0.1636  0.2013
  412loPI   C5A 6587   8.764  15.866   8.904  0.0744 -0.0147  0.1448
  412loPI   C6A 6588   8.508  16.203   8.889  0.1634  0.0298  0.0443
  412loPI   C1B 6589   8.630  16.237  10.610  0.3253  0.0198 -0.0970
  412loPI   C2B 6590   8.624  16.170  10.101 -0.1429 -0.3889  0.0928
  412loPI   C3B 6591   8.700  16.195   9.693 -0.1150 -0.0147  0.0795
  412loPI   C4B 6592   8.718  16.279   9.284  0.1936  0.2665  0.2495
  413loPI    C1 6593  16.364  13.090  11.666 -0.0471 -0.0088  0.0374
  413loPI    C2 6594  16.690  12.925  11.827 -0.0294  0.1055  0.1205
  413loPI    C3 6595  16.332  12.866  11.996 -0.0406  0.0481  0.0768
  413loPI   PO4 6596  16.351  13.098  11.398 -0.3309  0.0058 -0.1964
  413loPI   GL1 6597  16.233  12.805  11.007  0.1527  0.1326  0.1820
  413loPI   GL2 6598  16.442  12.643  11.014  0.1232  0.3652 -0.1818
  413loPI   C1A 6599  16.130  13.059  10.576  0.0812 -0.0665 -0.2169
  413loPI   C2A 6600  16.060  13.008  10.157  0.1539  0.0421 -0.1334
  413loPI   C3A 6601  16.112  12.932   9.757  0.2400  0.2083 -0.0961
  413loPI   C4A 6602  16.122  12.967   9.361 -0.0245 -0.2400  0.0117
  413loPI   C5A 6603  16.122  12.934   8.949 -0.0622  0.0902  0.0189
  413loPI   C6A 6604  16.205  13.224   8.595  0.1370 -0.0064 -0.0814
  413loPI   C1B 6605  16.336  12.587  10.527 -0.2070 -0.2889  0.2270
  413loPI   C2B 6606  16.366  12.550  10.069 -0.0889  0.0423  0.0342
  413loPI   C3B 6607  16.393  12.531   9.634 -0.0086  0.2135 -0.4886
  413loPI   C4B 6608  16.415  12.580   9.224 -0.1350  0.2741  0.2990
  414loPI    C1 6609  11.771   3.067  11.921 -0.0724  0.0426  0.0104
  414loPI    C2 6610  11.595   2.726  11.806  0.0198 -0.0211  0.0569
  414loPI    C3 6611  11.978   2.724  11.924  0.0491  0.1151 -0.0339
  414loPI   PO4 6612  11.748   3.260  11.631  0.0405  0.0760  0.2835
  414loPI   GL1 6613  11.689   3.432  11.134 -0.0973 -0.0365 -0.1756
  414loPI   GL2 6614  11.765   3.159  11.076 -0.0304 -0.1927 -0.3418
  414loPI   C1A 6615  11.729   3.582  10.690 -0.1497 -0.3193 -0.1725
  414loPI   C2A 6616  11.719   3.506  10.187 -0.0477 -0.2947 -0.1193
  414loPI   C3A 6617  11.647   3.444   9.767 -0.1022  0.0015 -0.4595
  414loPI   C4A 6618  11.611   3.355   9.311 -0.0999  0.3923  0.1117
  414loPI   C5A 6619  11.849   3.497   9.032  0.1526  0.0847  0.0417
  414loPI   C6A 6620  12.256   3.825   8.997  0.0677 -0.0837 -0.0787
  414loPI   C1B 6621  11.696   2.966  10.770  0.5329 -0.1423 -0.1177
  414loPI   C2B 6622  11.664   2.930  10.349  0.0260 -0.3136  0.1347
  414loPI   C3B 6623  11.498   2.874   9.880  0.0482 -0.2234 -0.2043
  414loPI   C4B 6624  11.584   2.864   9.474  0.0311 -0.2062 -0.0780
  415loPI    C1 6625  11.456  17.122  11.730  0.0745  0.1061  0.1024
  415loPI    C2 6626  11.380  16.943  12.080  0.0453  0.0231  0.0541
  415loPI    C3 6627  11.119  17.205  11.929  0.0725  0.0824  0.1089
  415loPI   PO4 6628  11.550  16.986  11.535  0.2055 -0.0957  0.0794
  415loPI   GL1 6629  11.491  17.037  11.130  0.0447  0.0453 -0.3278
  415loPI   GL2 6630  11.799  16.815  11.135 -0.1310  0.1489  0.0092
  415loPI   C1A 6631  11.343  17.180  10.719 -0.0517  0.2274  0.2651
  415loPI   C2A 6632  11.370  17.276  10.241 -0.1218 -0.1011 -0.1804
  415loPI   C3A 6633  11.399  17.208   9.828 -0.0277 -0.0049  0.0529
  415loPI   C4A 6634  11.476  17.159   9.403 -0.0143  0.0219  0.2903
  415loPI   C5A 6635  11.286  17.247   9.041 -0.0013 -0.0451  0.1364
  415loPI   C6A 6636  11.258  17.658   8.770 -0.0593  0.1512 -0.3220
  415loPI   C1B 6637  11.734  16.759  10.698 -0.0946 -0.3716  0.0041
  415loPI   C2B 6638  11.796  16.791  10.302 -0.0867 -0.1483  0.1866
  415loPI   C3B 6639  11.682  16.833   9.897  0.1665  0.1552  0.0360
  415loPI   C4B 6640  11.733  16.756   9.449  0.1031 -0.0815  0.0192
  416loPI    C1 6641   8.082   4.739  11.926 -0.1200 -0.0642  0.1088
  416loPI    C2 6642   7.973   5.068  12.126  0.3279 -0.0417  0.3306
  416loPI    C3 6643   7.999   4.718  12.317 -0.0736 -0.1984  0.1118
  416loPI   PO4 6644   7.903   4.702  11.703  0.1402 -0.1777 -0.3380
  416loPI   GL1 6645   7.950   4.835  11.226  0.1116  0.1693  0.1817
  416loPI   GL2 6646   7.988   4.563  11.113  0.1744  0.4458  0.0627
  416loPI   C1A 6647   8.042   5.053  10.827 -0.1910 -0.0700 -0.0760
  416loPI   C2A 6648   8.060   5.202  10.422  0.0139 -0.0912  0.2438
  416loPI   C3A 6649   8.106   5.106   9.921  0.1937 -0.2986  0.2727
  416loPI   C4A 6650   8.106   5.023   9.418 -0.3650  0.0947 -0.2053
  416loPI   C5A 6651   8.114   5.023   9.002 -0.2036  0.0590 -0.1407
  416loPI   C6A 6652   8.046   5.278   8.647  0.3342 -0.0436  0.0533
  416loPI   C1B 6653   7.923   4.591  10.633 -0.1258  0.0968 -0.0365
  416loPI   C2B 6654   7.932   4.670  10.271  0.1074 -0.1051 -0.3622
  416loPI   C3B 6655   7.952   4.628   9.788  0.2235  0.0951 -0.1466
  416loPI   C4B 6656   7.909   4.470   9.372  0.1071  0.1876 -0.2219
  417loPI    C1 6657  14.348   4.956  11.833  0.1279 -0.1773  0.1337
  417loPI    C2 6658  14.062   5.201  11.968  0.1109 -0.0504 -0.1277
  417loPI    C3 6659  14.433   5.227  12.115  0.0686  0.0158 -0.0314
  417loPI   PO4 6660  14.295   4.955  11.561  0.0083  0.0106  0.2308
  417loPI   GL1 6661  14.527   5.073  11.236  0.3486  0.1409 -0.3074
  417loPI   GL2 6662  14.788   4.908  10.979 -0.2370 -0.1170 -0.0894
  417loPI   C1A 6663  14.413   5.202  10.907  0.2309  0.2257 -0.1478
  417loPI   C2A 6664  14.341   5.350  10.571 -0.1972 -0.0437 -0.2074
  417loPI   C3A 6665  14.289   5.288  10.124 -0.1882  0.0716  0.0668
  417loPI   C4A 6666  14.203   5.348   9.630  0.2036  0.1753  0.1651
  417loPI   C5A 6667  14.256   5.268   9.241 -0.0482  0.3627 -0.0691
  417loPI   C6A 6668  13.935   5.241   8.918  0.1374  0.4019 -0.1670
  417loPI   C1B 6669  14.639   4.946  10.541 -0.1441 -0.2003 -0.2438
  417loPI   C2B 6670  14.613   4.930  10.082  0.0482 -0.1277  0.0793
  417loPI   C3B 6671  14.648   4.846   9.707 -0.1689 -0.0684 -0.1503
  417loPI   C4B 6672  14.479   4.830   9.250  0.0005 -0.1770  0.2211
  418loPI    C1 6673   5.497  17.403  11.655 -0.1229  0.1659 -0.0029
  418loPI    C2 6674   5.141  17.459  11.827 -0.0423  0.0752  0.1959
  418loPI    C3 6675   5.435  17.280  12.030  0.0229 -0.1286 -0.0727
  418loPI   PO4 6676   5.578  17.606  11.627  0.2015  0.0313 -0.1226
  418loPI   GL1 6677   5.684  17.554  11.187 -0.1119  0.0203  0.0148
  418loPI   GL2 6678   5.477  17.554  11.034 -0.0393  0.3074 -0.0776
  418loPI   C1A 6679   5.925  17.598  10.826  0.2853  0.0035  0.2040
  418loPI   C2A 6680   5.926  17.586  10.342 -0.0729  0.4458  0.1933
  418loPI   C3A 6681   5.852  17.450   9.916 -0.2224  0.1040  0.1124
  418loPI   C4A 6682   5.817  17.483   9.545 -0.0502  0.0782 -0.1946
  418loPI   C5A 6683   5.834  17.539   9.106 -0.0593  0.0584  0.0801
  418loPI   C6A 6684   6.137  17.259   8.875  0.1877  0.1809  0.3909
  418loPI   C1B 6685   5.406  17.476  10.564  0.0706  0.0521  0.2005
  418loPI   C2B 6686   5.361  17.386  10.132 -0.0633 -0.0955 -0.1719
  418loPI   C3B 6687   5.371  17.372   9.641  0.0945 -0.1010 -0.0386
  418loPI   C4B 6688   5.403  17.479   9.236  0.1386 -0.1966 -0.2739
  419loPI    C1 6689  11.782   5.794  11.939  0.0580  0.0491 -0.0167
  419loPI    C2 6690  11.440   5.651  12.087  0.2459 -0.1602  0.2221
  419loPI    C3 6691  11.633   5.944  12.278  0.1323  0.0536  0.0140
  419loPI   PO4 6692  11.711   5.866  11.698 -0.2203 -0.0663 -0.0539
  419loPI   GL1 6693  11.832   6.021  11.270  0.1930 -0.0752 -0.1186
  419loPI   GL2 6694  11.546   5.828  11.183  0.3981 -0.0397 -0.2799
  419loPI   C1A 6695  11.764   6.266  10.955  0.2039  0.1136  0.0443
  419loPI   C2A 6696  11.846   6.315  10.554 -0.0013  0.2743  0.0846
  419loPI   C3A 6697  11.790   6.280  10.094  0.0666  0.2717  0.1305
  419loPI   C4A 6698  11.696   6.262   9.746  0.2994  0.0917  0.2255
  419loPI   C5A 6699  11.725   6.285   9.337 -0.1737 -0.0596  0.2376
  419loPI   C6A 6700  11.745   6.286   8.910  0.1507  0.2358 -0.1578
  419loPI   C1B 6701  11.601   5.849  10.691  0.0350 -0.2445  0.1116
  419loPI   C2B 6702  11.629   5.748  10.273 -0.1179  0.1159  0.0287
  419loPI   C3B 6703  11.611   5.788   9.845 -0.2198 -0.3414 -0.0012
  419loPI   C4B 6704  11.567   5.754   9.454  0.0495  0.1808  0.3389
  420loPI    C1 6705   2.267  10.815  11.758 -0.2036  0.1732 -0.0425
  420loPI    C2 6706   2.296  11.086  12.051  0.1757  0.1320 -0.0372
  420loPI    C3 6707   2.526  10.758  12.058 -0.0665 -0.0448 -0.1992
  420loPI   PO4 6708   2.338  11.000  11.538  0.0058 -0.1487  0.0235
  420loPI   GL1 6709   2.343  10.937  11.130  0.0876  0.2538  0.2175
  420loPI   GL2 6710   2.588  11.049  10.916 -0.1192 -0.1358  0.4069
  420loPI   C1A 6711   2.109  10.992  10.751  0.1133  0.1441 -0.0661
  420loPI   C2A 6712   2.052  10.993  10.202 -0.0409 -0.2166 -0.4255
  420loPI   C3A 6713   2.076  11.001   9.730  0.3199 -0.2943  0.0435
  420loPI   C4A 6714   2.135  10.925   9.327 -0.1378 -0.4213 -0.2575
  420loPI   C5A 6715   2.099  10.852   8.853 -0.0366 -0.0872 -0.0681
  420loPI   C6A 6716   2.002  10.774   8.489 -0.0094 -0.1277  0.0649
  420loPI   C1B 6717   2.537  10.986  10.452 -0.0411 -0.2039 -0.1259
  420loPI   C2B 6718   2.534  11.068  10.041  0.0033  0.0285  0.0833
  420loPI   C3B 6719   2.538  11.077   9.597 -0.0996 -0.1269 -0.2009
  420loPI   C4B 6720   2.547  10.857   9.174 -0.3729 -0.0017  0.1093
  421loPI    C1 6721   7.816  12.845  11.826  0.1237 -0.0968 -0.0133
  421loPI    C2 6722   7.527  12.876  12.100  0.1616  0.0288  0.0134
  421loPI    C3 6723   7.902  12.799  12.213  0.1570 -0.0323 -0.0128
  421loPI   PO4 6724   7.892  12.968  11.656 -0.3215  0.1247  0.1087
  421loPI   GL1 6725   7.840  13.105  11.286  0.2926 -0.0095 -0.3282
  421loPI   GL2 6726   7.636  12.863  11.180  0.1823 -0.1936 -0.0571
  421loPI   C1A 6727   8.054  12.972  10.876  0.1577  0.1180 -0.2993
  421loPI   C2A 6728   8.003  12.915  10.472 -0.0965 -0.0770 -0.2202
  421loPI   C3A 6729   8.016  12.901  10.043 -0.0752  0.0327  0.2775
  421loPI   C4A 6730   7.986  12.802   9.589  0.1653 -0.0748 -0.1281
  421loPI   C5A 6731   7.987  12.687   9.232  0.0204  0.2266 -0.0853
  421loPI   C6A 6732   8.131  12.731   8.788  0.1108 -0.0272 -0.0125
  421loPI   C1B 6733   7.507  12.906  10.741 -0.1187  0.3656  0.1752
  421loPI   C2B 6734   7.528  12.831  10.372  0.2739 -0.1089  0.0162
  421loPI   C3B 6735   7.519  12.750  10.035  0.1044  0.1791  0.1493
  421loPI   C4B 6736   7.467  12.688   9.590 -0.1523  0.2189  0.0335
  422loPI    C1 6737   4.100   5.181  11.643  0.0530 -0.1756  0.0271
  422loPI    C2 6738   3.814   4.920  11.745 -0.0522 -0.0198  0.1350
  422loPI    C3 6739   4.014   5.119  12.029 -0.0904  0.1430  0.0492
  422loPI   PO4 6740   4.170   5.065  11.357 -0.0848  0.0423 -0.0745
  422loPI   GL1 6741   3.974   5.129  10.921 -0.4591  0.0084 -0.2114
  422loPI   GL2 6742   4.027   4.839  10.836  0.0287 -0.2044 -0.1386
  422loPI   C1A 6743   4.005   5.240  10.545  0.1148 -0.1163 -0.1118
  422loPI   C2A 6744   3.944   5.152  10.146  0.0428 -0.1602 -0.0837
  422loPI   C3A 6745   3.862   5.151   9.725  0.2194  0.0859  0.0694
  422loPI   C4A 6746   3.868   5.148   9.278 -0.0655  0.1998  0.0125
  422loPI   C5A 6747   4.083   5.331   8.925  0.4558  0.0974  0.1356
  422loPI   C6A 6748   4.055   5.266   8.516 -0.0569  0.1019  0.1695
  422loPI   C1B 6749   4.301   4.825  10.430  0.1236  0.1358  0.0911
  422loPI   C2B 6750   4.213   4.787   9.932  0.1866 -0.1102 -0.0086
  422loPI   C3B 6751   4.181   4.776   9.517 -0.2187  0.1604 -0.0076
  422loPI   C4B 6752   4.161   4.775   9.043 -0.1068 -0.1886  0.2335
  423loPI    C1 6753  12.696  16.940  11.627  0.0387 -0.0289 -0.0259
  423loPI    C2 6754  13.075  17.070  11.628 -0.0295  0.1732  0.0117
  423loPI    C3 6755  12.852  17.099  11.959 -0.1712  0.3342 -0.0957
  423loPI   PO4 6756  12.506  17.023  11.462  0.0907 -0.4208 -0.0761
  423loPI   GL1 6757  12.295  17.104  11.015  0.1372 -0.1513 -0.0018
  423loPI   GL2 6758  12.232  16.785  10.923  0.3187  0.0409  0.2369
  423loPI   C1A 6759  12.395  17.335  10.640 -0.0923  0.0081  0.3050
  423loPI   C2A 6760  12.405  17.397  10.239 -0.0668 -0.1581  0.1375
  423loPI   C3A 6761  12.410  17.363   9.817 -0.1662  0.2620  0.2219
  423loPI   C4A 6762  12.438  17.410   9.300 -0.1426 -0.1704  0.2525
  423loPI   C5A 6763  12.438  17.149   8.932  0.1641 -0.0623  0.0513
  423loPI   C6A 6764  12.250  17.335   8.599  0.2473 -0.0724  0.0072
  423loPI   C1B 6765  12.276  16.872  10.474 -0.1027 -0.0829 -0.1095
  423loPI   C2B 6766  12.345  16.923  10.122 -0.5047  0.0773 -0.0130
  423loPI   C3B 6767  12.310  16.892   9.646  0.2708 -0.2524  0.3655
  423loPI   C4B 6768  12.230  16.808   9.173  0.0758 -0.0788 -0.2451
  424loPI    C1 6769  15.540  11.852  11.786  0.2908 -0.0447 -0.0121
  424loPI    C2 6770  15.175  11.979  11.889  0.2414 -0.1377 -0.0711
  424loPI    C3 6771  15.401  11.785  12.155  0.2090 -0.1667 -0.0646
  424loPI   PO4 6772  15.674  12.057  11.546  0.0083 -0.0762  0.1600
  424loPI   GL1 6773  15.666  12.274  11.161  0.0663 -0.0480 -0.1322
  424loPI   GL2 6774  15.692  12.166  10.941 -0.1825 -0.2975 -0.1720
  424loPI   C1A 6775  15.890  12.581  10.778 -0.2379  0.1229 -0.0960
  424loPI   C2A 6776  15.867  12.608  10.344 -0.2029 -0.1465  0.1510
  424loPI   C3A 6777  15.933  12.465   9.884  0.0203  0.3399  0.1017
  424loPI   C4A 6778  15.891  12.515   9.449  0.1077 -0.0461  0.1286
  424loPI   C5A 6779  15.979  12.379   8.990  0.1791 -0.5529  0.1208
  424loPI   C6A 6780  16.292  12.415   8.748  0.0205  0.2818 -0.1538
  424loPI   C1B 6781  15.694  12.129  10.412 -0.0540  0.1386 -0.2263
  424loPI   C2B 6782  15.672  12.035  10.042  0.1617 -0.2684  0.4079
  424loPI   C3B 6783  15.745  12.065   9.628 -0.3334  0.1422 -0.2823
  424loPI   C4B 6784  15.692  11.941   9.250  0.0684  0.0326 -0.0066
  425loPI    C1 6785   4.920  16.749  11.531  0.1564  0.4066 -0.2579
  425loPI    C2 6786   5.207  16.963  11.710  0.0597  0.1896  0.1680
  425loPI    C3 6787   4.876  16.863  11.912 -0.1674  0.1496 -0.2141
  425loPI   PO4 6788   4.969  16.888  11.259 -0.2311 -0.0370  0.3620
  425loPI   GL1 6789   5.113  16.633  10.843  0.0673 -0.0662 -0.0674
  425loPI   GL2 6790   5.358  16.722  10.902 -0.1651 -0.2949  0.0362
  425loPI   C1A 6791   4.965  16.502  10.397  0.1084  0.0210 -0.2894
  425loPI   C2A 6792   4.944  16.418   9.971 -0.2375 -0.1151 -0.0294
  425loPI   C3A 6793   5.030  16.373   9.481 -0.0384  0.0454 -0.1200
  425loPI   C4A 6794   5.105  16.534   9.007 -0.1718  0.1694 -0.1003
  425loPI   C5A 6795   5.572  16.640   8.873  0.1167  0.4332  0.2690
  425loPI   C6A 6796   5.978  16.611   8.703  0.1215 -0.0130 -0.3532
  425loPI   C1B 6797   5.531  16.492  10.568  0.1753 -0.1982  0.1482
  425loPI   C2B 6798   5.457  16.484  10.117  0.0780  0.0587  0.1550
  425loPI   C3B 6799   5.552  16.451   9.692  0.4350 -0.2093 -0.0355
  425loPI   C4B 6800   5.500  16.498   9.335  0.4761  0.3312 -0.0646
  426loPI    C1 6801  13.729   3.666  11.934  0.1103 -0.0274  0.1501
  426loPI    C2 6802  13.577   3.298  11.971  0.0487 -0.0196 -0.0179
  426loPI    C3 6803  13.561   3.553  12.278 -0.1462 -0.0682  0.0136
  426loPI   PO4 6804  13.603   3.792  11.694 -0.0231 -0.2060  0.2034
  426loPI   GL1 6805  13.525   3.844  11.249  0.0641 -0.3041  0.0931
  426loPI   GL2 6806  13.287   3.856  11.030  0.0528 -0.0543  0.2980
  426loPI   C1A 6807  13.781   3.862  10.811 -0.3743  0.1137  0.2748
  426loPI   C2A 6808  13.804   3.839  10.303  0.0683 -0.0036 -0.0693
  426loPI   C3A 6809  13.744   3.756   9.841  0.1864  0.1762 -0.0307
  426loPI   C4A 6810  13.774   3.823   9.328  0.1320  0.1306 -0.0011
  426loPI   C5A 6811  13.399   3.898   9.101 -0.2263  0.1020  0.1760
  426loPI   C6A 6812  13.247   3.861   8.687 -0.1224  0.1625 -0.4683
  426loPI   C1B 6813  13.295   3.761  10.676 -0.0706 -0.0780  0.0666
  426loPI   C2B 6814  13.332   3.759  10.196  0.0634 -0.2128  0.1479
  426loPI   C3B 6815  13.254   3.698   9.778  0.0758  0.3910 -0.1241
  426loPI   C4B 6816  13.104   3.760   9.506  0.0396  0.0353 -0.1818
  427loPI    C1 6817   6.745  16.771  11.895  0.2326 -0.0308  0.0754
  427loPI    C2 6818   6.835  16.382  11.877  0.0753 -0.0682  0.0784
  427loPI    C3 6819   6.509  16.503  12.075  0.0071  0.0457 -0.1002
  427loPI   PO4 6820   6.872  16.813  11.615 -0.2250  0.4024  0.1743
  427loPI   GL1 6821   6.884  16.764  11.219 -0.2704 -0.2690  0.0692
  427loPI   GL2 6822   7.031  17.098  11.141 -0.2637  0.1442 -0.0902
  427loPI   C1A 6823   6.938  16.823  10.769 -0.0588 -0.0521  0.0470
  427loPI   C2A 6824   7.038  16.816  10.470  0.1484 -0.2384 -0.1619
  427loPI   C3A 6825   6.953  16.788  10.042 -0.0578  0.0801  0.1475
  427loPI   C4A 6826   6.971  16.864   9.665 -0.3482  0.2417 -0.2311
  427loPI   C5A 6827   6.934  16.778   9.180  0.1275  0.0856  0.1548
  427loPI   C6A 6828   6.906  16.763   8.753 -0.0631  0.1531  0.1333
  427loPI   C1B 6829   7.225  17.265  10.791  0.0993 -0.0425  0.0195
  427loPI   C2B 6830   7.189  17.285  10.356 -0.0941  0.0286 -0.0961
  427loPI   C3B 6831   7.084  17.258   9.890 -0.0181 -0.1202  0.0113
  427loPI   C4B 6832   7.113  17.265   9.459 -0.0171 -0.1889  0.2603
  428loPI    C1 6833  16.987  17.117  11.635 -0.1996  0.2524  0.0167
  428loPI    C2 6834  16.678  16.980  11.849 -0.0916  0.0238  0.0303
  428loPI    C3 6835  17.025  16.780  11.847 -0.0049  0.1719 -0.1416
  428loPI   PO4 6836  17.002  17.058  11.357  0.3080 -0.0305 -0.0103
  428loPI   GL1 6837  17.390  17.061  11.005  0.1212  0.1809  0.0220
  428loPI   GL2 6838  17.245  17.394  11.060 -0.1121  0.0711 -0.2738
  428loPI   C1A 6839  17.347  16.961  10.646 -0.0119 -0.0089  0.0776
  428loPI   C2A 6840  17.419  16.941  10.240 -0.0936 -0.1326  0.0265
  428loPI   C3A 6841  17.395  16.913   9.841  0.1063  0.3689 -0.0299
  428loPI   C4A 6842  17.528  16.866   9.431  0.3852  0.0248 -0.1504
  428loPI   C5A 6843  17.261  16.703   9.078 -0.1761  0.4310 -0.0746
  428loPI   C6A 6844  16.975  16.835   8.730  0.3103  0.0053 -0.1559
  428loPI   C1B 6845  17.023  17.506  10.738 -0.0887 -0.1293  0.0409
  428loPI   C2B 6846  17.111  17.365  10.316  0.0763 -0.1601 -0.0439
  428loPI   C3B 6847  17.041  17.311   9.777  0.0716  0.0211 -0.0282
  428loPI   C4B 6848  16.947  17.252   9.324  0.0635  0.0538 -0.0565
  429loPI    C1 6849   0.234   7.318  11.873  0.1402  0.0520  0.1236
  429loPI    C2 6850   0.140   7.083  12.183  0.2660 -0.2133 -0.0358
  429loPI    C3 6851   0.413   7.372  12.227 -0.0959  0.0982  0.2382
  429loPI   PO4 6852   0.244   7.204  11.666 -0.0438  0.1152  0.3499
  429loPI   GL1 6853   0.152   7.202  11.311 -0.0755 -0.0448 -0.1798
  429loPI   GL2 6854   0.289   7.292  11.014  0.0651 -0.0045 -0.1286
  429loPI   C1A 6855  -0.130   7.130  10.965 -0.1655  0.2931 -0.1543
  429loPI   C2A 6856  -0.056   7.191  10.502 -0.0005  0.1350  0.3542
  429loPI   C3A 6857  -0.140   7.158  10.118 -0.0678 -0.0723  0.1908
  429loPI   C4A 6858  -0.121   7.148   9.662 -0.2130  0.0623 -0.1703
  429loPI   C5A 6859  -0.346   7.137   9.253  0.0067 -0.1026  0.0029
  429loPI   C6A 6860  -0.705   7.140   9.103 -0.2719 -0.0109  0.1591
  429loPI   C1B 6861   0.442   7.330  10.584  0.2676 -0.0426  0.3323
  429loPI   C2B 6862   0.357   7.279  10.149 -0.1687  0.2099  0.4405
  429loPI   C3B 6863   0.318   7.333   9.697  0.0370  0.1186  0.0779
  429loPI   C4B 6864   0.347   7.246   9.321  0.1422 -0.0355  0.3087
  430loPI    C1 6865   3.400  16.567  11.374 -0.2042  0.0550  0.1694
  430loPI    C2 6866   3.595  16.864  11.558  0.1145 -0.0228 -0.0354
  430loPI    C3 6867   3.587  16.498  11.721 -0.0639  0.0360  0.0907
  430loPI   PO4 6868   3.486  16.669  11.055 -0.1106 -0.0842  0.0270
  430loPI   GL1 6869   3.747  16.729  10.687  0.0830 -0.6074  0.0700
  430loPI   GL2 6870   3.903  16.440  10.729 -0.0425  0.0494 -0.1864
  430loPI   C1A 6871   3.576  16.810  10.345 -0.2702  0.1139  0.0284
  430loPI   C2A 6872   3.604  16.825   9.896 -0.1703  0.0037  0.0992
  430loPI   C3A 6873   3.722  16.722   9.524  0.1226 -0.0311  0.0886
  430loPI   C4A 6874   3.683  16.635   9.067 -0.2191 -0.0121 -0.1146
  430loPI   C5A 6875   3.785  16.619   8.672 -0.3159  0.0283 -0.0092
  430loPI   C6A 6876   4.036  16.664   8.382 -0.0664 -0.2089  0.3285
  430loPI   C1B 6877   4.014  16.396  10.333 -0.0549  0.0388  0.0033
  430loPI   C2B 6878   3.956  16.383   9.856 -0.1570 -0.3683 -0.0765
  430loPI   C3B 6879   4.000  16.267   9.352  0.2477 -0.1159  0.0544
  430loPI   C4B 6880   4.046  16.188   8.911  0.0817 -0.2309 -0.1081
  431loPI    C1 6881   6.539   3.476  11.378 -0.2384 -0.1257  0.0327
  431loPI    C2 6882   6.924   3.378  11.331 -0.1539  0.2604 -0.1193
  431loPI    C3 6883   6.752   3.348  11.691 -0.0018  0.0270 -0.0634
  431loPI   PO4 6884   6.466   3.366  11.198  0.0951  0.1443  0.0244
  431loPI   GL1 6885   6.364   3.486  10.876  0.1587 -0.0620 -0.1462
  431loPI   GL2 6886   6.079   3.370  10.761  0.2553  0.0294  0.0080
  431loPI   C1A 6887   6.575   3.498  10.494  0.1798  0.3385  0.1145
  431loPI   C2A 6888   6.633   3.463  10.011 -0.0291  0.2290  0.1344
  431loPI   C3A 6889   6.544   3.340   9.617 -0.0366 -0.0667  0.0890
  431loPI   C4A 6890   6.545   3.374   9.174 -0.2836  0.1959  0.0753
  431loPI   C5A 6891   6.638   3.655   8.775  0.1642 -0.1607 -0.2222
  431loPI   C6A 6892   6.957   3.529   8.522 -0.2599  0.0633  0.1032
  431loPI   C1B 6893   6.119   3.422  10.309 -0.1196  0.0734  0.2083
  431loPI   C2B 6894   6.090   3.343   9.915 -0.1176 -0.2250 -0.0121
  431loPI   C3B 6895   6.050   3.333   9.507 -0.1638  0.1313  0.0074
  431loPI   C4B 6896   6.029   3.280   9.124 -0.2686 -0.0414 -0.1538
  432loPI    C1 6897  15.494   7.464  11.711  0.2105  0.0358 -0.0241
  432loPI    C2 6898  15.695   7.809  11.737  0.2780 -0.0116  0.0859
  432loPI    C3 6899  15.699   7.551  12.043 -0.1398  0.0897  0.1834
  432loPI   PO4 6900  15.578   7.367  11.450  0.2039  0.1551 -0.0068
  432loPI   GL1 6901  15.566   7.195  11.030  0.1859 -0.1948  0.3785
  432loPI   GL2 6902  15.555   7.539  10.986  0.0022 -0.3438  0.1640
  432loPI   C1A 6903  15.357   6.914  10.772  0.0772  0.1370  0.1252
  432loPI   C2A 6904  15.311   6.911  10.340  0.0111 -0.0211 -0.0184
  432loPI   C3A 6905  15.328   6.910   9.841 -0.1195  0.0291  0.2849
  432loPI   C4A 6906  15.341   6.837   9.473  0.2203 -0.2281  0.0011
  432loPI   C5A 6907  15.432   6.840   8.986  0.0585  0.0785 -0.2086
  432loPI   C6A 6908  15.570   7.212   8.836  0.0181 -0.2740 -0.1125
  432loPI   C1B 6909  15.461   7.393  10.606  0.0475  0.1683 -0.1711
  432loPI   C2B 6910  15.480   7.381  10.186  0.0321 -0.2674 -0.2777
  432loPI   C3B 6911  15.471   7.375   9.741 -0.1783 -0.1171 -0.3371
  432loPI   C4B 6912  15.487   7.360   9.400 -0.2365  0.0206  0.1166
  433loPI    C1 6913   5.889  12.351  11.795  0.1589 -0.2350 -0.1942
  433loPI    C2 6914   5.799  12.022  12.004 -0.2194  0.0473  0.1029
  433loPI    C3 6915   5.970  12.334  12.187 -0.1576  0.1382 -0.1068
  433loPI   PO4 6916   5.970  12.282  11.614  0.0986 -0.0831 -0.0136
  433loPI   GL1 6917   6.003  12.400  11.275 -0.3538 -0.0380 -0.1428
  433loPI   GL2 6918   5.867  12.510  10.966  0.0302 -0.3285 -0.0108
  433loPI   C1A 6919   6.315  12.279  10.956 -0.3831  0.0037  0.4257
  433loPI   C2A 6920   6.328  12.139  10.516 -0.1726  0.1625  0.2117
  433loPI   C3A 6921   6.241  12.072  10.040  0.1033 -0.1158  0.0590
  433loPI   C4A 6922   6.241  12.125   9.651  0.2414  0.0424 -0.2024
  433loPI   C5A 6923   6.284  12.018   9.205  0.1192  0.0997  0.0024
  433loPI   C6A 6924   5.992  12.060   8.858  0.1763 -0.2142 -0.2623
  433loPI   C1B 6925   5.993  12.537  10.571  0.1684 -0.0656 -0.1568
  433loPI   C2B 6926   5.935  12.435  10.120  0.3521 -0.1391  0.0117
  433loPI   C3B 6927   5.886  12.411   9.752  0.1485 -0.0587  0.0576
  433loPI   C4B 6928   5.993  12.432   9.329 -0.0029  0.0956  0.1726
  434loPI    C1 6929  11.587   9.889  11.799  0.2475  0.3485  0.1193
  434loPI    C2 6930  11.291  10.063  12.005 -0.0540  0.0440 -0.0468
  434loPI    C3 6931  11.496   9.759  12.167 -0.1990 -0.1043 -0.1385
  434loPI   PO4 6932  11.555   9.763  11.561  0.3184  0.2071 -0.0013
  434loPI   GL1 6933  11.372   9.808  11.155  0.0392 -0.0123  0.0481
  434loPI   GL2 6934  11.653   9.776  10.928  0.3152 -0.0426 -0.0842
  434loPI   C1A 6935  11.189   9.811  10.794  0.0099  0.0799 -0.0639
  434loPI   C2A 6936  11.160   9.685  10.303  0.2154  0.0070 -0.1342
  434loPI   C3A 6937  11.144   9.684   9.911 -0.0276  0.3483 -0.1409
  434loPI   C4A 6938  11.168   9.653   9.482 -0.1213 -0.0851 -0.2245
  434loPI   C5A 6939  11.255   9.727   9.054  0.1303 -0.0832  0.3949
  434loPI   C6A 6940  11.032   9.979   8.790 -0.0110  0.1341  0.0392
  434loPI   C1B 6941  11.654   9.777  10.493 -0.2732  0.2709 -0.1044
  434loPI   C2B 6942  11.662   9.739  10.047 -0.2201  0.1804  0.0064
  434loPI   C3B 6943  11.583   9.813   9.675  0.1523 -0.3868  0.0636
  434loPI   C4B 6944  11.626   9.964   9.252 -0.1333 -0.1639 -0.0723
  435loPI    C1 6945   7.731   3.742  11.592  0.2004  0.0978  0.0209
  435loPI    C2 6946   7.720   3.391  11.400 -0.2741  0.0851  0.0605
  435loPI    C3 6947   7.866   3.411  11.772 -0.1235 -0.0443  0.0097
  435loPI   PO4 6948   7.849   3.917  11.408  0.1738 -0.1703  0.0619
  435loPI   GL1 6949   7.799   4.056  11.080 -0.0484  0.4843  0.3727
  435loPI   GL2 6950   8.235   4.041  11.119 -0.2382  0.2202  0.0303
  435loPI   C1A 6951   7.767   4.143  10.708 -0.1277  0.0373 -0.1460
  435loPI   C2A 6952   7.725   4.119  10.209  0.0034 -0.1585 -0.1245
  435loPI   C3A 6953   7.756   4.065   9.791  0.1896  0.1335 -0.1364
  435loPI   C4A 6954   7.729   4.032   9.406 -0.1256 -0.1687  0.0756
  435loPI   C5A 6955   7.742   4.046   8.969  0.2067  0.1437 -0.1265
  435loPI   C6A 6956   7.873   3.815   8.510 -0.0986 -0.4038  0.0841
  435loPI   C1B 6957   8.487   3.771  10.818 -0.0875 -0.0023 -0.0066
  435loPI   C2B 6958   8.531   3.832  10.319  0.0085  0.0563 -0.1097
  435loPI   C3B 6959   8.512   3.772   9.866 -0.0852 -0.0574 -0.1912
  435loPI   C4B 6960   8.589   3.732   9.392  0.2465  0.0650  0.0879
  436loPI    C1 6961  16.559   9.291  11.605 -0.0683 -0.2130 -0.0121
  436loPI    C2 6962  16.896   9.364  11.808 -0.1727  0.1413  0.0400
  436loPI    C3 6963  16.598   9.161  11.982  0.0062 -0.1634 -0.0026
  436loPI   PO4 6964  16.642   9.214  11.357  0.0141  0.0996  0.2807
  436loPI   GL1 6965  16.849   9.290  10.953 -0.2528  0.0602  0.1538
  436loPI   GL2 6966  17.046   9.506  10.858 -0.1126  0.0768  0.1508
  436loPI   C1A 6967  16.668   9.348  10.539  0.1501 -0.0823  0.0166
  436loPI   C2A 6968  16.634   9.342  10.127  0.0410 -0.1290  0.1156
  436loPI   C3A 6969  16.636   9.353   9.679  0.3340  0.0125  0.2014
  436loPI   C4A 6970  16.633   9.479   9.234  0.1563 -0.0055  0.1713
  436loPI   C5A 6971  17.072   9.467   8.898  0.2223  0.2839  0.0403
  436loPI   C6A 6972  17.398   9.274   8.689 -0.1973 -0.1955  0.0022
  436loPI   C1B 6973  17.243   9.481  10.597 -0.1859  0.2265 -0.2293
  436loPI   C2B 6974  17.180   9.372  10.164 -0.4112 -0.1990 -0.0185
  436loPI   C3B 6975  17.149   9.540   9.820  0.0262  0.0522  0.2186
  436loPI   C4B 6976  17.099   9.457   9.411 -0.1896  0.2233 -0.0034
  437loPI    C1 6977   7.165   0.278  11.798  0.0073 -0.0437  0.0605
  437loPI    C2 6978   7.537   0.305  11.945  0.0496 -0.2733 -0.0006
  437loPI    C3 6979   7.325  -0.031  11.997 -0.1367 -0.1564  0.0027
  437loPI   PO4 6980   7.102   0.314  11.529  0.1181  0.1632 -0.1269
  437loPI   GL1 6981   7.261   0.537  11.135 -0.2469  0.2061  0.0232
  437loPI   GL2 6982   7.014   0.796  10.940 -0.3175  0.0282 -0.2205
  437loPI   C1A 6983   7.396   0.287  10.758 -0.1868 -0.1688  0.0920
  437loPI   C2A 6984   7.378   0.288  10.270  0.1267  0.2226  0.1487
  437loPI   C3A 6985   7.341   0.311   9.841 -0.1640  0.0000  0.2855
  437loPI   C4A 6986   7.327   0.291   9.455  0.0557  0.2227  0.0378
  437loPI   C5A 6987   7.276   0.154   9.122 -0.3237  0.2019  0.0034
  437loPI   C6A 6988   7.199  -0.325   8.876  0.0856 -0.2725  0.0690
  437loPI   C1B 6989   7.085   0.749  10.520 -0.0148 -0.3789  0.1431
  437loPI   C2B 6990   7.055   0.650  10.046  0.1392 -0.0429  0.0931
  437loPI   C3B 6991   6.993   0.656   9.612  0.0537 -0.2390 -0.1107
  437loPI   C4B 6992   7.014   0.610   9.130 -0.1638 -0.1364 -0.0106
  438loPI    C1 6993   4.584  11.840  11.791 -0.0991  0.0792 -0.0848
  438loPI    C2 6994   4.226  12.013  11.745 -0.1472 -0.0261 -0.1110
  438loPI    C3 6995   4.329  11.859  12.099 -0.0637  0.1455 -0.0595
  438loPI   PO4 6996   4.553  11.662  11.544  0.1677  0.0047 -0.1132
  438loPI   GL1 6997   4.558  11.526  11.022  0.3629 -0.0529  0.1805
  438loPI   GL2 6998   4.675  11.773  11.054 -0.1773 -0.0741 -0.1525
  438loPI   C1A 6999   4.545  11.489  10.631 -0.0432 -0.2995 -0.3911
  438loPI   C2A 7000   4.577  11.344  10.119 -0.0796 -0.2648  0.0200
  438loPI   C3A 7001   4.652  11.278   9.676 -0.1316  0.2229 -0.1040
  438loPI   C4A 7002   4.729  11.267   9.218  0.5083 -0.0713 -0.1797
  438loPI   C5A 7003   4.771  11.537   8.927  0.3005 -0.0042  0.0015
  438loPI   C6A 7004   4.889  11.910   8.816 -0.0401 -0.3367  0.0815
  438loPI   C1B 7005   4.746  11.919  10.664 -0.3613 -0.0456 -0.0102
  438loPI   C2B 7006   4.742  11.929  10.192  0.0562  0.0229  0.1619
  438loPI   C3B 7007   4.756  11.824   9.769  0.2881 -0.3500  0.0644
  438loPI   C4B 7008   4.772  11.843   9.334 -0.2383 -0.0014  0.2500
  439loPI    C1 7009   1.977   8.616  11.649  0.3002 -0.1291 -0.0929
  439loPI    C2 7010   1.867   8.774  12.000 -0.0037 -0.0839 -0.2061
  439loPI    C3 7011   1.772   8.396  11.912  0.0065 -0.0719 -0.2697
  439loPI   PO4 7012   1.874   8.777  11.463 -0.3640  0.0738 -0.1001
  439loPI   GL1 7013   2.071   8.833  11.093 -0.2805 -0.0503  0.0921
  439loPI   GL2 7014   1.933   9.148  11.057  0.2560 -0.1318 -0.1648
  439loPI   C1A 7015   2.285   8.682  10.745  0.2726 -0.1853 -0.1205
  439loPI   C2A 7016   2.203   8.662  10.283  0.1314 -0.1276 -0.0527
  439loPI   C3A 7017   2.147   8.633   9.871  0.2517 -0.3546 -0.1790
  439loPI   C4A 7018   2.132   8.619   9.457  0.0638  0.2249 -0.1752
  439loPI   C5A 7019   1.953   8.506   9.033  0.0963  0.1164 -0.0103
  439loPI   C6A 7020   1.712   8.327   8.766 -0.1255 -0.0236  0.0137
  439loPI   C1B 7021   1.870   9.016  10.602 -0.1367 -0.0826  0.0641
  439loPI   C2B 7022   1.836   8.965  10.115 -0.2947 -0.2664 -0.0735
  439loPI   C3B 7023   1.932   9.080   9.633 -0.2409 -0.0719 -0.0106
  439loPI   C4B 7024   1.865   8.989   9.201 -0.1596  0.2106 -0.2908
  440loPI    C1 7025   4.892   0.830  11.646 -0.0021 -0.0096  0.1975
  440loPI    C2 7026   4.930   1.225  11.591 -0.0787 -0.0314 -0.0249
  440loPI    C3 7027   4.730   1.085  11.908 -0.0761  0.1084  0.0393
  440loPI   PO4 7028   4.841   0.762  11.367  0.2432 -0.0536 -0.0420
  440loPI   GL1 7029   4.861   0.795  10.880  0.1498  0.0762 -0.0090
  440loPI   GL2 7030   5.057   0.567  10.903 -0.0210 -0.0052 -0.0811
  440loPI   C1A 7031   4.802   0.778  10.412  0.0292  0.0263 -0.0195
  440loPI   C2A 7032   4.690   0.652  10.015 -0.1599 -0.0664 -0.0333
  440loPI   C3A 7033   4.667   0.789   9.621 -0.0541  0.1149 -0.2985
  440loPI   C4A 7034   4.638   0.846   9.117 -0.1411 -0.1431  0.3857
  440loPI   C5A 7035   4.462   0.892   8.659 -0.0802  0.1666 -0.3360
  440loPI   C6A 7036   4.585   1.242   8.287 -0.0473 -0.3776 -0.0548
  440loPI   C1B 7037   5.144   0.433  10.471 -0.0458  0.0202  0.2241
  440loPI   C2B 7038   5.108   0.316  10.027  0.1024  0.3017 -0.0355
  440loPI   C3B 7039   5.054   0.254   9.590 -0.0608 -0.0410  0.1307
  440loPI   C4B 7040   4.993   0.409   9.195 -0.2124  0.0568 -0.0211
  441loPI    C1 7041   2.216   1.396  11.409  0.0539  0.1857  0.0272
  441loPI    C2 7042   1.833   1.501  11.461  0.0907  0.2513  0.1701
  441loPI    C3 7043   1.991   1.202  11.676  0.0370  0.0197 -0.1055
  441loPI   PO4 7044   2.273   1.323  11.136 -0.2576 -0.1202  0.2242
  441loPI   GL1 7045   2.127   1.204  10.745  0.2188  0.1041  0.0986
  441loPI   GL2 7046   1.906   1.138  10.573  0.2197  0.2307 -0.1685
  441loPI   C1A 7047   2.417   1.208  10.389 -0.3324 -0.2089  0.1037
  441loPI   C2A 7048   2.484   1.345   9.921 -0.1050 -0.0593  0.0551
  441loPI   C3A 7049   2.558   1.290   9.415  0.1185  0.2267  0.0948
  441loPI   C4A 7050   2.430   1.320   9.063  0.2628 -0.2081  0.0817
  441loPI   C5A 7051   2.101   1.556   8.772 -0.1799 -0.0585 -0.2171
  441loPI   C6A 7052   1.772   1.645   8.800 -0.1638  0.1386 -0.0048
  441loPI   C1B 7053   1.925   1.264  10.136  0.0317 -0.0907  0.0759
  441loPI   C2B 7054   2.024   1.226   9.688 -0.1919  0.0637  0.0404
  441loPI   C3B 7055   2.112   1.028   9.416 -0.3188  0.0823  0.2141
  441loPI   C4B 7056   2.219   0.702   9.198 -0.2641 -0.1559  0.0991
  442loPI    C1 7057   6.253   9.728  11.822 -0.1518 -0.1032  0.0862
  442loPI    C2 7058   6.479   9.814  12.141 -0.0098 -0.1376 -0.0042
  442loPI    C3 7059   6.291   9.462  12.119  0.0822 -0.1861 -0.0163
  442loPI   PO4 7060   6.428   9.798  11.645 -0.1993 -0.0743 -0.0448
  442loPI   GL1 7061   6.545  10.020  11.344 -0.0731  0.0310  0.1149
  442loPI   GL2 7062   6.582  10.347  11.306 -0.0057  0.1477 -0.0698
  442loPI   C1A 7063   6.818  10.043  10.954 -0.3338 -0.0795 -0.2346
  442loPI   C2A 7064   6.934   9.934  10.585 -0.4889 -0.0801  0.2722
  442loPI   C3A 7065   6.919   9.878  10.232  0.2151  0.1636 -0.2960
  442loPI   C4A 7066   6.896   9.798   9.799  0.0834  0.0618 -0.0671
  442loPI   C5A 7067   7.105   9.591   9.438  0.1039 -0.3186  0.0809
  442loPI   C6A 7068   7.260   9.183   9.291  0.0587 -0.0729 -0.1612
  442loPI   C1B 7069   6.526  10.427  10.815 -0.0434 -0.0547  0.1304
  442loPI   C2B 7070   6.615  10.296  10.383  0.0905 -0.1017 -0.0311
  442loPI   C3B 7071   6.685  10.233   9.868  0.4613  0.0536  0.3118
  442loPI   C4B 7072   6.758  10.463   9.496 -0.3552  0.1696  0.0527
  443loPI    C1 7073  11.362   4.504  11.697 -0.0684 -0.1879  0.0803
  443loPI    C2 7074  11.550   4.424  12.041  0.2348 -0.1272 -0.0679
  443loPI    C3 7075  11.328   4.142  11.864  0.0069 -0.1320  0.2183
  443loPI   PO4 7076  11.613   4.572  11.539 -0.0099  0.0146  0.1949
  443loPI   GL1 7077  11.744   4.600  11.121  0.2789  0.1163 -0.1000
  443loPI   GL2 7078  11.491   4.730  11.054  0.0543  0.0611  0.1428
  443loPI   C1A 7079  11.631   4.424  10.707  0.0386  0.0925  0.1873
  443loPI   C2A 7080  11.621   4.414  10.247  0.3786 -0.1796  0.0021
  443loPI   C3A 7081  11.577   4.336   9.717  0.2129  0.0383  0.0729
  443loPI   C4A 7082  11.461   4.142   9.294  0.0201 -0.0557  0.0730
  443loPI   C5A 7083  11.453   3.824   8.937 -0.2765  0.0329  0.0064
  443loPI   C6A 7084  11.267   3.527   8.880  0.0706 -0.3461  0.2263
  443loPI   C1B 7085  11.311   4.805  10.693 -0.4940  0.1127 -0.0522
  443loPI   C2B 7086  11.233   4.747  10.192  0.1079  0.2117 -0.1895
  443loPI   C3B 7087  11.216   4.660   9.743  0.1861  0.1712  0.0223
  443loPI   C4B 7088  11.150   4.590   9.316 -0.2315  0.1706 -0.0173
  444loPI    C1 7089   2.986   8.860  11.794  0.3255 -0.0501 -0.0723
  444loPI    C2 7090   2.743   9.060  12.041  0.1205 -0.0233 -0.2917
  444loPI    C3 7091   2.907   8.715  12.158 -0.1342 -0.1119 -0.1902
  444loPI   PO4 7092   2.801   8.933  11.560  0.3156 -0.1539  0.0207
  444loPI   GL1 7093   3.004   9.210  11.295  0.0324  0.0964  0.0375
  444loPI   GL2 7094   3.188   8.970  11.309  0.0586  0.1550  0.0634
  444loPI   C1A 7095   2.876   9.352  10.829  0.1140 -0.1439 -0.1450
  444loPI   C2A 7096   2.797   9.286  10.426 -0.0653 -0.0205  0.1070
  444loPI   C3A 7097   2.886   9.292   9.993 -0.0451  0.1794  0.0515
  444loPI   C4A 7098   2.787   9.245   9.624  0.1860  0.0484  0.1033
  444loPI   C5A 7099   2.880   9.148   9.172  0.2842 -0.2196  0.1669
  444loPI   C6A 7100   2.829   8.956   8.761  0.1687  0.1971 -0.3797
  444loPI   C1B 7101   3.303   8.924  10.902 -0.1960  0.1615 -0.2036
  444loPI   C2B 7102   3.204   9.008  10.457  0.2753  0.1881 -0.0111
  444loPI   C3B 7103   3.207   8.903  10.050 -0.1121  0.1093  0.2498
  444loPI   C4B 7104   3.207   8.745   9.672 -0.0955  0.0117  0.1071
  445loPI    C1 7105   7.013  14.011  11.791  0.0478 -0.0319 -0.0645
  445loPI    C2 7106   6.783  14.112  12.103  0.2533  0.4345 -0.0555
  445loPI    C3 7107   7.174  14.044  12.156  0.1476 -0.2740 -0.0849
  445loPI   PO4 7108   6.831  14.029  11.603 -0.0327  0.2546 -0.0093
  445loPI   GL1 7109   6.942  14.051  11.205 -0.0779  0.3094 -0.4770
  445loPI   GL2 7110   6.776  13.755  11.121 -0.0350 -0.2494  0.1239
  445loPI   C1A 7111   7.058  14.063  10.762 -0.0024 -0.2316 -0.0403
  445loPI   C2A 7112   7.071  14.051  10.303 -0.1300  0.2017 -0.2709
  445loPI   C3A 7113   7.008  14.018   9.935 -0.2400  0.1613  0.1145
  445loPI   C4A 7114   6.992  14.048   9.603  0.1476  0.1161  0.3223
  445loPI   C5A 7115   6.958  13.935   9.108  0.0593  0.0251  0.0950
  445loPI   C6A 7116   6.853  14.097   8.814 -0.1983 -0.2778  0.1820
  445loPI   C1B 7117   6.901  13.584  10.821 -0.1752 -0.3439 -0.4592
  445loPI   C2B 7118   6.894  13.597  10.465  0.1231  0.2353 -0.1404
  445loPI   C3B 7119   6.800  13.549  10.001 -0.1264 -0.2000  0.0156
  445loPI   C4B 7120   6.767  13.554   9.581 -0.3538 -0.2004  0.1459
  446loPI    C1 7121   2.939  12.700  11.562  0.2268  0.0933  0.3857
  446loPI    C2 7122   3.105  12.400  11.769  0.0312 -0.0097  0.3959
  446loPI    C3 7123   2.759  12.344  11.577  0.1265  0.1336  0.1765
  446loPI   PO4 7124   3.024  12.752  11.409 -0.0486  0.2114 -0.2933
  446loPI   GL1 7125   3.080  12.582  10.974  0.1499  0.0805 -0.3625
  446loPI   GL2 7126   2.679  12.551  11.061 -0.2034  0.0589  0.1483
  446loPI   C1A 7127   3.084  12.500  10.602  0.0192 -0.2308  0.2408
  446loPI   C2A 7128   3.162  12.465  10.116  0.1395 -0.3531 -0.0913
  446loPI   C3A 7129   3.091  12.520   9.684 -0.0911  0.0308 -0.3049
  446loPI   C4A 7130   3.029  12.420   9.216 -0.2180  0.1071 -0.2829
  446loPI   C5A 7131   3.003  12.406   8.763 -0.0293 -0.2072  0.3311
  446loPI   C6A 7132   2.716  12.535   8.463 -0.0514 -0.2820 -0.0606
  446loPI   C1B 7133   2.643  12.389  10.636  0.1915  0.0124  0.1255
  446loPI   C2B 7134   2.673  12.392  10.198  0.2265  0.2410 -0.0731
  446loPI   C3B 7135   2.568  12.324   9.711  0.0452  0.0924 -0.1538
  446loPI   C4B 7136   2.480  12.264   9.262 -0.0219 -0.0250 -0.1198
  447loPI    C1 7137   0.359  15.615  11.835 -0.0888 -0.0374 -0.2131
  447loPI    C2 7138   0.112  15.304  11.886 -0.0315 -0.0470  0.0152
  447loPI    C3 7139   0.427  15.352  12.128  0.0071  0.1438 -0.0707
  447loPI   PO4 7140   0.482  15.620  11.565  0.1490  0.2395  0.2313
  447loPI   GL1 7141   0.567  15.437  11.163  0.0082 -0.0883  0.2030
  447loPI   GL2 7142   0.890  15.440  10.962  0.2649  0.0207 -0.0346
  447loPI   C1A 7143   0.444  15.684  10.795 -0.1057  0.0945 -0.0140
  447loPI   C2A 7144   0.496  15.685  10.349  0.1070 -0.3024  0.0819
  447loPI   C3A 7145   0.398  15.651   9.926 -0.1211 -0.0561  0.2374
  447loPI   C4A 7146   0.370  15.540   9.457  0.2928 -0.3390 -0.0792
  447loPI   C5A 7147   0.334  15.520   9.026 -0.1939 -0.1164 -0.2677
  447loPI   C6A 7148   0.133  15.405   8.548  0.0196  0.0175 -0.0138
  447loPI   C1B 7149   0.769  15.319  10.537 -0.0448  0.2765  0.0145
  447loPI   C2B 7150   0.692  15.215  10.090  0.1160  0.0902  0.0423
  447loPI   C3B 7151   0.791  15.279   9.660  0.2793 -0.0466  0.1974
  447loPI   C4B 7152   0.694  15.185   9.243 -0.0730  0.2218 -0.0797
  448loPI    C1 7153  12.280   0.840  11.909  0.1371  0.1137 -0.0290
  448loPI    C2 7154  12.195   1.230  11.942 -0.0290  0.0855 -0.1118
  448loPI    C3 7155  12.305   1.021  12.265 -0.0023  0.1864 -0.0554
  448loPI   PO4 7156  12.397   0.849  11.700 -0.0810 -0.2963 -0.2593
  448loPI   GL1 7157  12.514   0.780  11.234 -0.1419  0.0066  0.1364
  448loPI   GL2 7158  12.600   1.092  11.083 -0.3460 -0.0981  0.1740
  448loPI   C1A 7159  12.353   0.752  10.794  0.1233  0.2137  0.2405
  448loPI   C2A 7160  12.285   0.836  10.399  0.0594  0.2332  0.0036
  448loPI   C3A 7161  12.238   0.789   9.952  0.0739 -0.0468  0.2669
  448loPI   C4A 7162  12.249   0.728   9.587 -0.2612  0.2452  0.2422
  448loPI   C5A 7163  12.211   0.681   9.118 -0.2595 -0.0846 -0.0201
  448loPI   C6A 7164  12.127   0.778   8.735 -0.0113 -0.4820  0.1365
  448loPI   C1B 7165  12.936   1.294  10.777  0.1696 -0.3844 -0.0558
  448loPI   C2B 7166  12.952   1.293  10.317 -0.0056  0.1018 -0.0804
  448loPI   C3B 7167  12.942   1.260   9.880 -0.1764 -0.1524 -0.2093
  448loPI   C4B 7168  12.845   1.378   9.398  0.1863 -0.2837  0.1169
  449loPI    C1 7169  14.825   1.701  11.832  0.1641  0.1303 -0.0479
  449loPI    C2 7170  14.952   1.686  12.211 -0.2104 -0.1470  0.0724
  449loPI    C3 7171  14.573   1.783  12.131 -0.1543 -0.1666 -0.2280
  449loPI   PO4 7172  15.017   1.852  11.708 -0.0275 -0.2620 -0.0442
  449loPI   GL1 7173  15.049   1.990  11.313  0.4101  0.1139  0.2209
  449loPI   GL2 7174  15.138   2.231  11.031 -0.1602  0.2807 -0.0873
  449loPI   C1A 7175  14.978   1.760  10.871 -0.1025 -0.1575  0.3519
  449loPI   C2A 7176  14.920   1.796  10.407  0.3566 -0.0253 -0.1090
  449loPI   C3A 7177  14.931   1.786   9.977 -0.2779  0.3209  0.2021
  449loPI   C4A 7178  14.929   1.685   9.446 -0.0872  0.0493  0.2438
  449loPI   C5A 7179  14.648   1.768   9.071 -0.0369 -0.1456  0.1527
  449loPI   C6A 7180  14.547   1.796   8.735 -0.1481 -0.0846  0.1298
  449loPI   C1B 7181  15.153   2.321  10.570 -0.1485 -0.2613 -0.2086
  449loPI   C2B 7182  15.094   2.229  10.146  0.0665 -0.0983 -0.0182
  449loPI   C3B 7183  15.043   2.169   9.697  0.0526 -0.1877  0.2672
  449loPI   C4B 7184  14.922   2.180   9.234  0.1980  0.3565  0.0384
  450loPI    C1 7185  16.929   1.450  11.735 -0.0785 -0.0603 -0.1282
  450loPI    C2 7186  16.895   1.815  11.897  0.2030 -0.1054  0.0392
  450loPI    C3 7187  16.838   1.490  12.123 -0.0243 -0.1672 -0.1043
  450loPI   PO4 7188  16.740   1.460  11.439  0.0811  0.0106  0.1292
  450loPI   GL1 7189  16.675   1.561  11.097  0.3788  0.1166 -0.1711
  450loPI   GL2 7190  16.645   1.226  10.909  0.1285 -0.0362 -0.0106
  450loPI   C1A 7191  16.693   1.740  10.609  0.0649 -0.1758 -0.4181
  450loPI   C2A 7192  16.802   1.714  10.145  0.1260  0.1410 -0.2323
  450loPI   C3A 7193  16.839   1.590   9.749 -0.1346  0.3195 -0.2985
  450loPI   C4A 7194  16.690   1.551   9.272 -0.0059 -0.1502 -0.1584
  450loPI   C5A 7195  16.549   1.417   8.872  0.1991  0.1377 -0.1187
  450loPI   C6A 7196  16.812   1.202   8.623  0.1806 -0.1936 -0.0291
  450loPI   C1B 7197  16.527   1.218  10.529 -0.0958 -0.1407  0.4199
  450loPI   C2B 7198  16.572   1.242  10.095 -0.3472 -0.0648  0.1526
  450loPI   C3B 7199  16.540   1.227   9.624 -0.2032  0.3053  0.1512
  450loPI   C4B 7200  16.566   1.041   9.206 -0.2121  0.2131  0.0779
  451loPI    C1 7201  16.364   3.928  12.017  0.0458 -0.1321  0.0370
  451loPI    C2 7202  16.529   3.607  12.190 -0.0002 -0.1393  0.0676
  451loPI    C3 7203  16.132   3.630  12.149  0.0159 -0.1782 -0.1182
  451loPI   PO4 7204  16.498   3.835  11.732 -0.0182  0.2088  0.0901
  451loPI   GL1 7205  16.358   3.934  11.334 -0.0307 -0.0075 -0.2313
  451loPI   GL2 7206  16.243   4.239  11.176 -0.4147 -0.0016  0.1174
  451loPI   C1A 7207  16.135   3.893  10.902 -0.0209  0.0170  0.1112
  451loPI   C2A 7208  16.107   3.866  10.501 -0.0603  0.0430 -0.0404
  451loPI   C3A 7209  16.064   3.824  10.072  0.0169 -0.3380 -0.0331
  451loPI   C4A 7210  16.234   3.902   9.665 -0.0377 -0.0757  0.0128
  451loPI   C5A 7211  16.088   3.693   9.339 -0.0603 -0.2143  0.0947
  451loPI   C6A 7212  15.760   3.770   9.072 -0.0433 -0.1393 -0.1873
  451loPI   C1B 7213  16.291   4.334  10.748  0.0679  0.0057 -0.2842
  451loPI   C2B 7214  16.285   4.282  10.356  0.1393  0.2787 -0.0156
  451loPI   C3B 7215  16.315   4.288   9.900  0.0026 -0.2964  0.2392
  451loPI   C4B 7216  16.266   4.351   9.493 -0.0471 -0.0256 -0.1666
  452loPI    C1 7217   5.127  13.636  11.531  0.0573  0.1572  0.1358
  452loPI    C2 7218   5.203  13.449  11.876 -0.1658 -0.1392  0.0286
  452loPI    C3 7219   5.441  13.746  11.754  0.0477 -0.1833  0.3247
  452loPI   PO4 7220   5.093  13.340  11.388  0.0452 -0.2313 -0.1663
  452loPI   GL1 7221   5.031  13.298  10.944 -0.2727 -0.1423  0.1771
  452loPI   GL2 7222   5.356  13.382  10.973 -0.1345 -0.3502 -0.0648
  452loPI   C1A 7223   4.851  13.193  10.522 -0.0095 -0.1210 -0.1195
  452loPI   C2A 7224   4.793  13.181  10.122  0.0724  0.1719 -0.0847
  452loPI   C3A 7225   4.742  13.158   9.692  0.0402 -0.0943  0.2598
  452loPI   C4A 7226   4.757  13.161   9.258 -0.0598 -0.0799 -0.1312
  452loPI   C5A 7227   4.974  13.133   8.837 -0.2655 -0.1737  0.0986
  452loPI   C6A 7228   5.020  12.751   8.503  0.1430 -0.0886 -0.0323
  452loPI   C1B 7229   5.389  13.361  10.582 -0.0568 -0.1018 -0.1188
  452loPI   C2B 7230   5.292  13.262  10.111  0.1106 -0.0174 -0.2802
  452loPI   C3B 7231   5.234  13.282   9.702  0.0172 -0.0430  0.2415
  452loPI   C4B 7232   5.207  13.301   9.318 -0.1577 -0.1444 -0.0006
  453loPI    C1 7233   6.724  11.041  11.821  0.0850  0.1064 -0.1259
  453loPI    C2 7234   6.473  10.775  11.983  0.0966  0.1800  0.0145
  453loPI    C3 7235   6.406  11.167  12.029  0.1412  0.2010 -0.0965
  453loPI   PO4 7236   6.745  10.926  11.525  0.2478  0.1482  0.0187
  453loPI   GL1 7237   6.591  10.883  11.155  0.0192 -0.0652 -0.0325
  453loPI   GL2 7238   6.193  10.856  11.076  0.1420  0.1026 -0.2174
  453loPI   C1A 7239   6.745  10.879  10.766 -0.2417  0.0612 -0.0028
  453loPI   C2A 7240   6.797  10.819  10.329 -0.1574 -0.1420 -0.0653
  453loPI   C3A 7241   6.689  10.771   9.929  0.0089 -0.2032  0.0278
  453loPI   C4A 7242   6.774  10.972   9.555 -0.0334  0.0344 -0.0097
  453loPI   C5A 7243   6.898  11.142   9.170  0.0633  0.0807  0.1746
  453loPI   C6A 7244   7.149  11.045   8.763  0.4310 -0.2346 -0.0026
  453loPI   C1B 7245   6.194  10.762  10.672 -0.1499  0.1909 -0.2005
  453loPI   C2B 7246   6.320  10.739  10.260  0.0531  0.1190  0.0044
  453loPI   C3B 7247   6.174  10.797   9.938 -0.0318  0.2371  0.0522
  453loPI   C4B 7248   6.314  10.723   9.522 -0.1700 -0.1277  0.0952
  454loPI    C1 7249   3.966  12.320  11.378 -0.0717  0.0809 -0.1020
  454loPI    C2 7250   3.917  12.709  11.455 -0.1203  0.0789 -0.1224
  454loPI    C3 7251   3.782  12.435  11.714 -0.1156  0.0749 -0.1241
  454loPI   PO4 7252   4.015  12.301  11.120  0.2862 -0.0129  0.1414
  454loPI   GL1 7253   4.024  12.159  10.785 -0.2255 -0.3156 -0.0654
  454loPI   GL2 7254   4.199  11.876  10.763 -0.1960  0.1735  0.1075
  454loPI   C1A 7255   3.862  12.150  10.420 -0.1592  0.0371  0.2547
  454loPI   C2A 7256   3.913  12.180  10.003  0.2544  0.2205 -0.0553
  454loPI   C3A 7257   3.898  12.179   9.554  0.1194 -0.2442 -0.1117
  454loPI   C4A 7258   3.934  12.118   9.125  0.0524  0.1881  0.1457
  454loPI   C5A 7259   3.893  11.934   8.776  0.0470 -0.3249 -0.4288
  454loPI   C6A 7260   3.687  11.566   8.790 -0.1542  0.1917  0.3577
  454loPI   C1B 7261   4.224  11.785  10.324 -0.0829  0.0304 -0.2370
  454loPI   C2B 7262   4.283  11.701   9.905 -0.1589  0.0884  0.1024
  454loPI   C3B 7263   4.220  11.737   9.476 -0.0412 -0.0874  0.1638
  454loPI   C4B 7264   4.212  11.694   9.035  0.1089 -0.2787 -0.0040
  455loPI    C1 7265   2.727   5.059  11.417  0.1243 -0.2253  0.0645
  455loPI    C2 7266   2.941   5.073  11.755 -0.0135  0.1447  0.1420
  455loPI    C3 7267   2.560   4.950  11.764 -0.1845  0.6576  0.2199
  455loPI   PO4 7268   3.008   4.997  11.250 -0.0170  0.4477  0.0512
  455loPI   GL1 7269   2.935   4.876  10.849  0.1979 -0.1204  0.1633
  455loPI   GL2 7270   2.594   4.980  10.873  0.1588  0.1749  0.0477
  455loPI   C1A 7271   2.805   4.913  10.408 -0.0771  0.2705 -0.1418
  455loPI   C2A 7272   2.869   5.020   9.960 -0.0006  0.1964 -0.1667
  455loPI   C3A 7273   2.856   4.822   9.512 -0.0007  0.1994  0.1624
  455loPI   C4A 7274   2.910   4.920   9.067  0.0558  0.1429  0.4124
  455loPI   C5A 7275   3.180   4.776   8.679 -0.0003  0.3159 -0.0973
  455loPI   C6A 7276   3.599   4.947   8.515 -0.2486  0.0367  0.1526
  455loPI   C1B 7277   2.329   4.978  10.498 -0.0000 -0.2717 -0.2364
  455loPI   C2B 7278   2.397   4.954  10.033 -0.3231 -0.0053  0.0951
  455loPI   C3B 7279   2.392   4.805   9.669  0.2456 -0.1514 -0.1315
  455loPI   C4B 7280   2.329   4.736   9.190  0.0619  0.1338 -0.1628
  456loPI    C1 7281   3.854   6.015  11.981 -0.1990 -0.0414  0.1180
  456loPI    C2 7282   4.043   5.690  11.843 -0.3626 -0.0850 -0.0067
  456loPI    C3 7283   3.703   5.651  12.050 -0.3625  0.0048  0.0112
  456loPI   PO4 7284   3.910   6.139  11.659  0.0133  0.0709 -0.0784
  456loPI   GL1 7285   3.969   6.021  11.193  0.2192  0.0327 -0.0978
  456loPI   GL2 7286   3.847   6.268  11.044  0.1712 -0.0681  0.0574
  456loPI   C1A 7287   4.179   6.221  10.762 -0.1595  0.0209 -0.0866
  456loPI   C2A 7288   4.325   6.258  10.308  0.1248 -0.0225  0.1218
  456loPI   C3A 7289   4.180   6.189   9.902 -0.1318  0.0025 -0.1584
  456loPI   C4A 7290   4.223   6.166   9.498 -0.0774  0.0933 -0.2337
  456loPI   C5A 7291   4.270   6.163   9.020 -0.0348 -0.2868 -0.2424
  456loPI   C6A 7292   4.218   6.274   8.664  0.2133  0.1288  0.0513
  456loPI   C1B 7293   3.643   5.992  10.687 -0.0270  0.1095  0.3604
  456loPI   C2B 7294   3.776   6.029  10.257  0.2984  0.1906  0.3718
  456loPI   C3B 7295   3.731   6.047   9.749  0.0121 -0.1467 -0.1292
  456loPI   C4B 7296   3.714   6.098   9.411 -0.2469  0.1140  0.2465
  457loPI    C1 7297   6.618   4.448  11.519 -0.0535 -0.0317  0.0505
  457loPI    C2 7298   6.952   4.385  11.730  0.0018 -0.3085 -0.1146
  457loPI    C3 7299   6.595   4.323  11.899  0.0320 -0.0451  0.0515
  457loPI   PO4 7300   6.634   4.448  11.320 -0.2724 -0.2499  0.1462
  457loPI   GL1 7301   6.695   4.344  10.912  0.1613 -0.0738  0.0442
  457loPI   GL2 7302   6.364   4.386  10.780  0.0760  0.1108  0.1283
  457loPI   C1A 7303   6.927   4.449  10.557 -0.1535 -0.2829  0.1641
  457loPI   C2A 7304   6.956   4.439  10.124  0.3354  0.1945  0.0276
  457loPI   C3A 7305   6.876   4.344   9.734  0.0570 -0.0989 -0.1145
  457loPI   C4A 7306   6.916   4.402   9.345 -0.1789 -0.0102 -0.0200
  457loPI   C5A 7307   6.871   4.340   8.910 -0.1159  0.4221 -0.2390
  457loPI   C6A 7308   6.839   4.029   8.592  0.0809 -0.1575  0.2419
  457loPI   C1B 7309   6.378   4.357  10.370  0.1916  0.0671  0.0552
  457loPI   C2B 7310   6.409   4.272   9.913 -0.1581 -0.1378 -0.1117
  457loPI   C3B 7311   6.412   4.287   9.451 -0.1176 -0.2681 -0.2026
  457loPI   C4B 7312   6.375   4.288   9.033 -0.0190 -0.0683 -0.1747
  458loPI    C1 7313  15.665   8.294  11.656  0.2622 -0.1603 -0.0272
  458loPI    C2 7314  15.833   8.626  11.801 -0.0499 -0.0040 -0.0146
  458loPI    C3 7315  15.837   8.290  12.017  0.0383  0.0604  0.0853
  458loPI   PO4 7316  15.740   8.248  11.414 -0.0553  0.0427 -0.0387
  458loPI   GL1 7317  15.698   8.142  11.033 -0.4491 -0.1794 -0.0531
  458loPI   GL2 7318  15.751   8.440  10.967  0.2517 -0.1555 -0.2420
  458loPI   C1A 7319  15.680   7.861  10.561 -0.0786 -0.1177  0.3593
  458loPI   C2A 7320  15.637   7.868  10.046  0.0176  0.0489  0.1240
  458loPI   C3A 7321  15.612   7.902   9.692 -0.0258 -0.1062 -0.1706
  458loPI   C4A 7322  15.633   7.834   9.280  0.1286 -0.1790  0.0633
  458loPI   C5A 7323  15.746   7.747   8.889  0.1702 -0.0265 -0.2210
  458loPI   C6A 7324  15.687   7.642   8.508 -0.2140  0.1642 -0.1592
  458loPI   C1B 7325  15.923   8.362  10.490 -0.1285  0.0473  0.0858
  458loPI   C2B 7326  15.842   8.293  10.032  0.0429 -0.1720  0.1569
  458loPI   C3B 7327  15.792   8.320   9.521  0.5055  0.1272  0.1244
  458loPI   C4B 7328  15.783   8.289   9.065 -0.2761  0.0173 -0.1114
  459loPI    C1 7329  16.845  13.290  11.540  0.1954 -0.1069  0.1016
  459loPI    C2 7330  17.184  13.369  11.737  0.1792  0.2465 -0.0057
  459loPI    C3 7331  16.831  13.445  11.909  0.1556  0.0594  0.0311
  459loPI   PO4 7332  16.850  13.347  11.289 -0.0070 -0.2357 -0.1959
  459loPI   GL1 7333  16.706  13.195  10.926 -0.0915 -0.0804 -0.2993
  459loPI   GL2 7334  16.839  12.885  10.819 -0.1820  0.4952  0.1334
  459loPI   C1A 7335  16.556  13.111  10.468 -0.0748  0.4096  0.4140
  459loPI   C2A 7336  16.528  13.167  10.031 -0.0932  0.0394 -0.3376
  459loPI   C3A 7337  16.616  13.061   9.600  0.0292 -0.1115 -0.3339
  459loPI   C4A 7338  16.595  13.111   9.171 -0.0465  0.0775 -0.2467
  459loPI   C5A 7339  16.642  12.843   8.825  0.2266  0.1107 -0.0010
  459loPI   C6A 7340  16.497  12.839   8.399 -0.1030 -0.0806 -0.2021
  459loPI   C1B 7341  16.843  12.723  10.290  0.2604 -0.0040 -0.1020
  459loPI   C2B 7342  16.866  12.754   9.894  0.1224 -0.0265 -0.0668
  459loPI   C3B 7343  16.883  12.584   9.496  0.2193  0.0121  0.0868
  459loPI   C4B 7344  16.948  12.556   9.123  0.1235  0.0174 -0.0999
  460loPI    C1 7345   4.404  13.083  12.021 -0.3245  0.0070  0.1920
  460loPI    C2 7346   4.325  12.763  12.248 -0.0886 -0.0518  0.1937
  460loPI    C3 7347   4.193  13.123  12.358 -0.1776 -0.1166  0.3005
  460loPI   PO4 7348   4.292  13.037  11.649 -0.2411  0.1061  0.0494
  460loPI   GL1 7349   4.618  13.141  11.248 -0.1204 -0.1548 -0.1196
  460loPI   GL2 7350   4.646  12.855  10.954 -0.0443 -0.0308  0.1028
  460loPI   C1A 7351   4.437  13.270  10.810  0.2464 -0.0451  0.1622
  460loPI   C2A 7352   4.277  13.148  10.368  0.1391  0.2121 -0.0553
  460loPI   C3A 7353   4.226  13.156   9.921 -0.0422  0.1018 -0.1982
  460loPI   C4A 7354   4.287  13.039   9.483 -0.1388 -0.3373  0.1949
  460loPI   C5A 7355   4.191  13.044   9.173  0.0193  0.1817 -0.2496
  460loPI   C6A 7356   4.102  13.324   8.803  0.0090  0.0215 -0.0321
  460loPI   C1B 7357   4.630  12.747  10.565  0.1624  0.0780 -0.1805
  460loPI   C2B 7358   4.576  12.733  10.142  0.0438 -0.0897 -0.1968
  460loPI   C3B 7359   4.604  12.697   9.733  0.2186 -0.0345  0.0559
  460loPI   C4B 7360   4.593  12.685   9.284  0.1271 -0.2698  0.1217
  461loPI    C1 7361   9.045   7.280  11.975  0.0911 -0.0683 -0.0576
  461loPI    C2 7362   8.917   6.949  12.159  0.2621 -0.1634 -0.1077
  461loPI    C3 7363   9.088   7.241  12.371  0.1524 -0.1261 -0.0698
  461loPI   PO4 7364   9.038   7.224  11.713 -0.2368  0.0693 -0.1849
  461loPI   GL1 7365   9.134   7.039  11.372  0.1852  0.0489  0.1689
  461loPI   GL2 7366   8.802   6.977  11.182  0.1234  0.2132 -0.0031
  461loPI   C1A 7367   9.280   7.139  11.033  0.5005  0.1039  0.3240
  461loPI   C2A 7368   9.253   7.195  10.552  0.0861  0.1796  0.0886
  461loPI   C3A 7369   9.233   7.194  10.149 -0.0083 -0.0230  0.1739
  461loPI   C4A 7370   9.308   7.246   9.797 -0.1376  0.2209 -0.1765
  461loPI   C5A 7371   9.384   7.131   9.396  0.0254 -0.1774  0.3078
  461loPI   C6A 7372   9.180   7.332   8.959  0.0145 -0.2748  0.0738
  461loPI   C1B 7373   8.843   6.944  10.717  0.1466 -0.2498 -0.2645
  461loPI   C2B 7374   8.815   7.024  10.331  0.3617 -0.3004 -0.0046
  461loPI   C3B 7375   8.824   7.053   9.898 -0.0597  0.0193 -0.0113
  461loPI   C4B 7376   8.859   7.096   9.428  0.1146  0.2279  0.1139
  462loPI    C1 7377   1.201   5.078  11.870  0.0755 -0.0875 -0.0463
  462loPI    C2 7378   0.863   5.282  11.936 -0.0477 -0.3447  0.1361
  462loPI    C3 7379   1.187   5.353  12.159  0.0451 -0.0456 -0.0873
  462loPI   PO4 7380   1.331   5.145  11.619  0.2880  0.0685  0.0029
  462loPI   GL1 7381   1.424   5.019  11.173 -0.2794 -0.1113  0.1596
  462loPI   GL2 7382   1.357   5.365  11.161  0.0663 -0.1656 -0.1104
  462loPI   C1A 7383   1.419   4.696  10.853 -0.0484 -0.1591  0.0162
  462loPI   C2A 7384   1.415   4.722  10.447 -0.2615 -0.2167 -0.2233
  462loPI   C3A 7385   1.343   4.643  10.080 -0.0296 -0.3538 -0.0515
  462loPI   C4A 7386   1.346   4.703   9.648 -0.0197 -0.0833  0.0342
  462loPI   C5A 7387   1.268   4.686   9.190 -0.0232  0.3315  0.4113
  462loPI   C6A 7388   1.239   4.814   8.714  0.0906  0.4941  0.0243
  462loPI   C1B 7389   1.194   5.589  10.844 -0.1967  0.2818 -0.1402
  462loPI   C2B 7390   1.208   5.565  10.350  0.1841  0.2294  0.3287
  462loPI   C3B 7391   1.221   5.626   9.922  0.2546 -0.2042 -0.1071
  462loPI   C4B 7392   1.160   5.595   9.501  0.0511  0.2061 -0.4077
  463loPI    C1 7393  13.773  10.975  11.724  0.2401  0.0848 -0.1252
  463loPI    C2 7394  13.924  10.610  11.790  0.1221  0.0834  0.1491
  463loPI    C3 7395  13.639  10.755  12.030 -0.0075  0.2585 -0.1064
  463loPI   PO4 7396  13.933  11.072  11.401 -0.0528  0.3138  0.2996
  463loPI   GL1 7397  14.053  11.108  11.013 -0.1142 -0.1101 -0.1336
  463loPI   GL2 7398  13.777  11.221  10.938 -0.1287 -0.0408  0.0408
  463loPI   C1A 7399  14.060  11.227  10.566  0.3290  0.2051 -0.2991
  463loPI   C2A 7400  14.022  11.305  10.114 -0.1370  0.4426  0.0386
  463loPI   C3A 7401  13.973  11.191   9.763 -0.0669  0.1179  0.2142
  463loPI   C4A 7402  13.889  11.171   9.287  0.0419 -0.3598 -0.1916
  463loPI   C5A 7403  13.967  10.985   9.021 -0.0471 -0.2987 -0.3361
  463loPI   C6A 7404  14.027  10.918   8.666 -0.0622 -0.2109 -0.0988
  463loPI   C1B 7405  13.541  11.249  10.522  0.1469 -0.0421  0.2912
  463loPI   C2B 7406  13.452  11.220  10.071 -0.0890  0.2181 -0.0352
  463loPI   C3B 7407  13.413  11.115   9.641  0.0888  0.1798 -0.2854
  463loPI   C4B 7408  13.357  11.058   9.225 -0.0321 -0.2438 -0.1645
  464loPI    C1 7409   8.529   7.310  11.710  0.0221  0.0809 -0.0374
  464loPI    C2 7410   8.341   7.033  11.929  0.0803 -0.0345 -0.1323
  464loPI    C3 7411   8.558   7.317  12.108 -0.1277  0.0587 -0.0255
  464loPI   PO4 7412   8.560   7.274  11.449  0.1636 -0.1680 -0.0579
  464loPI   GL1 7413   8.275   7.133  11.170 -0.3493 -0.0230 -0.2017
  464loPI   GL2 7414   8.475   7.370  10.950  0.0732  0.1395  0.1230
  464loPI   C1A 7415   8.262   6.885  10.829  0.0049 -0.0254  0.2304
  464loPI   C2A 7416   8.284   6.929  10.391 -0.0692 -0.0704  0.1407
  464loPI   C3A 7417   8.297   6.876   9.936  0.1679 -0.1353 -0.1121
  464loPI   C4A 7418   8.305   6.936   9.485 -0.0256 -0.2652  0.0729
  464loPI   C5A 7419   8.415   7.063   9.041  0.0355  0.1977 -0.3766
  464loPI   C6A 7420   8.264   7.345   8.731 -0.0515  0.0932 -0.2074
  464loPI   C1B 7421   8.480   7.317  10.577  0.1708  0.0443 -0.1679
  464loPI   C2B 7422   8.491   7.379  10.125 -0.1314  0.4186  0.3035
  464loPI   C3B 7423   8.480   7.473   9.764  0.2905  0.1688 -0.1377
  464loPI   C4B 7424   8.455   7.414   9.378 -0.3787 -0.0155 -0.1469
  465loPI    C1 7425   4.839   6.179  11.804  0.0206  0.0509 -0.0842
  465loPI    C2 7426   5.084   6.147  12.118  0.1027 -0.0918 -0.1616
  465loPI    C3 7427   4.708   6.273  12.170  0.0710 -0.2561  0.0154
  465loPI   PO4 7428   4.964   6.062  11.607 -0.3153 -0.1964 -0.0265
  465loPI   GL1 7429   4.860   5.911  11.170  0.3134  0.3471  0.3242
  465loPI   GL2 7430   4.579   5.943  11.034 -0.0253 -0.2242 -0.0125
  465loPI   C1A 7431   5.122   6.013  10.757  0.1288  0.2132  0.2271
  465loPI   C2A 7432   5.062   5.816  10.375  0.0799  0.1885 -0.1012
  465loPI   C3A 7433   5.077   5.895   9.902 -0.1768  0.2685 -0.1693
  465loPI   C4A 7434   5.114   5.878   9.463  0.0235  0.0010  0.2721
  465loPI   C5A 7435   4.995   5.878   8.981  0.0472 -0.0975  0.0318
  465loPI   C6A 7436   4.696   5.987   8.608  0.2949 -0.2050  0.0201
  465loPI   C1B 7437   4.651   5.894  10.671  0.2767  0.0940  0.0382
  465loPI   C2B 7438   4.572   5.762  10.314 -0.0202  0.1179  0.0274
  465loPI   C3B 7439   4.562   5.728   9.878 -0.1309  0.1041  0.0206
  465loPI   C4B 7440   4.627   5.822   9.403 -0.3152 -0.0014  0.2445
  466loPI    C1 7441  10.444   4.716  11.690 -0.0391 -0.2175 -0.1267
  466loPI    C2 7442  10.155   4.702  11.966  0.1368 -0.0867  0.0668
  466loPI    C3 7443  10.229   4.382  11.738 -0.1484 -0.1266  0.0260
  466loPI   PO4 7444  10.430   4.902  11.561 -0.3601 -0.0171  0.1949
  466loPI   GL1 7445  10.497   5.122  11.244  0.1014 -0.0999 -0.1156
  466loPI   GL2 7446  10.166   5.435  11.119  0.2350 -0.0650 -0.1112
  466loPI   C1A 7447  10.425   5.043  10.801 -0.0813 -0.0177 -0.0202
  466loPI   C2A 7448  10.492   5.134  10.339  0.1759  0.1487 -0.0644
  466loPI   C3A 7449  10.432   5.051   9.911  0.0779  0.1973  0.0980
  466loPI   C4A 7450  10.437   4.956   9.444  0.1850  0.2098  0.2586
  466loPI   C5A 7451  10.535   5.320   9.040 -0.0746  0.0997  0.0369
  466loPI   C6A 7452  10.550   5.188   8.596  0.0847  0.1094 -0.0726
  466loPI   C1B 7453  10.163   5.500  10.672  0.0263 -0.0563 -0.0719
  466loPI   C2B 7454  10.140   5.460  10.201  0.2749  0.1048  0.0865
  466loPI   C3B 7455  10.151   5.423   9.730  0.1496  0.1396 -0.0495
  466loPI   C4B 7456  10.097   5.321   9.381 -0.1675  0.1275 -0.2936
  467loPI    C1 7457   8.219   2.593  11.621 -0.0485  0.0630  0.1434
  467loPI    C2 7458   8.586   2.748  11.654 -0.0010 -0.0156 -0.0077
  467loPI    C3 7459   8.451   2.494  11.932 -0.0093  0.1509  0.1427
  467loPI   PO4 7460   8.148   2.599  11.425  0.0098 -0.0838  0.0830
  467loPI   GL1 7461   8.345   2.617  11.086 -0.0411 -0.1312 -0.0416
  467loPI   GL2 7462   8.194   2.880  10.900 -0.1235  0.0076  0.1510
  467loPI   C1A 7463   8.626   2.418  10.750  0.2776  0.1414  0.2580
  467loPI   C2A 7464   8.529   2.415  10.279 -0.1177  0.0692  0.2435
  467loPI   C3A 7465   8.445   2.326   9.884  0.2642  0.1982 -0.0742
  467loPI   C4A 7466   8.482   2.370   9.511  0.1085  0.1090  0.1790
  467loPI   C5A 7467   8.456   2.309   9.088 -0.0168 -0.1242  0.1829
  467loPI   C6A 7468   8.342   2.128   8.742  0.4206  0.0631 -0.0776
  467loPI   C1B 7469   8.274   2.791  10.459  0.0450 -0.1097  0.1041
  467loPI   C2B 7470   8.278   2.801  10.043 -0.2001 -0.3662 -0.0549
  467loPI   C3B 7471   8.160   2.746   9.594  0.1289  0.1105  0.0099
  467loPI   C4B 7472   8.142   2.654   9.191  0.2216  0.2112  0.2465
  468loPI    C1 7473  12.735   8.181  11.691 -0.1081 -0.0853 -0.1651
  468loPI    C2 7474  12.453   8.008  11.916 -0.0643  0.0066 -0.0386
  468loPI    C3 7475  12.783   8.157  12.088 -0.0653  0.1449 -0.1550
  468loPI   PO4 7476  12.800   8.012  11.511 -0.3797 -0.0085 -0.1995
  468loPI   GL1 7477  12.810   8.023  11.133 -0.0697 -0.0079  0.1505
  468loPI   GL2 7478  12.750   7.818  10.972 -0.1985  0.0496  0.2064
  468loPI   C1A 7479  12.951   8.296  10.761  0.1215 -0.1849  0.2366
  468loPI   C2A 7480  12.905   8.307  10.276 -0.0554 -0.1649  0.1627
  468loPI   C3A 7481  13.050   8.244   9.862 -0.0867 -0.0533  0.4734
  468loPI   C4A 7482  13.035   8.209   9.376  0.1464  0.0744  0.0456
  468loPI   C5A 7483  12.767   8.274   9.018 -0.0017  0.1248  0.0317
  468loPI   C6A 7484  12.537   7.942   8.772  0.1980 -0.2094 -0.0417
  468loPI   C1B 7485  12.723   7.789  10.573  0.0094  0.2078 -0.0177
  468loPI   C2B 7486  12.786   7.827  10.213  0.0954  0.0028  0.1372
  468loPI   C3B 7487  12.849   7.727   9.737 -0.2524  0.0934  0.4824
  468loPI   C4B 7488  12.822   7.680   9.280  0.2511  0.2910 -0.0337
  469loPI    C1 7489   9.536  11.606  12.125 -0.0621  0.0048  0.1408
  469loPI    C2 7490   9.219  11.826  12.020 -0.0920 -0.1533 -0.1084
  469loPI    C3 7491   9.424  11.917  12.352 -0.4196 -0.0729  0.0766
  469loPI   PO4 7492   9.490  11.341  11.893 -0.0237  0.0690  0.2969
  469loPI   GL1 7493   9.421  11.152  11.547  0.2308  0.0197 -0.0667
  469loPI   GL2 7494   9.610  10.875  11.389  0.1300 -0.2388 -0.0614
  469loPI   C1A 7495   9.336  11.273  11.085  0.1530  0.0737 -0.1435
  469loPI   C2A 7496   9.364  11.361  10.638 -0.2413  0.2613  0.1434
  469loPI   C3A 7497   9.368  11.334  10.182  0.3098 -0.1771 -0.1950
  469loPI   C4A 7498   9.316  11.264   9.761 -0.1783  0.1390  0.0200
  469loPI   C5A 7499   9.341  11.281   9.223 -0.1408 -0.4810 -0.1273
  469loPI   C6A 7500   9.315  11.334   8.685 -0.1934 -0.2569 -0.1265
  469loPI   C1B 7501   9.692  10.849  10.977  0.0885  0.0307 -0.0837
  469loPI   C2B 7502   9.617  10.864  10.568  0.1700 -0.3100  0.1995
  469loPI   C3B 7503   9.643  10.879  10.136  0.0960 -0.0996 -0.2028
  469loPI   C4B 7504   9.666  10.796   9.583 -0.0552 -0.2954 -0.0524
  470loPI    C1 7505  14.873   3.347  11.872 -0.1066 -0.1218  0.1378
  470loPI    C2 7506  15.199   3.346  12.104 -0.1209 -0.4789  0.1630
  470loPI    C3 7507  14.841   3.425  12.263 -0.0468 -0.0463  0.1279
  470loPI   PO4 7508  14.965   3.378  11.636  0.0103  0.2068  0.2207
  470loPI   GL1 7509  14.875   3.412  11.271  0.0426 -0.0055  0.1164
  470loPI   GL2 7510  14.769   3.600  11.046  0.0812 -0.0200 -0.0477
  470loPI   C1A 7511  15.012   3.237  10.815 -0.0741 -0.1042 -0.2636
  470loPI   C2A 7512  14.925   3.221  10.431 -0.0778  0.1166 -0.0833
  470loPI   C3A 7513  14.926   3.163  10.011 -0.1253  0.0674 -0.1986
  470loPI   C4A 7514  14.974   3.128   9.623  0.1356  0.0541  0.0679
  470loPI   C5A 7515  15.010   3.111   9.191  0.0315  0.0181 -0.3873
  470loPI   C6A 7516  15.191   2.843   8.878  0.2880  0.0467  0.0430
  470loPI   C1B 7517  14.605   3.588  10.587  0.0827  0.2424  0.3916
  470loPI   C2B 7518  14.564   3.532  10.098 -0.0263 -0.1896  0.0667
  470loPI   C3B 7519  14.609   3.527   9.697 -0.0588 -0.0143 -0.1120
  470loPI   C4B 7520  14.641   3.467   9.272  0.2082  0.4010  0.1241
  471loPI    C1 7521   0.140  14.473  11.380 -0.1840  0.1479 -0.1347
  471loPI    C2 7522   0.339  14.810  11.299 -0.0528  0.0546 -0.2060
  471loPI    C3 7523   0.417  14.608  11.635 -0.2027  0.1472 -0.1141
  471loPI   PO4 7524  -0.102  14.591  11.246 -0.1090 -0.1215  0.3044
  471loPI   GL1 7525  -0.066  14.813  10.895 -0.0761 -0.1295  0.1655
  471loPI   GL2 7526  -0.377  14.797  10.803 -0.1173  0.1477 -0.1493
  471loPI   C1A 7527   0.057  14.756  10.474 -0.4278 -0.1315 -0.0835
  471loPI   C2A 7528   0.002  14.755  10.055  0.0098 -0.3152 -0.2289
  471loPI   C3A 7529   0.012  14.658   9.659 -0.0430  0.2949  0.0474
  471loPI   C4A 7530   0.062  14.607   9.262 -0.3577  0.0549  0.2292
  471loPI   C5A 7531  -0.122  14.762   8.841  0.4764 -0.1521  0.1280
  471loPI   C6A 7532  -0.245  14.728   8.457  0.3282 -0.0731 -0.0689
  471loPI   C1B 7533  -0.528  14.677  10.465 -0.1808  0.0933  0.0552
  471loPI   C2B 7534  -0.509  14.551  10.006  0.6456  0.0681  0.3039
  471loPI   C3B 7535  -0.449  14.512   9.495  0.2950 -0.1278 -0.0543
  471loPI   C4B 7536  -0.535  14.544   9.052  0.0604  0.1080  0.3261
  472loPI    C1 7537   5.830   2.672  11.614 -0.1186  0.0125 -0.2126
  472loPI    C2 7538   5.790   3.055  11.722  0.2545 -0.0214  0.0651
  472loPI    C3 7539   5.470   2.816  11.714  0.0255  0.2817 -0.0683
  472loPI   PO4 7540   5.964   2.660  11.437  0.1747 -0.1213  0.2336
  472loPI   GL1 7541   5.836   2.647  11.022 -0.1065  0.2604  0.1703
  472loPI   GL2 7542   5.818   2.870  10.889  0.2242 -0.1514  0.0553
  472loPI   C1A 7543   5.828   2.426  10.616  0.2675 -0.1706 -0.4346
  472loPI   C2A 7544   5.735   2.377  10.255 -0.1916 -0.0327  0.3403
  472loPI   C3A 7545   5.730   2.358   9.785  0.2473 -0.0652 -0.1602
  472loPI   C4A 7546   5.728   2.263   9.335  0.2761 -0.0751 -0.0364
  472loPI   C5A 7547   5.979   2.305   8.978 -0.2085 -0.1481  0.1743
  472loPI   C6A 7548   6.236   2.373   8.622 -0.0118  0.0344  0.0395
  472loPI   C1B 7549   5.891   2.886  10.370  0.1363  0.0889  0.1285
  472loPI   C2B 7550   5.894   2.828   9.986 -0.3290 -0.0922  0.1981
  472loPI   C3B 7551   5.798   2.790   9.558 -0.0784 -0.0435 -0.0158
  472loPI   C4B 7552   5.930   2.852   9.200 -0.1295 -0.0568 -0.1848
  473loPI    C1 7553   5.567  11.316  11.727 -0.1145 -0.0769 -0.1324
  473loPI    C2 7554   5.951  11.308  11.838 -0.1503 -0.1191 -0.0095
  473loPI    C3 7555   5.689  11.530  12.042 -0.2192 -0.2062 -0.0024
  473loPI   PO4 7556   5.545  11.435  11.454  0.0339  0.0484  0.1690
  473loPI   GL1 7557   5.660  11.684  11.070  0.2314 -0.0194  0.0963
  473loPI   GL2 7558   5.747  11.995  11.149 -0.0619  0.3450  0.0252
  473loPI   C1A 7559   5.613  11.608  10.650 -0.0182  0.1212  0.1382
  473loPI   C2A 7560   5.532  11.611  10.224  0.2117  0.0101 -0.0745
  473loPI   C3A 7561   5.537  11.505   9.765 -0.0942 -0.1595 -0.0388
  473loPI   C4A 7562   5.634  11.469   9.355 -0.1853 -0.0012  0.2193
  473loPI   C5A 7563   5.995  11.600   9.026 -0.1482 -0.1861  0.1354
  473loPI   C6A 7564   6.254  11.702   8.623 -0.0513 -0.1812  0.1983
  473loPI   C1B 7565   5.884  12.085  10.762 -0.1382  0.0425  0.2325
  473loPI   C2B 7566   5.761  12.062  10.355 -0.2282 -0.0519  0.1863
  473loPI   C3B 7567   5.715  11.992   9.866  0.0032 -0.0075 -0.4990
  473loPI   C4B 7568   5.786  11.969   9.411 -0.1004 -0.0198 -0.2883
  474loPI    C1 7569   7.900   2.786  11.962  0.0217 -0.0758 -0.0345
  474loPI    C2 7570   7.935   3.131  12.162 -0.1414 -0.1945  0.2041
  474loPI    C3 7571   8.261   2.913  12.079 -0.0359  0.0219  0.0389
  474loPI   PO4 7572   7.785   2.887  11.718  0.2108  0.0519 -0.1370
  474loPI   GL1 7573   7.789   2.907  11.260 -0.3398 -0.0381  0.3576
  474loPI   GL2 7574   7.749   2.631  11.067  0.3059  0.2089 -0.0317
  474loPI   C1A 7575   7.784   3.131  10.892  0.0949 -0.1850 -0.4250
  474loPI   C2A 7576   7.921   3.277  10.399 -0.3479  0.0469 -0.1593
  474loPI   C3A 7577   7.942   3.201   9.982 -0.1101 -0.1111 -0.0421
  474loPI   C4A 7578   7.849   3.146   9.486 -0.1924  0.1132 -0.0415
  474loPI   C5A 7579   7.784   2.984   9.071 -0.1013  0.0114  0.1188
  474loPI   C6A 7580   7.725   2.887   8.723  0.1934  0.0507  0.0727
  474loPI   C1B 7581   7.740   2.741  10.591 -0.2275  0.1107  0.1465
  474loPI   C2B 7582   7.846   2.740  10.218 -0.0112  0.0523  0.1661
  474loPI   C3B 7583   7.726   2.720   9.867  0.3831  0.1796  0.2217
  474loPI   C4B 7584   7.633   2.653   9.441 -0.2024 -0.2468 -0.1255
  475loPI    C1 7585   6.765   1.257  11.636 -0.2313 -0.0868  0.0322
  475loPI    C2 7586   6.815   1.177  12.024 -0.0617 -0.0701  0.0144
  475loPI    C3 7587   7.129   1.282  11.799 -0.2195  0.2910 -0.0438
  475loPI   PO4 7588   6.619   1.064  11.551 -0.2497 -0.0712 -0.2312
  475loPI   GL1 7589   6.646   1.011  11.134  0.0758 -0.1399  0.1280
  475loPI   GL2 7590   6.503   0.850  10.930  0.0920 -0.1780 -0.0362
  475loPI   C1A 7591   6.661   1.221  10.714  0.0281  0.2639  0.2037
  475loPI   C2A 7592   6.709   1.149  10.289 -0.0417 -0.2181 -0.0184
  475loPI   C3A 7593   6.756   1.044   9.974 -0.2730  0.1782  0.0896
  475loPI   C4A 7594   6.682   1.049   9.608  0.0912 -0.2025 -0.2168
  475loPI   C5A 7595   6.659   0.974   9.178 -0.1474 -0.2526  0.1270
  475loPI   C6A 7596   6.672   0.745   8.855 -0.1987 -0.0973  0.1083
  475loPI   C1B 7597   6.597   0.696  10.590 -0.2460  0.2604  0.1180
  475loPI   C2B 7598   6.536   0.582  10.193  0.2102 -0.3528 -0.4406
  475loPI   C3B 7599   6.479   0.577   9.843  0.2470  0.0616 -0.0895
  475loPI   C4B 7600   6.547   0.537   9.377  0.0635 -0.0741  0.1435
  476loPI    C1 7601  16.968   7.607  11.955  0.0059 -0.0907 -0.0988
  476loPI    C2 7602  17.295   7.490  12.152  0.0879  0.0930 -0.1241
  476loPI    C3 7603  16.933   7.390  12.289  0.1516 -0.0249 -0.0402
  476loPI   PO4 7604  16.847   7.527  11.681 -0.1866 -0.1301 -0.0009
  476loPI   GL1 7605  16.758   7.569  11.227 -0.0666  0.0172  0.1478
  476loPI   GL2 7606  17.061   7.513  11.201  0.0427 -0.0422  0.1864
  476loPI   C1A 7607  16.512   7.580  10.861  0.0468 -0.0590 -0.0058
  476loPI   C2A 7608  16.383   7.564  10.502 -0.0687 -0.1144 -0.2345
  476loPI   C3A 7609  16.470   7.540  10.038  0.2650 -0.3313  0.1656
  476loPI   C4A 7610  16.502   7.509   9.681  0.0892  0.2700  0.2440
  476loPI   C5A 7611  16.577   7.524   9.268 -0.1200  0.0025  0.0623
  476loPI   C6A 7612  16.482   7.457   8.843 -0.1560 -0.0344 -0.0649
  476loPI   C1B 7613  17.024   7.652  10.710 -0.1330  0.0149  0.2060
  476loPI   C2B 7614  16.920   7.638  10.202  0.2112  0.1624 -0.3020
  476loPI   C3B 7615  17.080   7.494   9.873  0.2033  0.0836 -0.0609
  476loPI   C4B 7616  17.052   7.561   9.481 -0.1419 -0.1136  0.0716
  477loPI    C1 7617   1.921  10.370  11.786  0.1664  0.3611  0.0810
  477loPI    C2 7618   1.625  10.209  12.001  0.2340 -0.0074 -0.0927
  477loPI    C3 7619   2.004  10.106  12.075  0.2744  0.0307 -0.2439
  477loPI   PO4 7620   1.856  10.253  11.576 -0.4940  0.1007 -0.3907
  477loPI   GL1 7621   2.178  10.168  11.242  0.3439  0.1134 -0.1063
  477loPI   GL2 7622   2.254  10.482  11.320  0.1926  0.1943 -0.1819
  477loPI   C1A 7623   2.280  10.062  10.780 -0.3266 -0.0290  0.0953
  477loPI   C2A 7624   2.203  10.020  10.334  0.1387  0.1122 -0.0570
  477loPI   C3A 7625   2.187   9.982   9.934  0.0020  0.2161  0.0092
  477loPI   C4A 7626   2.207   9.990   9.503 -0.1670 -0.1295 -0.0621
  477loPI   C5A 7627   2.139   9.902   9.037 -0.0199 -0.0328  0.1597
  477loPI   C6A 7628   2.184   9.819   8.644  0.3005  0.2496  0.3562
  477loPI   C1B 7629   2.329  10.523  10.816 -0.0908 -0.1559  0.2354
  477loPI   C2B 7630   2.344  10.493  10.312  0.0581  0.2322 -0.1847
  477loPI   C3B 7631   2.386  10.627  10.037 -0.0391  0.0696 -0.1248
  477loPI   C4B 7632   2.374  10.525   9.558  0.1826 -0.0870 -0.0357
  478loPI    C1 7633   7.261   9.781  11.873  0.1211 -0.1810 -0.0168
  478loPI    C2 7634   7.482   9.549  12.113  0.0100 -0.1365  0.1294
  478loPI    C3 7635   7.230   9.818  12.270 -0.0757 -0.1183 -0.0371
  478loPI   PO4 7636   7.296   9.730  11.697 -0.0441 -0.0104  0.1389
  478loPI   GL1 7637   7.597   9.713  11.339  0.3022 -0.2073  0.4541
  478loPI   GL2 7638   7.502   9.307  11.271 -0.0544  0.0415 -0.2743
  478loPI   C1A 7639   7.738   9.623  10.926  0.1324  0.2833 -0.2541
  478loPI   C2A 7640   7.887   9.628  10.481 -0.1137  0.2097 -0.0387
  478loPI   C3A 7641   7.813   9.630  10.068 -0.1938  0.0347  0.1322
  478loPI   C4A 7642   7.810   9.525   9.710 -0.2904  0.2089  0.1563
  478loPI   C5A 7643   7.643   9.526   9.309  0.2253  0.0474  0.0231
  478loPI   C6A 7644   7.526   9.743   8.921 -0.2670  0.1854  0.1017
  478loPI   C1B 7645   7.587   9.152  10.879  0.0117  0.2376  0.0294
  478loPI   C2B 7646   7.609   9.152  10.427 -0.0720 -0.2666  0.0768
  478loPI   C3B 7647   7.659   9.079  10.012  0.0630  0.0461  0.0450
  478loPI   C4B 7648   7.589   9.058   9.596  0.2144  0.1363  0.0848
  479loPI    C1 7649  10.153   3.055  11.880 -0.1880 -0.0270 -0.0162
  479loPI    C2 7650  10.079   2.703  12.056  0.0449 -0.0568  0.0262
  479loPI    C3 7651   9.829   3.011  12.109 -0.0045 -0.1307  0.2280
  479loPI   PO4 7652  10.264   3.061  11.597  0.2863  0.0444  0.0811
  479loPI   GL1 7653  10.196   3.031  11.229  0.3548 -0.0685  0.0482
  479loPI   GL2 7654  10.273   3.278  11.087 -0.2471  0.0665 -0.2791
  479loPI   C1A 7655  10.099   2.718  10.909 -0.1380  0.0116 -0.1577
  479loPI   C2A 7656  10.072   2.758  10.498 -0.2479 -0.0025  0.0168
  479loPI   C3A 7657  10.010   2.696  10.047  0.3528  0.0897  0.1379
  479loPI   C4A 7658  10.013   2.629   9.650  0.0043 -0.2858  0.1633
  479loPI   C5A 7659   9.924   2.672   9.201  0.0193 -0.0356 -0.1736
  479loPI   C6A 7660   9.683   2.708   8.905 -0.3137  0.1681 -0.0235
  479loPI   C1B 7661  10.206   3.202  10.662  0.1162 -0.0476 -0.0177
  479loPI   C2B 7662  10.206   3.140  10.177  0.0510  0.1953  0.1535
  479loPI   C3B 7663  10.187   3.092   9.756  0.2118 -0.0954  0.2890
  479loPI   C4B 7664  10.184   3.128   9.395  0.0171 -0.2196 -0.0143
  480loPI    C1 7665   7.741   9.074  11.723 -0.4275 -0.0106  0.2888
  480loPI    C2 7666   7.778   9.472  11.692 -0.0055 -0.0768 -0.2001
  480loPI    C3 7667   7.907   9.284  12.021 -0.1859  0.1837  0.0240
  480loPI   PO4 7668   7.824   9.010  11.474 -0.2029 -0.0600  0.1489
  480loPI   GL1 7669   8.014   9.161  11.145 -0.0366  0.0989  0.2628
  480loPI   GL2 7670   8.137   9.314  11.125  0.2438 -0.1473 -0.1811
  480loPI   C1A 7671   8.061   9.178  10.684 -0.2049 -0.0207 -0.0954
  480loPI   C2A 7672   8.083   9.244  10.290  0.0096 -0.1956  0.2721
  480loPI   C3A 7673   8.109   9.197   9.848  0.2967  0.1143  0.0923
  480loPI   C4A 7674   8.168   9.166   9.472  0.0627 -0.0600  0.2493
  480loPI   C5A 7675   8.138   9.377   9.235  0.0902  0.1285 -0.1982
  480loPI   C6A 7676   7.950   9.446   8.910  0.2198 -0.2431  0.0879
  480loPI   C1B 7677   8.261   9.624  10.871 -0.0261 -0.1205  0.2921
  480loPI   C2B 7678   8.347   9.750  10.399  0.0324 -0.0160 -0.0135
  480loPI   C3B 7679   8.315   9.695  10.026  0.1603 -0.0730  0.0874
  480loPI   C4B 7680   8.367   9.685   9.516  0.2457 -0.1855 -0.1050
  481loPI    C1 7681  13.136  14.959  11.572  0.1217 -0.0232 -0.1742
  481loPI    C2 7682  13.009  14.749  11.888  0.1482 -0.0378 -0.1732
  481loPI    C3 7683  13.250  15.063  11.941 -0.0604  0.1217 -0.1571
  481loPI   PO4 7684  12.923  15.039  11.467 -0.1188  0.0130  0.0624
  481loPI   GL1 7685  12.598  15.076  11.185 -0.0598  0.0094  0.1513
  481loPI   GL2 7686  12.582  14.715  11.111  0.0473 -0.1709  0.4265
  481loPI   C1A 7687  12.570  15.151  10.772  0.1207 -0.0384 -0.0056
  481loPI   C2A 7688  12.494  15.051  10.366 -0.0428 -0.0875 -0.0935
  481loPI   C3A 7689  12.467  15.089   9.993 -0.0315 -0.1061  0.0867
  481loPI   C4A 7690  12.444  15.071   9.570  0.1567 -0.0107  0.0394
  481loPI   C5A 7691  12.519  15.066   9.095 -0.2272  0.1938  0.4567
  481loPI   C6A 7692  12.911  14.989   8.878 -0.2141  0.0872 -0.0555
  481loPI   C1B 7693  12.391  14.562  10.638 -0.1248 -0.2632  0.1795
  481loPI   C2B 7694  12.408  14.580  10.175 -0.0430 -0.1023  0.0377
  481loPI   C3B 7695  12.309  14.569   9.752  0.0569  0.0946 -0.0736
  481loPI   C4B 7696  12.278  14.531   9.326 -0.1175  0.4176  0.0663
  482loPI    C1 7697   7.035  10.282  12.149  0.0190  0.0193 -0.1924
  482loPI    C2 7698   7.198  10.245  12.512  0.0461  0.0246 -0.2041
  482loPI    C3 7699   6.859  10.052  12.425 -0.1180  0.2533 -0.0814
  482loPI   PO4 7700   7.238  10.279  11.943 -0.1242  0.0698  0.0192
  482loPI   GL1 7701   7.292  10.259  11.591 -0.0881  0.1006  0.0353
  482loPI   GL2 7702   7.090  10.087  11.388 -0.1197 -0.0405  0.3040
  482loPI   C1A 7703   7.537  10.212  11.143 -0.1840 -0.0248 -0.1054
  482loPI   C2A 7704   7.544  10.051  10.697  0.2396 -0.2229 -0.2484
  482loPI   C3A 7705   7.515   9.970  10.252 -0.1939 -0.0237 -0.0077
  482loPI   C4A 7706   7.394   9.844   9.755  0.1112 -0.0005 -0.0843
  482loPI   C5A 7707   7.514   9.967   9.429 -0.2268  0.2135  0.1116
  482loPI   C6A 7708   7.709  10.275   9.068 -0.3499 -0.3752 -0.0637
  482loPI   C1B 7709   7.200   9.697  11.011 -0.0645  0.0317  0.1894
  482loPI   C2B 7710   7.319   9.499  10.600  0.1592  0.0433 -0.2960
  482loPI   C3B 7711   7.199   9.371  10.255  0.1893 -0.0383 -0.4377
  482loPI   C4B 7712   7.226   9.322   9.813  0.0620 -0.1726 -0.0837
  483loPI    C1 7713   7.656  12.329  11.547 -0.1002  0.0747 -0.1355
  483loPI    C2 7714   7.597  12.390  11.938  0.1628  0.0312 -0.0873
  483loPI    C3 7715   7.293  12.272  11.706  0.0081  0.0463  0.1054
  483loPI   PO4 7716   7.813  12.500  11.461 -0.0037 -0.0162 -0.0087
  483loPI   GL1 7717   7.994  12.507  11.114 -0.0531 -0.2751 -0.3258
  483loPI   GL2 7718   7.810  12.538  10.844 -0.1263  0.1230  0.0593
  483loPI   C1A 7719   8.220  12.117  10.902 -0.1475 -0.2244 -0.0042
  483loPI   C2A 7720   8.187  12.112  10.433 -0.2005  0.0797 -0.1451
  483loPI   C3A 7721   8.159  11.976  10.064 -0.0605  0.1186  0.0389
  483loPI   C4A 7722   8.088  11.896   9.643 -0.1824  0.0424  0.2015
  483loPI   C5A 7723   7.954  11.878   9.263 -0.0381  0.0798 -0.0884
  483loPI   C6A 7724   7.797  11.597   8.882  0.0313  0.3429 -0.0319
  483loPI   C1B 7725   7.778  12.420  10.404  0.2473 -0.2390  0.1309
  483loPI   C2B 7726   7.847  12.415   9.998 -0.0678  0.0542  0.1021
  483loPI   C3B 7727   7.787  12.297   9.531 -0.1509  0.0896 -0.1853
  483loPI   C4B 7728   7.580  12.320   9.155  0.1236 -0.1239 -0.1527
  484loPI    C1 7729   0.180   9.265  11.765 -0.2108 -0.1827  0.0408
  484loPI    C2 7730  -0.094   9.554  11.729 -0.0583 -0.0610 -0.1621
  484loPI    C3 7731  -0.063   9.350  12.072 -0.2013  0.1273 -0.0344
  484loPI   PO4 7732   0.235   9.254  11.508 -0.0248  0.0369 -0.0411
  484loPI   GL1 7733   0.164   9.192  11.134 -0.1555  0.0066  0.1579
  484loPI   GL2 7734   0.029   9.231  10.956 -0.0022 -0.1431  0.3035
  484loPI   C1A 7735   0.584   9.191  10.774  0.5090  0.0201 -0.0865
  484loPI   C2A 7736   0.554   9.160  10.305  0.0812  0.0578 -0.2424
  484loPI   C3A 7737   0.561   9.169   9.858  0.0242  0.2875 -0.0157
  484loPI   C4A 7738   0.482   9.188   9.433  0.1383  0.1777  0.0728
  484loPI   C5A 7739   0.446   9.301   9.027 -0.0556  0.0269 -0.0629
  484loPI   C6A 7740   0.322   9.593   8.783 -0.2209 -0.1475 -0.0219
  484loPI   C1B 7741   0.103   9.107  10.473 -0.0117  0.1785 -0.0079
  484loPI   C2B 7742   0.069   9.155  10.035  0.0551  0.2105 -0.1226
  484loPI   C3B 7743   0.015   9.123   9.602  0.0739 -0.2642  0.0522
  484loPI   C4B 7744  -0.005   9.005   9.157  0.0409 -0.0378 -0.1425
  485loPI    C1 7745   6.747  16.041  11.514 -0.1644  0.2256  0.1404
  485loPI    C2 7746   6.457  16.086  11.786 -0.0935  0.0855  0.2406
  485loPI    C3 7747   6.740  15.808  11.839  0.0043  0.1557  0.0954
  485loPI   PO4 7748   6.632  15.943  11.234 -0.0362  0.2685  0.4821
  485loPI   GL1 7749   6.663  15.937  10.827  0.0301 -0.3714  0.2995
  485loPI   GL2 7750   6.434  16.140  10.823  0.0741 -0.1764  0.0411
  485loPI   C1A 7751   6.697  15.867  10.380  0.0123  0.1077 -0.2317
  485loPI   C2A 7752   6.670  15.843   9.887  0.1059  0.1285 -0.3351
  485loPI   C3A 7753   6.651  15.704   9.517 -0.2927  0.0880 -0.1381
  485loPI   C4A 7754   6.653  15.664   9.056 -0.0480 -0.1938  0.1594
  485loPI   C5A 7755   6.608  15.974   8.690 -0.3693 -0.0844 -0.1829
  485loPI   C6A 7756   6.522  16.402   8.707  0.1146  0.1827 -0.0090
  485loPI   C1B 7757   6.349  16.236  10.333 -0.3920 -0.2049 -0.1444
  485loPI   C2B 7758   6.304  16.207   9.870 -0.3251 -0.1661  0.0197
  485loPI   C3B 7759   6.359  16.162   9.473 -0.2598  0.0162  0.1867
  485loPI   C4B 7760   6.306  16.100   9.035 -0.3116  0.0017  0.1295
  486loPI    C1 7761   0.481   4.049  11.662  0.2160 -0.0616 -0.1695
  486loPI    C2 7762   0.145   4.053  11.880  0.2325 -0.1783 -0.1416
  486loPI    C3 7763   0.501   4.019  12.060  0.2455 -0.2881 -0.1867
  486loPI   PO4 7764   0.452   3.929  11.499 -0.2154 -0.3225 -0.2292
  486loPI   GL1 7765   0.296   3.870  11.130  0.1747  0.1503 -0.3314
  486loPI   GL2 7766   0.598   3.706  11.115 -0.6212  0.1060 -0.1999
  486loPI   C1A 7767   0.203   4.072  10.714  0.1158  0.3675 -0.0303
  486loPI   C2A 7768   0.167   4.028  10.327  0.0312 -0.2585  0.1306
  486loPI   C3A 7769   0.204   4.016   9.944  0.0092  0.4724  0.0046
  486loPI   C4A 7770   0.203   4.003   9.524  0.0361  0.0978  0.3456
  486loPI   C5A 7771   0.239   3.998   9.065 -0.0897  0.0572  0.3831
  486loPI   C6A 7772   0.320   4.110   8.580 -0.3446  0.1438  0.1449
  486loPI   C1B 7773   0.484   3.606  10.711  0.3339  0.1764 -0.0317
  486loPI   C2B 7774   0.484   3.661  10.265 -0.0276 -0.0930  0.1483
  486loPI   C3B 7775   0.474   3.583   9.767 -0.0100 -0.1937  0.0711
  486loPI   C4B 7776   0.483   3.540   9.370  0.0079 -0.0023  0.1720
  487loPI    C1 7777   5.469   2.307  11.510  0.1745  0.0191  0.1232
  487loPI    C2 7778   5.594   1.994  11.727 -0.1544 -0.1577  0.0644
  487loPI    C3 7779   5.441   2.316  11.909  0.1586 -0.0387  0.1235
  487loPI   PO4 7780   5.473   2.423  11.290 -0.1406  0.1083  0.0306
  487loPI   GL1 7781   5.347   2.561  10.890  0.1225 -0.0224 -0.0145
  487loPI   GL2 7782   5.317   2.781  10.701 -0.0243  0.1615  0.2374
  487loPI   C1A 7783   5.259   2.346  10.527 -0.1059  0.1445 -0.2358
  487loPI   C2A 7784   5.233   2.257  10.125 -0.2130 -0.5004 -0.0804
  487loPI   C3A 7785   5.247   2.276   9.652  0.0083  0.0578  0.4031
  487loPI   C4A 7786   5.222   2.188   9.286 -0.5611  0.1403 -0.0051
  487loPI   C5A 7787   5.441   2.177   8.883 -0.0558  0.1369 -0.0098
  487loPI   C6A 7788   5.419   2.422   8.526  0.0326  0.2170 -0.1055
  487loPI   C1B 7789   5.412   2.848  10.265  0.3000 -0.3641 -0.0473
  487loPI   C2B 7790   5.368   2.765   9.908  0.1554 -0.1150 -0.0077
  487loPI   C3B 7791   5.338   2.684   9.435 -0.0003 -0.0631  0.1547
  487loPI   C4B 7792   5.403   2.698   9.019 -0.0606  0.1094 -0.0285
  488loPI    C1 7793  14.682  12.246  11.474 -0.0314 -0.0561  0.0177
  488loPI    C2 7794  14.728  12.284  11.869 -0.0721  0.4544 -0.0210
  488loPI    C3 7795  14.361  12.274  11.711 -0.0580  0.1232 -0.0383
  488loPI   PO4 7796  14.754  12.484  11.371  0.0466  0.1033 -0.2744
  488loPI   GL1 7797  14.736  12.714  11.023 -0.3863  0.0303 -0.0452
  488loPI   GL2 7798  14.391  12.774  10.881 -0.1498 -0.0037  0.1485
  488loPI   C1A 7799  15.016  12.920  10.765  0.0795 -0.2747 -0.1464
  488loPI   C2A 7800  15.035  12.874  10.341 -0.0534  0.1858 -0.0569
  488loPI   C3A 7801  15.012  12.798   9.931  0.0570 -0.0512  0.0701
  488loPI   C4A 7802  14.915  12.808   9.544  0.0480 -0.1546  0.1334
  488loPI   C5A 7803  15.013  12.871   9.110 -0.0902 -0.3163  0.3172
  488loPI   C6A 7804  14.736  12.749   8.777  0.0263 -0.0067 -0.0218
  488loPI   C1B 7805  14.524  12.834  10.496 -0.0335 -0.2229  0.0016
  488loPI   C2B 7806  14.531  12.806  10.044  0.1022  0.4062  0.0506
  488loPI   C3B 7807  14.430  12.668   9.533 -0.1361 -0.1343 -0.1331
  488loPI   C4B 7808  14.372  12.670   9.056  0.0491 -0.0167  0.0378
  489loPI    C1 7809  14.074  10.222  11.363 -0.0017 -0.2744  0.0850
  489loPI    C2 7810  14.460  10.143  11.432 -0.0119 -0.1514  0.2932
  489loPI    C3 7811  14.195  10.125  11.732 -0.1650 -0.2120  0.1562
  489loPI   PO4 7812  14.011  10.446  11.298 -0.3653  0.2362  0.0711
  489loPI   GL1 7813  14.249  10.502  10.938 -0.0754  0.1342 -0.1531
  489loPI   GL2 7814  14.330  10.735  10.840  0.1701 -0.0661 -0.0459
  489loPI   C1A 7815  14.250  10.339  10.568 -0.1667  0.1907 -0.1560
  489loPI   C2A 7816  14.242  10.369  10.047  0.1434 -0.0045  0.2703
  489loPI   C3A 7817  14.192  10.292   9.658  0.3242  0.0280 -0.0395
  489loPI   C4A 7818  14.135  10.198   9.242  0.0528  0.0871  0.2996
  489loPI   C5A 7819  14.402  10.099   8.907 -0.1728  0.1289 -0.2879
  489loPI   C6A 7820  14.709  10.256   8.733 -0.0295 -0.1026  0.0488
  489loPI   C1B 7821  14.370  10.866  10.376 -0.0037 -0.0197  0.1580
  489loPI   C2B 7822  14.375  10.886   9.891 -0.1296  0.2348 -0.0152
  489loPI   C3B 7823  14.334  10.744   9.412  0.0708 -0.1277 -0.1382
  489loPI   C4B 7824  14.327  10.647   9.109 -0.1060  0.1249  0.0419
  490loPI    C1 7825   4.927  11.313  11.923 -0.0063  0.1732 -0.0390
  490loPI    C2 7826   5.273  11.279  12.120 -0.0334 -0.0027 -0.0202
  490loPI    C3 7827   5.060  10.952  12.032 -0.2254  0.1093  0.0226
  490loPI   PO4 7828   4.984  11.446  11.716 -0.0526  0.0798 -0.1943
  490loPI   GL1 7829   4.885  11.272  11.299  0.4747  0.0905 -0.0080
  490loPI   GL2 7830   5.138  11.453  11.214  0.2416 -0.0988 -0.2032
  490loPI   C1A 7831   4.916  11.172  10.896  0.0120 -0.0684 -0.1274
  490loPI   C2A 7832   4.955  11.027  10.512 -0.3787  0.3669 -0.0534
  490loPI   C3A 7833   4.907  10.970   9.990 -0.1681  0.1194  0.0663
  490loPI   C4A 7834   4.914  10.899   9.570  0.0001 -0.0792  0.2494
  490loPI   C5A 7835   5.063  10.741   9.257  0.0464  0.0247  0.0897
  490loPI   C6A 7836   5.023  10.524   8.886  0.1505  0.0323 -0.0646
  490loPI   C1B 7837   5.172  11.581  10.826  0.1054  0.1504 -0.2671
  490loPI   C2B 7838   5.043  11.507  10.420  0.1959  0.2175 -0.0930
  490loPI   C3B 7839   5.055  11.422   9.970  0.1959  0.1734 -0.1126
  490loPI   C4B 7840   5.068  11.503   9.505 -0.0631  0.2332 -0.1727
  491loPI    C1 7841   8.734   1.728  11.835  0.0242  0.3168  0.0432
  491loPI    C2 7842   8.336   1.727  11.795  0.0184 -0.0125  0.0899
  491loPI    C3 7843   8.512   1.992  12.038 -0.1540  0.2650 -0.0826
  491loPI   PO4 7844   8.814   1.829  11.493 -0.2861  0.1107 -0.0537
  491loPI   GL1 7845   8.858   1.659  11.155  0.2381  0.2310  0.0871
  491loPI   GL2 7846   9.179   1.734  11.118 -0.3485 -0.2788  0.1413
  491loPI   C1A 7847   8.755   1.541  10.707  0.1508  0.1098 -0.0852
  491loPI   C2A 7848   8.678   1.544  10.242 -0.4440  0.1064  0.2886
  491loPI   C3A 7849   8.714   1.563   9.791 -0.0637  0.2692 -0.3475
  491loPI   C4A 7850   8.712   1.524   9.309 -0.2152 -0.1043  0.2643
  491loPI   C5A 7851   8.696   1.253   8.915 -0.1889  0.2265  0.1717
  491loPI   C6A 7852   8.830   1.362   8.485  0.2026  0.1612 -0.0812
  491loPI   C1B 7853   9.256   1.638  10.643  0.2596  0.0085 -0.2619
  491loPI   C2B 7854   9.128   1.661  10.281 -0.0753 -0.1824  0.0431
  491loPI   C3B 7855   9.200   1.637   9.822 -0.1458 -0.0097 -0.1386
  491loPI   C4B 7856   9.190   1.624   9.386 -0.0133 -0.0792  0.0562
  492loPI    C1 7857  10.573  14.276  11.555  0.0432 -0.0141 -0.0136
  492loPI    C2 7858  10.800  14.185  11.872 -0.1501  0.1871  0.1854
  492loPI    C3 7859  10.550  13.912  11.720  0.0419  0.0460  0.1193
  492loPI   PO4 7860  10.689  14.452  11.436 -0.0584 -0.2517  0.0860
  492loPI   GL1 7861  10.797  14.769  11.104  0.0165  0.1452  0.0638
  492loPI   GL2 7862  11.035  14.763  10.881  0.2784 -0.2120  0.1997
  492loPI   C1A 7863  10.555  14.655  10.796  0.3566  0.4187  0.2073
  492loPI   C2A 7864  10.568  14.698  10.355  0.0640 -0.2177  0.0926
  492loPI   C3A 7865  10.548  14.710   9.878 -0.1306 -0.0868  0.1765
  492loPI   C4A 7866  10.504  14.837   9.440  0.2431  0.2195  0.0996
  492loPI   C5A 7867  10.509  14.823   8.931  0.0479  0.1576  0.1367
  492loPI   C6A 7868  10.345  14.832   8.526  0.1041  0.0870  0.2295
  492loPI   C1B 7869  10.997  14.796  10.534 -0.2384 -0.1175  0.1896
  492loPI   C2B 7870  11.039  14.878  10.175 -0.3175 -0.1717 -0.1876
  492loPI   C3B 7871  11.015  14.791   9.842 -0.1812 -0.0559  0.0755
  492loPI   C4B 7872  10.996  14.916   9.504 -0.3371  0.3133 -0.2354
  493loPI    C1 7873   9.435  12.227  11.824  0.0693  0.1263 -0.1325
  493loPI    C2 7874   9.747  11.999  11.930 -0.1973 -0.1408  0.0939
  493loPI    C3 7875   9.661  12.331  12.137  0.1529  0.1402 -0.1969
  493loPI   PO4 7876   9.462  12.238  11.535 -0.1383  0.2135  0.0908
  493loPI   GL1 7877   9.199  12.319  11.147  0.1894  0.0383  0.3785
  493loPI   GL2 7878   9.124  12.643  11.077 -0.4970  0.2221 -0.1039
  493loPI   C1A 7879   9.216  12.176  10.813 -0.2688 -0.0540  0.2846
  493loPI   C2A 7880   9.213  12.159  10.389 -0.1994 -0.1132  0.0887
  493loPI   C3A 7881   9.155  12.112   9.949  0.1257  0.2163  0.3257
  493loPI   C4A 7882   9.104  12.056   9.549 -0.2470 -0.2654 -0.0022
  493loPI   C5A 7883   9.250  12.213   9.246  0.0128  0.0329 -0.0147
  493loPI   C6A 7884   9.532  12.300   8.981 -0.1794 -0.1716 -0.0739
  493loPI   C1B 7885   8.932  12.555  10.698  0.0547 -0.2533 -0.1014
  493loPI   C2B 7886   8.838  12.551  10.186  0.0070  0.5939 -0.2507
  493loPI   C3B 7887   8.818  12.507   9.814  0.1178 -0.1546 -0.4257
  493loPI   C4B 7888   8.778  12.446   9.380  0.0949 -0.0807  0.1229
  494loPI    C1 7889  10.135  15.401  11.556 -0.1805 -0.2169 -0.0565
  494loPI    C2 7890   9.882  15.698  11.641  0.0830  0.0932 -0.3247
  494loPI    C3 7891  10.055  15.491  11.937 -0.1632  0.1514 -0.1363
  494loPI   PO4 7892   9.975  15.315  11.291 -0.0178  0.0606 -0.0354
  494loPI   GL1 7893  10.151  15.116  10.953  0.0675 -0.1071 -0.0888
  494loPI   GL2 7894  10.071  15.410  10.846  0.1079  0.2050  0.0142
  494loPI   C1A 7895  10.264  15.094  10.471  0.0285  0.5693  0.2860
  494loPI   C2A 7896  10.275  15.034  10.057  0.2426 -0.0482 -0.0864
  494loPI   C3A 7897  10.200  15.149   9.736 -0.0052 -0.2463 -0.0400
  494loPI   C4A 7898  10.115  15.165   9.427 -0.1889  0.1843  0.1198
  494loPI   C5A 7899  10.112  14.996   9.137 -0.1444  0.1559 -0.2112
  494loPI   C6A 7900   9.765  14.772   8.752  0.1892  0.0106 -0.1018
  494loPI   C1B 7901   9.896  15.539  10.436 -0.0786 -0.0305 -0.0278
  494loPI   C2B 7902   9.840  15.611  10.031 -0.0261  0.1192 -0.0423
  494loPI   C3B 7903   9.746  15.546   9.584  0.2316  0.0792 -0.1496
  494loPI   C4B 7904   9.797  15.409   9.113 -0.1276  0.0457  0.1943
  495loPI    C1 7905  12.041  13.605  11.995  0.0082  0.0819 -0.0709
  495loPI    C2 7906  11.838  13.261  12.000  0.0247  0.0723 -0.0608
  495loPI    C3 7907  12.181  13.294  12.203 -0.0888  0.1634  0.1183
  495loPI   PO4 7908  11.846  13.708  11.705 -0.0405  0.2148 -0.1067
  495loPI   GL1 7909  11.943  13.761  11.269 -0.2195  0.2656  0.1377
  495loPI   GL2 7910  11.845  14.012  11.055  0.0872  0.1568  0.1946
  495loPI   C1A 7911  12.038  13.628  10.781 -0.1231  0.0201  0.0129
  495loPI   C2A 7912  12.021  13.590  10.308 -0.3455 -0.0040 -0.0087
  495loPI   C3A 7913  12.039  13.533   9.906  0.0074 -0.0814  0.0228
  495loPI   C4A 7914  12.015  13.675   9.451  0.0709 -0.1988  0.0235
  495loPI   C5A 7915  11.876  13.601   9.018 -0.0157  0.1216 -0.1683
  495loPI   C6A 7916  11.702  13.754   8.609 -0.0778 -0.0566  0.2058
  495loPI   C1B 7917  11.687  13.992  10.763  0.0712 -0.1435 -0.0489
  495loPI   C2B 7918  11.745  14.113  10.353 -0.0297 -0.3491 -0.1565
  495loPI   C3B 7919  11.642  14.057   9.957  0.0240  0.0157 -0.1731
  495loPI   C4B 7920  11.624  14.063   9.498 -0.1882  0.2827  0.1787
  496loPI    C1 7921   8.085  11.624  12.224 -0.0600  0.2277 -0.1513
  496loPI    C2 7922   8.361  11.865  12.384  0.1418 -0.0566 -0.0626
  496loPI    C3 7923   8.267  11.520  12.564 -0.2853  0.0420 -0.0846
  496loPI   PO4 7924   8.196  11.549  11.942  0.2540 -0.2025 -0.2166
  496loPI   GL1 7925   8.112  11.514  11.526  0.1070  0.1891  0.1576
  496loPI   GL2 7926   8.215  11.292  11.332  0.1829 -0.0545  0.0723
  496loPI   C1A 7927   8.383  11.708  11.159  0.2108  0.3723  0.0557
  496loPI   C2A 7928   8.482  11.637  10.686 -0.0777  0.0158  0.0908
  496loPI   C3A 7929   8.485  11.626  10.226 -0.2250 -0.1361  0.1177
  496loPI   C4A 7930   8.457  11.542   9.825  0.2897 -0.0984  0.3805
  496loPI   C5A 7931   8.397  11.526   9.343  0.1174  0.1178  0.1031
  496loPI   C6A 7932   8.328  11.793   8.975 -0.1937  0.1269  0.2107
  496loPI   C1B 7933   8.238  11.226  10.861  0.1976  0.0189  0.0389
  496loPI   C2B 7934   8.284  11.138  10.453  0.1248 -0.1274  0.0957
  496loPI   C3B 7935   8.334  11.067  10.030 -0.0441 -0.2130  0.2307
  496loPI   C4B 7936   8.143  11.165   9.712  0.2420  0.2036  0.1356
  497loPI    C1 7937   0.828  13.205  11.582 -0.1600  0.2450 -0.0065
  497loPI    C2 7938   0.661  13.315  11.928 -0.2701 -0.2315  0.0990
  497loPI    C3 7939   1.002  13.105  11.928 -0.1112  0.0202 -0.0940
  497loPI   PO4 7940   0.741  13.312  11.424  0.2107 -0.2472 -0.1439
  497loPI   GL1 7941   0.727  13.327  11.043 -0.1238 -0.4044 -0.2760
  497loPI   GL2 7942   0.965  13.104  11.020  0.1092  0.0924 -0.1289
  497loPI   C1A 7943   0.555  13.371  10.589 -0.2831 -0.0810 -0.0348
  497loPI   C2A 7944   0.586  13.357  10.123 -0.2278  0.0483 -0.0190
  497loPI   C3A 7945   0.591  13.451   9.613  0.1795 -0.1005 -0.2075
  497loPI   C4A 7946   0.546  13.351   9.128  0.1056  0.3420 -0.0075
  497loPI   C5A 7947   0.781  13.145   8.782 -0.1019 -0.4535 -0.4800
  497loPI   C6A 7948   1.031  13.172   8.390 -0.2069  0.5458 -0.0930
  497loPI   C1B 7949   0.892  12.989  10.643  0.0057 -0.2076 -0.0744
  497loPI   C2B 7950   0.978  12.975  10.233 -0.0836 -0.0784  0.2176
  497loPI   C3B 7951   0.946  12.855   9.714  0.0627 -0.0310 -0.1302
  497loPI   C4B 7952   0.955  12.930   9.192  0.0093  0.1801 -0.2789
  498loPI    C1 7953  16.065  13.997  11.672  0.0198 -0.2957 -0.3496
  498loPI    C2 7954  15.671  14.034  11.732  0.0858  0.1455 -0.1468
  498loPI    C3 7955  15.889  13.799  11.972  0.0030  0.1922 -0.0247
  498loPI   PO4 7956  16.090  14.004  11.433  0.0478 -0.0564 -0.0853
  498loPI   GL1 7957  15.982  13.938  10.992 -0.0481  0.0780 -0.2286
  498loPI   GL2 7958  15.757  14.123  11.046 -0.3023 -0.2059 -0.2906
  498loPI   C1A 7959  15.885  13.811  10.560 -0.1288  0.1019  0.2830
  498loPI   C2A 7960  15.892  13.857  10.176 -0.0478  0.0974 -0.0994
  498loPI   C3A 7961  15.874  13.804   9.680  0.1548  0.0664  0.0161
  498loPI   C4A 7962  15.878  13.846   9.291  0.2458 -0.0566  0.2021
  498loPI   C5A 7963  15.963  14.125   8.852  0.2268 -0.2201  0.1227
  498loPI   C6A 7964  16.243  14.106   8.459 -0.0672 -0.0456  0.2436
  498loPI   C1B 7965  15.567  14.238  10.597  0.1034 -0.1131  0.0463
  498loPI   C2B 7966  15.546  14.242  10.172  0.1850 -0.0251 -0.1007
  498loPI   C3B 7967  15.508  14.201   9.704  0.0893 -0.2429 -0.0607
  498loPI   C4B 7968  15.475  14.217   9.263  0.0099  0.1402  0.1549
  499loPI    C1 7969  15.626  12.570  11.590 -0.1265 -0.0026 -0.2688
  499loPI    C2 7970  15.963  12.548  11.377 -0.1363 -0.0298 -0.2815
  499loPI    C3 7971  15.969  12.466  11.768 -0.1600 -0.1951 -0.3151
  499loPI   PO4 7972  15.486  12.780  11.491 -0.0338  0.1319  0.0188
  499loPI   GL1 7973  15.434  12.775  11.134 -0.0571 -0.1163  0.0144
  499loPI   GL2 7974  15.236  12.498  11.050  0.1527  0.1084 -0.2972
  499loPI   C1A 7975  15.493  12.978  10.750 -0.0902  0.0963  0.0509
  499loPI   C2A 7976  15.589  13.007  10.405  0.0704  0.1157  0.1502
  499loPI   C3A 7977  15.559  12.917   9.959  0.0027  0.2715 -0.1152
  499loPI   C4A 7978  15.483  12.878   9.555  0.1565  0.3345 -0.2414
  499loPI   C5A 7979  15.676  12.884   9.139  0.0736 -0.3041 -0.1990
  499loPI   C6A 7980  15.561  12.787   8.893  0.0479  0.0233  0.1576
  499loPI   C1B 7981  15.351  12.487  10.616 -0.1895 -0.4934  0.1084
  499loPI   C2B 7982  15.382  12.472  10.173 -0.0828  0.2221 -0.2463
  499loPI   C3B 7983  15.398  12.415   9.767  0.0699  0.1299 -0.2102
  499loPI   C4B 7984  15.370  12.429   9.336  0.2812  0.1449 -0.0926
  500loPI    C1 7985   5.912  14.845  11.698  0.1403 -0.1951 -0.0906
  500loPI    C2 7986   6.296  14.847  11.810  0.1586 -0.2400 -0.1519
  500loPI    C3 7987   6.007  14.833  12.087  0.1971  0.0176 -0.0967
  500loPI   PO4 7988   5.958  14.716  11.409 -0.2153  0.3670  0.1089
  500loPI   GL1 7989   5.809  14.892  11.040 -0.2585  0.2547 -0.0287
  500loPI   GL2 7990   6.206  14.932  10.981  0.1073  0.2630 -0.0964
  500loPI   C1A 7991   5.846  14.783  10.619 -0.2274  0.3366 -0.1025
  500loPI   C2A 7992   5.775  14.745  10.197  0.0928 -0.3991 -0.0843
  500loPI   C3A 7993   5.802  14.744   9.817 -0.0227 -0.2930  0.0407
  500loPI   C4A 7994   5.818  14.712   9.489 -0.0156 -0.1244 -0.1865
  500loPI   C5A 7995   5.856  14.775   9.032  0.1883 -0.0635  0.1988
  500loPI   C6A 7996   6.017  14.897   8.638  0.1277  0.1228  0.2266
  500loPI   C1B 7997   6.348  14.919  10.528 -0.0411 -0.0699  0.2468
  500loPI   C2B 7998   6.409  14.952  10.129 -0.1873 -0.0425  0.1140
  500loPI   C3B 7999   6.260  14.857   9.690 -0.1296  0.0854  0.0437
  500loPI   C4B 8000   6.322  14.748   9.245 -0.0944  0.3087 -0.0795
  501loPI    C1 8001  16.846   9.732  11.438  0.0924  0.0212  0.0222
  501loPI    C2 8002  16.785  10.113  11.543 -0.1124  0.0379 -0.1523
  501loPI    C3 8003  16.590   9.820  11.733 -0.0209  0.0259 -0.0767
  501loPI   PO4 8004  16.850   9.757  11.200  0.2209  0.0098 -0.0678
  501loPI   GL1 8005  16.616   9.839  10.804  0.0319 -0.1982 -0.0388
  501loPI   GL2 8006  16.281   9.721  10.779 -0.1682  0.1767 -0.1778
  501loPI   C1A 8007  16.954   9.850  10.526 -0.1653 -0.1400  0.1358
  501loPI   C2A 8008  16.859   9.856  10.115  0.1314  0.2353  0.0643
  501loPI   C3A 8009  16.808   9.873   9.704  0.0158 -0.3161  0.2251
  501loPI   C4A 8010  16.829  10.003   9.258 -0.2362 -0.0464  0.0174
  501loPI   C5A 8011  16.701   9.814   8.843 -0.3623  0.0498 -0.0862
  501loPI   C6A 8012  16.757   9.587   8.440 -0.1601  0.0839 -0.2046
  501loPI   C1B 8013  16.401   9.729  10.364 -0.0979 -0.1488 -0.0521
  501loPI   C2B 8014  16.344   9.740   9.937 -0.0248 -0.0222  0.0028
  501loPI   C3B 8015  16.304   9.731   9.535 -0.0800  0.1355 -0.0756
  501loPI   C4B 8016  16.248   9.869   9.181  0.1496 -0.3089 -0.0881
  502loPI    C1 8017  15.355  15.431  11.667  0.0601  0.0206 -0.0902
  502loPI    C2 8018  15.181  15.100  11.809  0.0714 -0.0195 -0.1693
  502loPI    C3 8019  14.981  15.446  11.809  0.1552  0.0323  0.1642
  502loPI   PO4 8020  15.535  15.379  11.368 -0.5179 -0.1229 -0.1406
  502loPI   GL1 8021  15.392  15.458  10.936 -0.0017  0.0073  0.2344
  502loPI   GL2 8022  15.408  15.105  10.901 -0.1183  0.0515 -0.2014
  502loPI   C1A 8023  15.154  15.665  10.529  0.0160 -0.0987  0.0859
  502loPI   C2A 8024  15.080  15.538  10.097 -0.3500 -0.0223 -0.2187
  502loPI   C3A 8025  15.016  15.496   9.647  0.3195  0.0281  0.1017
  502loPI   C4A 8026  15.037  15.552   9.283  0.2179  0.0507  0.1033
  502loPI   C5A 8027  15.001  15.415   8.868  0.1210 -0.0591  0.2015
  502loPI   C6A 8028  15.280  15.440   8.494 -0.0767 -0.1603  0.0234
  502loPI   C1B 8029  15.425  15.261  10.457 -0.1969  0.1080 -0.1993
  502loPI   C2B 8030  15.349  15.063  10.091  0.2798  0.2099  0.0009
  502loPI   C3B 8031  15.333  15.076   9.790 -0.1761  0.0302  0.1061
  502loPI   C4B 8032  15.255  15.126   9.260  0.1463 -0.0674 -0.1516
  503loPI    C1 8033   0.948   0.842  11.414  0.1671  0.0732  0.0297
  503loPI    C2 8034   0.672   1.106  11.534  0.0666  0.0368 -0.1184
  503loPI    C3 8035   0.867   0.883  11.804  0.0640  0.1739 -0.0017
  503loPI   PO4 8036   0.774   0.719  11.242  0.0043 -0.2674 -0.0357
  503loPI   GL1 8037   0.752   0.474  10.877  0.4077 -0.1034  0.0667
  503loPI   GL2 8038   0.821   0.708  10.724 -0.3288  0.2130 -0.0876
  503loPI   C1A 8039   0.586   0.105  10.628  0.0079  0.3467  0.4050
  503loPI   C2A 8040   0.638   0.073  10.237 -0.4990  0.2990  0.2604
  503loPI   C3A 8041   0.741   0.032   9.733 -0.0393  0.1614 -0.0054
  503loPI   C4A 8042   0.738  -0.046   9.296  0.3291 -0.2618  0.2443
  503loPI   C5A 8043   0.724  -0.248   8.843 -0.1119  0.1202  0.1459
  503loPI   C6A 8044   0.416  -0.379   8.476 -0.0773  0.1682  0.1862
  503loPI   C1B 8045   0.832   0.529  10.392 -0.3518 -0.2260 -0.0558
  503loPI   C2B 8046   0.863   0.494   9.946 -0.2371  0.0309  0.1557
  503loPI   C3B 8047   0.875   0.524   9.528  0.0401 -0.0586  0.3176
  503loPI   C4B 8048   0.797   0.413   9.121 -0.0052 -0.2223  0.1571
  504loPI    C1 8049  10.572  10.070  11.545  0.2765 -0.0681 -0.1088
  504loPI    C2 8050  10.684   9.829  11.844  0.0415 -0.1211 -0.0613
  504loPI    C3 8051  10.667   9.689  11.470 -0.4245 -0.2821  0.0133
  504loPI   PO4 8052  10.680  10.241  11.447 -0.0507  0.1450 -0.0247
  504loPI   GL1 8053  10.659  10.520  11.054 -0.1511 -0.0861  0.0754
  504loPI   GL2 8054  10.385  10.449  11.064 -0.2431  0.0693  0.1875
  504loPI   C1A 8055  10.938  10.614  10.722  0.2288  0.2125  0.1113
  504loPI   C2A 8056  11.053  10.664  10.290 -0.1022  0.2966 -0.1075
  504loPI   C3A 8057  10.952  10.615   9.881 -0.0804 -0.4191 -0.2112
  504loPI   C4A 8058  10.914  10.620   9.468 -0.2665  0.1062  0.0861
  504loPI   C5A 8059  11.030  10.770   9.043  0.1120  0.0730  0.1521
  504loPI   C6A 8060  11.126  10.945   8.644 -0.1801  0.1870 -0.0229
  504loPI   C1B 8061  10.440  10.536  10.586 -0.2913  0.0668 -0.3581
  504loPI   C2B 8062  10.507  10.609  10.203 -0.0811  0.0268  0.0205
  504loPI   C3B 8063  10.486  10.589   9.771 -0.0547 -0.0268  0.2343
  504loPI   C4B 8064  10.454  10.566   9.426 -0.3684 -0.2050 -0.0560
  505loPI    C1 8065  16.257   4.293  11.702  0.1526  0.2056 -0.1399
  505loPI    C2 8066  16.104   4.610  11.893 -0.0571  0.0721 -0.0830
  505loPI    C3 8067  16.498   4.542  11.901 -0.0791 -0.0385  0.4705
  505loPI   PO4 8068  16.021   4.202  11.638 -0.4048 -0.2090  0.0964
  505loPI   GL1 8069  15.802   4.186  11.286 -0.0957 -0.2737 -0.3052
  505loPI   GL2 8070  15.791   3.938  11.238  0.0860  0.0075  0.2109
  505loPI   C1A 8071  15.832   4.250  10.789 -0.1048  0.1588 -0.1329
  505loPI   C2A 8072  15.776   4.192  10.374 -0.0313 -0.0806 -0.1525
  505loPI   C3A 8073  15.752   4.203   9.961 -0.0388 -0.0728  0.2850
  505loPI   C4A 8074  15.787   4.157   9.557  0.1844  0.1618 -0.2575
  505loPI   C5A 8075  15.860   4.214   9.225 -0.1631  0.0694  0.2044
  505loPI   C6A 8076  16.275   4.089   8.993  0.0357  0.3255 -0.1007
  505loPI   C1B 8077  15.683   3.759  10.748  0.1191  0.0908  0.1603
  505loPI   C2B 8078  15.587   3.701  10.374  0.0349 -0.0808  0.1691
  505loPI   C3B 8079  15.556   3.670   9.974  0.0805 -0.0359  0.1449
  505loPI   C4B 8080  15.593   3.714   9.534 -0.1370 -0.0729  0.0301
  506loPI    C1 8081  12.277   0.030  11.638  0.2898  0.0962  0.1550
  506loPI    C2 8082  12.433   0.322  11.862  0.1648  0.1683  0.1489
  506loPI    C3 8083  12.463  -0.058  11.981  0.3379  0.1816  0.1514
  506loPI   PO4 8084  12.382   0.030  11.367 -0.3674 -0.1117  0.0116
  506loPI   GL1 8085  12.666  -0.033  11.149 -0.1234  0.1414  0.0387
  506loPI   GL2 8086  12.873  -0.328  11.132  0.1546  0.1146  0.2652
  506loPI   C1A 8087  12.737   0.358  10.841 -0.1143 -0.0891 -0.0884
  506loPI   C2A 8088  12.623   0.405  10.461  0.1912  0.1228 -0.0333
  506loPI   C3A 8089  12.558   0.368  10.064  0.4364  0.0599  0.2510
  506loPI   C4A 8090  12.631   0.327   9.660 -0.3359  0.0413  0.3416
  506loPI   C5A 8091  12.544   0.388   9.319  0.0311 -0.0421 -0.1169
  506loPI   C6A 8092  12.530   0.242   8.867 -0.1677 -0.2397 -0.1069
  506loPI   C1B 8093  12.723  -0.509  10.727  0.1147 -0.0622  0.0869
  506loPI   C2B 8094  12.803  -0.519  10.301 -0.1739 -0.0879  0.0090
  506loPI   C3B 8095  12.778  -0.495   9.897 -0.2298 -0.0166 -0.0526
  506loPI   C4B 8096  12.757  -0.551   9.463  0.1744  0.1161  0.0950
  507loPI    C1 8097  10.917   5.374  11.787  0.0444 -0.1232 -0.1885
  507loPI    C2 8098  11.271   5.241  11.917  0.0091  0.0560  0.0981
  507loPI    C3 8099  10.955   5.241  12.162 -0.1331  0.1172 -0.0831
  507loPI   PO4 8100  10.888   5.262  11.539  0.0901 -0.1148 -0.1604
  507loPI   GL1 8101  10.936   5.452  11.256 -0.0186  0.1373 -0.1721
  507loPI   GL2 8102  10.620   5.620  11.120  0.2029 -0.2892  0.0667
  507loPI   C1A 8103  10.983   5.158  10.886 -0.2067  0.0131 -0.1194
  507loPI   C2A 8104  10.955   5.157  10.496  0.1272 -0.0077 -0.2211
  507loPI   C3A 8105  10.995   5.145   9.949  0.0344  0.0437 -0.1539
  507loPI   C4A 8106  10.931   5.098   9.495 -0.1145  0.2464  0.2063
  507loPI   C5A 8107  10.917   4.905   9.039  0.5052 -0.0781  0.0751
  507loPI   C6A 8108  10.895   4.731   8.647  0.0678  0.2856 -0.1673
  507loPI   C1B 8109  10.647   5.551  10.789  0.1135  0.0337  0.3023
  507loPI   C2B 8110  10.594   5.626  10.408 -0.1446 -0.2047  0.1203
  507loPI   C3B 8111  10.654   5.477   9.946 -0.1243  0.4060  0.2314
  507loPI   C4B 8112  10.575   5.539   9.506  0.2774 -0.1429 -0.1683
  508loPI    C1 8113   0.550  11.460  11.755 -0.1135  0.0937 -0.0280
  508loPI    C2 8114   0.437  11.825  11.874  0.1800  0.1259  0.1636
  508loPI    C3 8115   0.508  11.539  12.145 -0.1670 -0.1137  0.0097
  508loPI   PO4 8116   0.709  11.405  11.505 -0.0034 -0.1685  0.0567
  508loPI   GL1 8117   1.010  11.161  11.158  0.1805  0.0250 -0.0452
  508loPI   GL2 8118   0.770  11.174  11.082 -0.0894  0.0888 -0.0414
  508loPI   C1A 8119   1.222  11.229  10.782 -0.0025  0.1924  0.3838
  508loPI   C2A 8120   1.228  11.131  10.429 -0.1305  0.0145  0.2828
  508loPI   C3A 8121   1.328  11.221  10.069  0.1233  0.3347 -0.0402
  508loPI   C4A 8122   1.153  11.120   9.669  0.0689  0.2678  0.0661
  508loPI   C5A 8123   1.304  11.181   9.259 -0.1420  0.1916  0.0029
  508loPI   C6A 8124   1.311  11.408   8.946  0.1970  0.1923 -0.2202
  508loPI   C1B 8125   0.784  11.086  10.594  0.0003 -0.3474 -0.0627
  508loPI   C2B 8126   0.743  11.035  10.141  0.0441  0.1307 -0.0451
  508loPI   C3B 8127   0.702  11.031   9.696  0.0713  0.1846  0.1789
  508loPI   C4B 8128   0.814  11.018   9.275 -0.0742 -0.1263  0.0509
  509loPI    C1 8129   8.873   8.381  11.991  0.0358 -0.0627  0.1495
  509loPI    C2 8130   8.513   8.477  12.137  0.1031  0.2587  0.1120
  509loPI    C3 8131   8.723   8.179  12.302 -0.2516 -0.0474  0.0238
  509loPI   PO4 8132   8.819   8.244  11.692 -0.3243 -0.0835 -0.1999
  509loPI   GL1 8133   8.807   8.283  11.270  0.0339  0.4023  0.0176
  509loPI   GL2 8134   8.523   8.349  11.257  0.0525 -0.0811  0.2540
  509loPI   C1A 8135   8.762   8.346  10.755 -0.0724  0.0458 -0.2456
  509loPI   C2A 8136   8.826   8.492  10.337  0.0127  0.1782 -0.1471
  509loPI   C3A 8137   8.784   8.410   9.932  0.2306  0.2258  0.0933
  509loPI   C4A 8138   8.719   8.440   9.454  0.0249 -0.1015 -0.1685
  509loPI   C5A 8139   8.909   8.166   9.159 -0.3049  0.1423  0.0795
  509loPI   C6A 8140   9.223   7.898   9.140 -0.3076  0.0510 -0.1655
  509loPI   C1B 8141   8.292   8.375  10.920 -0.1898  0.2297  0.1533
  509loPI   C2B 8142   8.230   8.286  10.557  0.4261 -0.0872 -0.0646
  509loPI   C3B 8143   8.232   8.237  10.116 -0.2618 -0.0960 -0.0582
  509loPI   C4B 8144   8.246   8.286   9.768 -0.1082  0.3902  0.0658
  510loPI    C1 8145   6.251  15.183  11.502 -0.1505  0.1835 -0.0869
  510loPI    C2 8146   6.477  15.277  11.818 -0.0792 -0.0464 -0.0674
  510loPI    C3 8147   6.082  15.339  11.829 -0.0604  0.0615  0.0188
  510loPI   PO4 8148   6.450  15.264  11.258  0.0450 -0.1869 -0.2079
  510loPI   GL1 8149   6.709  15.465  10.935 -0.0803  0.1806 -0.1743
  510loPI   GL2 8150   6.924  15.498  10.745  0.0599  0.3634 -0.0985
  510loPI   C1A 8151   6.487  15.412  10.523  0.0940  0.1928 -0.1067
  510loPI   C2A 8152   6.593  15.401  10.171 -0.0469  0.2043 -0.0308
  510loPI   C3A 8153   6.471  15.305   9.754  0.0916 -0.0720 -0.3607
  510loPI   C4A 8154   6.527  15.261   9.360 -0.1962  0.1035 -0.1822
  510loPI   C5A 8155   6.562  15.145   8.947 -0.0647 -0.0363  0.2906
  510loPI   C6A 8156   6.417  15.180   8.625  0.2455  0.1699 -0.1558
  510loPI   C1B 8157   7.064  15.488  10.354  0.0114 -0.2598  0.2116
  510loPI   C2B 8158   6.969  15.443   9.813  0.0966  0.2154 -0.0706
  510loPI   C3B 8159   7.051  15.374   9.415  0.1423 -0.0764  0.0419
  510loPI   C4B 8160   6.999  15.262   9.105 -0.0364 -0.0792  0.1203
  511loPI    C1 8161  14.324   7.824  11.695  0.0997  0.0204  0.1141
  511loPI    C2 8162  14.395   8.165  11.892 -0.2877  0.0564  0.1988
  511loPI    C3 8163  14.250   7.847  12.087 -0.0824 -0.1076  0.0884
  511loPI   PO4 8164  14.286   7.893  11.498 -0.0951  0.0409  0.1322
  511loPI   GL1 8165  14.228   8.077  11.127  0.0041  0.0053  0.0213
  511loPI   GL2 8166  14.374   7.756  10.990 -0.1539 -0.1191  0.1431
  511loPI   C1A 8167  14.259   8.033  10.653  0.1237  0.1634  0.0027
  511loPI   C2A 8168  14.205   8.074  10.296  0.0269  0.0942  0.0573
  511loPI   C3A 8169  14.302   8.079   9.945  0.1405 -0.0394 -0.0609
  511loPI   C4A 8170  14.356   7.945   9.516  0.1242 -0.1463  0.1917
  511loPI   C5A 8171  14.459   8.023   9.066 -0.0240  0.1501  0.0463
  511loPI   C6A 8172  14.265   7.692   8.702 -0.1847  0.2310 -0.1470
  511loPI   C1B 8173  14.142   7.580  10.560 -0.1014  0.1603  0.1646
  511loPI   C2B 8174  14.170   7.558  10.205  0.1126  0.0446 -0.1071
  511loPI   C3B 8175  14.152   7.547   9.747  0.3242 -0.1270 -0.2035
  511loPI   C4B 8176  14.265   7.523   9.339  0.1917  0.0536 -0.0353
  512loPI    C1 8177   3.038   2.044  11.484 -0.0172  0.0882  0.0410
  512loPI    C2 8178   3.028   1.701  11.690 -0.2249  0.0591 -0.0158
  512loPI    C3 8179   3.327   1.960  11.748 -0.0526 -0.1430  0.0085
  512loPI   PO4 8180   2.980   1.906  11.241 -0.0814 -0.0469  0.3838
  512loPI   GL1 8181   2.781   1.963  10.881 -0.2355  0.0368  0.0468
  512loPI   GL2 8182   2.406   1.921  10.821 -0.0047  0.3042  0.1582
  512loPI   C1A 8183   2.832   2.125  10.505 -0.3133 -0.1442  0.0121
  512loPI   C2A 8184   2.828   2.293  10.167  0.0354  0.1105 -0.0637
  512loPI   C3A 8185   2.839   2.260   9.779 -0.0294 -0.0226  0.0283
  512loPI   C4A 8186   2.855   2.207   9.368 -0.2615 -0.1360  0.2086
  512loPI   C5A 8187   2.792   2.248   8.958 -0.1250 -0.0659  0.1913
  512loPI   C6A 8188   2.615   2.091   8.642  0.1858 -0.1817 -0.1989
  512loPI   C1B 8189   2.311   2.125  10.378 -0.1313  0.0600  0.0020
  512loPI   C2B 8190   2.317   2.246  10.010  0.2321  0.1363  0.1197
  512loPI   C3B 8191   2.344   2.209   9.678  0.0637 -0.0901 -0.1702
  512loPI   C4B 8192   2.310   2.119   9.177  0.0841  0.0412  0.0253
  513loPI    C1 8193   9.735  10.531  11.753  0.0995 -0.0196 -0.0735
  513loPI    C2 8194   9.528  10.839  11.902 -0.0004 -0.1162 -0.0104
  513loPI    C3 8195   9.885  10.744  12.056  0.0872  0.0442 -0.1123
  513loPI   PO4 8196   9.588  10.441  11.593 -0.1912 -0.0236 -0.2445
  513loPI   GL1 8197   9.654  10.396  11.210  0.3356 -0.0495 -0.3235
  513loPI   GL2 8198   9.311  10.539  11.180 -0.0997 -0.3472  0.0189
  513loPI   C1A 8199   9.910  10.386  10.919 -0.1562  0.0907  0.0546
  513loPI   C2A 8200   9.919  10.462  10.504  0.2341 -0.0705 -0.1803
  513loPI   C3A 8201  10.034  10.546  10.040 -0.1361 -0.0528 -0.1366
  513loPI   C4A 8202   9.979  10.417   9.620  0.1585 -0.1046 -0.1661
  513loPI   C5A 8203   9.931  10.507   9.165 -0.3057 -0.1008 -0.1039
  513loPI   C6A 8204   9.659  10.396   8.825  0.2087  0.0593 -0.3250
  513loPI   C1B 8205   9.428  10.423  10.737  0.1752  0.0032 -0.1906
  513loPI   C2B 8206   9.466  10.406  10.301  0.1364 -0.2921 -0.0748
  513loPI   C3B 8207   9.433  10.363   9.798 -0.0798  0.1386  0.1118
  513loPI   C4B 8208   9.455  10.390   9.268 -0.0454 -0.3008 -0.0226
  514loPI    C1 8209   2.995  11.523  11.741 -0.1743  0.0095 -0.0560
  514loPI    C2 8210   3.087  11.911  11.777 -0.3311  0.0476 -0.0585
  514loPI    C3 8211   3.226  11.647  12.043 -0.2712  0.1138 -0.0239
  514loPI   PO4 8212   2.997  11.493  11.501 -0.3224  0.2060 -0.3566
  514loPI   GL1 8213   3.281  11.508  11.051 -0.0123 -0.2618  0.0034
  514loPI   GL2 8214   2.910  11.525  11.062  0.1353 -0.3080  0.0358
  514loPI   C1A 8215   3.226  11.538  10.578  0.4932 -0.0558  0.2583
  514loPI   C2A 8216   3.270  11.666  10.228  0.1784  0.0949  0.0107
  514loPI   C3A 8217   3.283  11.644   9.759  0.0659  0.0427 -0.1456
  514loPI   C4A 8218   3.230  11.616   9.291 -0.0769  0.0511 -0.4649
  514loPI   C5A 8219   3.233  11.508   8.905  0.2610 -0.1236 -0.1098
  514loPI   C6A 8220   3.083  11.505   8.571  0.2286 -0.2427 -0.0880
  514loPI   C1B 8221   2.698  11.462  10.624 -0.1234  0.0515  0.1175
  514loPI   C2B 8222   2.688  11.503  10.256  0.1530 -0.2233  0.4599
  514loPI   C3B 8223   2.795  11.510   9.833 -0.3053 -0.1283  0.1870
  514loPI   C4B 8224   2.740  11.504   9.346  0.3442 -0.0013 -0.1262
  515loPI    C1 8225  16.508  16.542  11.661 -0.1550  0.2743 -0.1737
  515loPI    C2 8226  16.185  16.407  11.855 -0.0168  0.1422 -0.0326
  515loPI    C3 8227  16.486  16.572  12.059  0.0858  0.0964 -0.1448
  515loPI   PO4 8228  16.410  16.482  11.438 -0.1124 -0.0510  0.0511
  515loPI   GL1 8229  16.244  16.495  11.114  0.0596  0.0234 -0.0505
  515loPI   GL2 8230  16.362  16.204  10.985  0.0849 -0.0907  0.0904
  515loPI   C1A 8231  16.432  16.741  10.743  0.0293  0.3786 -0.2284
  515loPI   C2A 8232  16.422  16.817  10.324  0.1460 -0.0554  0.0847
  515loPI   C3A 8233  16.321  16.732   9.948 -0.0545 -0.0461  0.1289
  515loPI   C4A 8234  16.388  16.691   9.557 -0.1668 -0.0964  0.2118
  515loPI   C5A 8235  16.306  16.650   9.003 -0.1133 -0.2904 -0.0345
  515loPI   C6A 8236  16.480  16.746   8.626 -0.0572 -0.0494 -0.1731
  515loPI   C1B 8237  16.213  16.229  10.593  0.0174 -0.1026 -0.0864
  515loPI   C2B 8238  16.215  16.333  10.207  0.3263 -0.0755  0.0919
  515loPI   C3B 8239  16.228  16.217   9.836 -0.3276 -0.0309 -0.0508
  515loPI   C4B 8240  16.248  16.137   9.406  0.0015  0.1431  0.3292
  516loPI    C1 8241   1.312  14.580  11.695  0.1846  0.3016  0.1375
  516loPI    C2 8242   0.915  14.541  11.729  0.2115 -0.1600 -0.0083
  516loPI    C3 8243   1.131  14.667  12.041 -0.0202 -0.1523  0.1512
  516loPI   PO4 8244   1.273  14.662  11.364 -0.1795  0.0617  0.1587
  516loPI   GL1 8245   1.258  14.601  10.996 -0.0757 -0.1641 -0.1944
  516loPI   GL2 8246   1.062  14.800  10.839  0.0398 -0.3707 -0.0005
  516loPI   C1A 8247   1.402  14.492  10.679  0.1196 -0.0776 -0.1122
  516loPI   C2A 8248   1.429  14.510  10.237 -0.1741 -0.1410 -0.0757
  516loPI   C3A 8249   1.338  14.432   9.852 -0.3159 -0.2658  0.0789
  516loPI   C4A 8250   1.371  14.452   9.410  0.1038  0.0329 -0.2052
  516loPI   C5A 8251   1.359  14.491   8.960 -0.1140  0.1852 -0.0413
  516loPI   C6A 8252   1.347  14.183   8.665 -0.0644 -0.0395 -0.2947
  516loPI   C1B 8253   1.126  14.875  10.437  0.0631 -0.0016  0.0426
  516loPI   C2B 8254   1.027  14.821   9.960  0.1969 -0.2702  0.1055
  516loPI   C3B 8255   1.007  14.816   9.526 -0.2770 -0.0029 -0.1734
  516loPI   C4B 8256   1.022  14.798   9.151  0.0647 -0.0328  0.0478
  517loPI    C1 8257  16.850   8.765  11.787  0.1128 -0.1750  0.1839
  517loPI    C2 8258  17.055   8.954  12.074 -0.0821  0.1022  0.1445
  517loPI    C3 8259  16.724   8.750  12.167 -0.0559  0.0572  0.1392
  517loPI   PO4 8260  16.841   8.839  11.613 -0.1034  0.1298  0.0676
  517loPI   GL1 8261  16.908   8.790  11.130 -0.0301  0.2391  0.2690
  517loPI   GL2 8262  17.149   8.872  11.136  0.0415 -0.2947 -0.2429
  517loPI   C1A 8263  16.607   8.852  10.800 -0.0298 -0.1148 -0.2159
  517loPI   C2A 8264  16.476   8.901  10.475 -0.2350  0.0102  0.3517
  517loPI   C3A 8265  16.405   8.921   9.987 -0.1881 -0.3320 -0.0012
  517loPI   C4A 8266  16.423   8.888   9.524 -0.0503  0.0663 -0.2870
  517loPI   C5A 8267  16.392   9.017   9.073  0.1805 -0.0044  0.0327
  517loPI   C6A 8268  16.529   9.134   8.744  0.2633  0.0143 -0.2433
  517loPI   C1B 8269  17.074   8.941  10.648 -0.0860  0.3362 -0.3616
  517loPI   C2B 8270  16.952   8.949  10.234  0.1119 -0.0178  0.1666
  517loPI   C3B 8271  16.978   8.997   9.758  0.0224 -0.1154 -0.2134
  517loPI   C4B 8272  16.852   9.023   9.386 -0.2249 -0.0740  0.1714
  518loPI    C1 8273  10.873   7.544  11.655 -0.0380 -0.0567  0.1717
  518loPI    C2 8274  10.951   7.175  11.522 -0.0989 -0.0259  0.0496
  518loPI    C3 8275  10.922   7.244  11.915  0.0979 -0.1143  0.0805
  518loPI   PO4 8276  10.709   7.678  11.457  0.0209  0.0351  0.1536
  518loPI   GL1 8277  10.939   7.732  11.125  0.0198 -0.2198  0.3701
  518loPI   GL2 8278  11.088   7.476  11.144  0.0798  0.0896 -0.1043
  518loPI   C1A 8279  10.845   7.917  10.838  0.0264 -0.2112 -0.0225
  518loPI   C2A 8280  10.909   7.911  10.452 -0.1471 -0.0769  0.0302
  518loPI   C3A 8281  10.864   7.954  10.038 -0.0474 -0.1498 -0.0913
  518loPI   C4A 8282  11.004   7.904   9.639  0.0771  0.0827  0.1940
  518loPI   C5A 8283  11.123   7.996   9.249  0.0647 -0.1624 -0.1704
  518loPI   C6A 8284  11.083   8.036   8.858 -0.0877  0.1039  0.1775
  518loPI   C1B 8285  11.203   7.527  10.705  0.0806 -0.2223 -0.1035
  518loPI   C2B 8286  11.248   7.572  10.266  0.2071  0.0401  0.3220
  518loPI   C3B 8287  11.299   7.468   9.871  0.0705 -0.0941  0.5037
  518loPI   C4B 8288  11.366   7.494   9.457  0.0458 -0.0659 -0.0941
  519loPI    C1 8289   0.463   2.347  11.527 -0.3118  0.1778  0.1261
  519loPI    C2 8290   0.589   2.399  11.903 -0.1535 -0.0082  0.1003
  519loPI    C3 8291   0.505   2.031  11.769 -0.1635  0.0519 -0.0607
  519loPI   PO4 8292   0.360   2.580  11.507  0.0114  0.1122  0.1088
  519loPI   GL1 8293   0.203   2.875  11.190 -0.0516 -0.1088  0.2817
  519loPI   GL2 8294   0.339   3.154  10.922 -0.0494 -0.1354 -0.3274
  519loPI   C1A 8295   0.106   2.725  10.779 -0.0284 -0.0814  0.1317
  519loPI   C2A 8296   0.069   2.717  10.337 -0.1636  0.0716 -0.0052
  519loPI   C3A 8297   0.161   2.690   9.877  0.1518  0.1565  0.0366
  519loPI   C4A 8298   0.151   2.662   9.404  0.0874  0.1290  0.2302
  519loPI   C5A 8299   0.231   2.647   8.969  0.2124 -0.2438  0.0674
  519loPI   C6A 8300   0.162   2.635   8.651 -0.0378 -0.0348 -0.0486
  519loPI   C1B 8301   0.337   3.202  10.428 -0.2176  0.2339 -0.1433
  519loPI   C2B 8302   0.316   3.210  10.027  0.0349 -0.3784  0.2013
  519loPI   C3B 8303   0.337   3.121   9.625 -0.0889 -0.1835 -0.1182
  519loPI   C4B 8304   0.333   3.118   9.165  0.0262  0.0178 -0.1762
  520loPI    C1 8305  16.522  15.057  11.546 -0.1308 -0.0296  0.0185
  520loPI    C2 8306  16.560  15.174  11.927 -0.1206  0.0331 -0.0017
  520loPI    C3 8307  16.812  14.904  11.774 -0.0736  0.0689  0.0124
  520loPI   PO4 8308  16.509  15.195  11.458  0.2258  0.2468  0.2153
  520loPI   GL1 8309  16.364  15.353  11.108 -0.0060  0.0525  0.0026
  520loPI   GL2 8310  16.654  15.103  10.993 -0.1330  0.0851 -0.0218
  520loPI   C1A 8311  16.334  15.402  10.691 -0.3399  0.0643  0.2499
  520loPI   C2A 8312  16.419  15.449  10.280 -0.0371  0.2273  0.1211
  520loPI   C3A 8313  16.438  15.388   9.817 -0.3478  0.0027 -0.2125
  520loPI   C4A 8314  16.320  15.326   9.415  0.1273  0.0212  0.0811
  520loPI   C5A 8315  16.317  15.268   9.050  0.0598 -0.1982 -0.0897
  520loPI   C6A 8316  16.461  14.914   8.766  0.2220  0.1353  0.0561
  520loPI   C1B 8317  16.693  15.074  10.592 -0.1896  0.3582 -0.1357
  520loPI   C2B 8318  16.754  14.993  10.157 -0.0178  0.1547  0.0889
  520loPI   C3B 8319  16.747  14.997   9.713 -0.3172  0.1329 -0.4028
  520loPI   C4B 8320  16.630  14.890   9.273 -0.1084  0.5014 -0.1621
  521loPI    C1 8321   9.392  17.155  11.608 -0.1252  0.1743  0.1478
  521loPI    C2 8322   9.677  17.134  11.329  0.0740 -0.0069  0.3612
  521loPI    C3 8323   9.546  16.800  11.507 -0.0976  0.1009  0.4390
  521loPI   PO4 8324   9.226  17.314  11.515  0.1150  0.1956 -0.0727
  521loPI   GL1 8325   9.209  17.487  11.119 -0.0454 -0.0401 -0.1533
  521loPI   GL2 8326   9.290  17.780  11.023 -0.1639  0.0319 -0.2794
  521loPI   C1A 8327   9.053  17.289  10.764 -0.0895  0.1973  0.3522
  521loPI   C2A 8328   8.956  17.194  10.378 -0.0154 -0.0160  0.0664
  521loPI   C3A 8329   8.923  17.240   9.943  0.0577 -0.2099 -0.0597
  521loPI   C4A 8330   9.032  17.208   9.624 -0.1717  0.2125  0.0520
  521loPI   C5A 8331   8.993  17.252   9.195  0.0702 -0.2232 -0.0309
  521loPI   C6A 8332   8.913  17.167   8.807  0.3119  0.0994  0.4834
  521loPI   C1B 8333   9.137  17.780  10.617 -0.2327 -0.0820 -0.0108
  521loPI   C2B 8334   9.123  17.692  10.261  0.1378  0.0504  0.0398
  521loPI   C3B 8335   9.181  17.686   9.840  0.5128  0.0808 -0.0543
  521loPI   C4B 8336   9.201  17.688   9.408  0.2058  0.0692  0.0249
  522loPI    C1 8337  16.714  11.443  11.401 -0.2314  0.1261 -0.0059
  522loPI    C2 8338  16.814  11.523  11.780  0.0578  0.1664 -0.0880
  522loPI    C3 8339  16.593  11.784  11.573  0.1462  0.2817 -0.0383
  522loPI   PO4 8340  16.855  11.371  11.290  0.1144 -0.0051 -0.2333
  522loPI   GL1 8341  16.944  11.546  10.939 -0.1393 -0.0305  0.1350
  522loPI   GL2 8342  16.987  11.235  10.852 -0.1875  0.0995  0.0721
  522loPI   C1A 8343  17.066  11.737  10.597  0.0409  0.3910 -0.1026
  522loPI   C2A 8344  17.003  11.867  10.153  0.2662 -0.1230 -0.1755
  522loPI   C3A 8345  17.034  11.774   9.708  0.1338  0.0323 -0.1257
  522loPI   C4A 8346  16.997  11.718   9.285  0.0957  0.0291  0.0808
  522loPI   C5A 8347  16.948  11.597   8.908  0.0322 -0.0861  0.0157
  522loPI   C6A 8348  17.021  11.201   8.723  0.1685  0.0574  0.1133
  522loPI   C1B 8349  16.904  11.245  10.480 -0.0134  0.2179 -0.1194
  522loPI   C2B 8350  16.856  11.300  10.019  0.0681  0.2624 -0.2052
  522loPI   C3B 8351  16.862  11.240   9.554 -0.1826  0.1056  0.1983
  522loPI   C4B 8352  16.921  11.174   9.250 -0.0982 -0.1214  0.2107
  523loPI    C1 8353   4.591  10.822  11.927 -0.0176 -0.0415  0.0676
  523loPI    C2 8354   4.791  10.559  12.153 -0.1029  0.1032  0.3155
  523loPI    C3 8355   4.391  10.556  12.149 -0.1066 -0.2776 -0.2870
  523loPI   PO4 8356   4.781  10.762  11.629  0.0406 -0.2198 -0.3171
  523loPI   GL1 8357   4.710  10.482  11.309 -0.0564 -0.3335  0.2022
  523loPI   GL2 8358   4.540  10.824  11.239  0.2428  0.0510  0.0678
  523loPI   C1A 8359   4.660  10.606  10.767 -0.0825  0.0247 -0.1644
  523loPI   C2A 8360   4.772  10.591  10.340  0.2338  0.0637 -0.2828
  523loPI   C3A 8361   4.783  10.479   9.919  0.1153 -0.1505 -0.0933
  523loPI   C4A 8362   4.710  10.413   9.483 -0.0690  0.1032 -0.0235
  523loPI   C5A 8363   4.697  10.204   9.090  0.0971 -0.1330 -0.1219
  523loPI   C6A 8364   4.685  10.157   8.676  0.0368  0.0503  0.0573
  523loPI   C1B 8365   4.411  11.005  10.838  0.0265  0.2010 -0.0992
  523loPI   C2B 8366   4.314  10.910  10.436 -0.0076 -0.0172 -0.0724
  523loPI   C3B 8367   4.409  10.845  10.009 -0.1760  0.0270  0.0119
  523loPI   C4B 8368   4.398  10.757   9.528 -0.1159 -0.0363 -0.2624
  524loPI    C1 8369   9.372   0.798  11.720 -0.1919  0.1653 -0.1590
  524loPI    C2 8370   9.069   0.544  11.777 -0.0402  0.0544  0.1762
  524loPI    C3 8371   9.019   0.934  11.849 -0.1715  0.0712 -0.0008
  524loPI   PO4 8372   9.424   0.817  11.558  0.0558 -0.3299 -0.1122
  524loPI   GL1 8373   9.455   0.782  11.164 -0.0293  0.0547 -0.2294
  524loPI   GL2 8374   9.054   0.701  11.229 -0.0456  0.1501 -0.0311
  524loPI   C1A 8375   9.406   0.671  10.720  0.1147 -0.0293  0.0248
  524loPI   C2A 8376   9.335   0.701  10.312  0.0568  0.2463  0.1325
  524loPI   C3A 8377   9.331   0.698   9.834  0.2453  0.0777 -0.1224
  524loPI   C4A 8378   9.404   0.759   9.427 -0.0643  0.1617  0.3360
  524loPI   C5A 8379   9.176   0.599   9.068  0.2153 -0.2220 -0.1490
  524loPI   C6A 8380   8.777   0.672   9.058 -0.1820 -0.0642 -0.1274
  524loPI   C1B 8381   8.938   0.714  10.800  0.1122  0.0227  0.2644
  524loPI   C2B 8382   8.825   0.670  10.360  0.1990 -0.0708 -0.0650
  524loPI   C3B 8383   8.869   0.578   9.968  0.1552 -0.0211  0.1017
  524loPI   C4B 8384   8.898   0.645   9.537  0.2353 -0.0828 -0.0776
  525loPI    C1 8385   8.929  12.247  11.970  0.0630 -0.0320  0.0678
  525loPI    C2 8386   8.821  12.018  12.279  0.0776 -0.1345 -0.0024
  525loPI    C3 8387   9.111  12.290  12.324 -0.0985  0.0319  0.1437
  525loPI   PO4 8388   8.882  12.002  11.741 -0.2953  0.0621 -0.1398
  525loPI   GL1 8389   9.047  11.940  11.414 -0.1408 -0.1449 -0.3313
  525loPI   GL2 8390   8.792  11.943  11.226  0.1508  0.3850 -0.2722
  525loPI   C1A 8391   9.423  11.731  11.134  0.1279  0.1111 -0.2236
  525loPI   C2A 8392   9.585  11.785  10.805 -0.1761  0.0529  0.0234
  525loPI   C3A 8393   9.594  11.774  10.359  0.2147  0.1723 -0.1803
  525loPI   C4A 8394   9.520  11.760   9.920  0.0281 -0.1153  0.2527
  525loPI   C5A 8395   9.494  11.701   9.441  0.2768 -0.0757 -0.1468
  525loPI   C6A 8396   9.514  11.795   9.038 -0.2479 -0.1205 -0.0624
  525loPI   C1B 8397   8.984  11.761  10.924  0.0738 -0.0890  0.0723
  525loPI   C2B 8398   9.035  11.687  10.486  0.3319 -0.1964  0.1018
  525loPI   C3B 8399   8.979  11.636   9.928  0.0712  0.0708  0.0167
  525loPI   C4B 8400   8.967  11.609   9.429 -0.1212 -0.2819  0.3894
  526loPI    C1 8401   3.396  12.903  11.822 -0.2903 -0.1260 -0.1956
  526loPI    C2 8402   3.459  12.626  12.103 -0.1109 -0.0404 -0.1500
  526loPI    C3 8403   3.390  13.005  12.209  0.3711  0.0759 -0.2257
  526loPI   PO4 8404   3.466  12.818  11.620 -0.2154  0.3191 -0.1500
  526loPI   GL1 8405   3.519  12.832  11.166 -0.2108 -0.0332  0.3263
  526loPI   GL2 8406   3.629  12.632  10.920  0.0767 -0.0032 -0.2498
  526loPI   C1A 8407   3.348  12.963  10.760  0.0764 -0.1020  0.0814
  526loPI   C2A 8408   3.309  13.006  10.308  0.0089  0.0485  0.0280
  526loPI   C3A 8409   3.239  12.964   9.853 -0.0437 -0.1278  0.1886
  526loPI   C4A 8410   3.209  12.920   9.380  0.0578  0.0421 -0.0572
  526loPI   C5A 8411   2.946  12.873   9.034  0.1346  0.3213  0.0007
  526loPI   C6A 8412   2.586  12.646   8.912 -0.2162  0.0675 -0.0359
  526loPI   C1B 8413   3.594  12.599  10.499 -0.0240 -0.1526 -0.0044
  526loPI   C2B 8414   3.630  12.569  10.093 -0.3033 -0.0456 -0.2569
  526loPI   C3B 8415   3.540  12.605   9.639  0.1075 -0.0453  0.2443
  526loPI   C4B 8416   3.547  12.546   9.182 -0.1071 -0.0585  0.1821
  527loPI    C1 8417  10.472   9.379  11.764 -0.0929  0.0132 -0.0776
  527loPI    C2 8418  10.361   9.089  12.017 -0.3107  0.0227 -0.1602
  527loPI    C3 8419  10.502   9.435  12.159  0.1536 -0.1977 -0.0638
  527loPI   PO4 8420  10.295   9.321  11.597  0.0579 -0.0836 -0.3573
  527loPI   GL1 8421  10.183   9.385  11.198 -0.0991  0.0276  0.0766
  527loPI   GL2 8422  10.500   9.435  11.122  0.0524  0.0600 -0.0538
  527loPI   C1A 8423  10.133   9.551  10.772  0.0626  0.0141  0.1696
  527loPI   C2A 8424  10.076   9.595  10.314  0.3774  0.1167 -0.2379
  527loPI   C3A 8425  10.136   9.593   9.780 -0.2201 -0.3493 -0.2694
  527loPI   C4A 8426  10.169   9.636   9.292 -0.3573  0.0325  0.0320
  527loPI   C5A 8427  10.088   9.486   8.890 -0.2021 -0.0609  0.1331
  527loPI   C6A 8428  10.011   9.521   8.450  0.3724 -0.2422 -0.0916
  527loPI   C1B 8429  10.613   9.694  10.634  0.0297 -0.2513 -0.4447
  527loPI   C2B 8430  10.632   9.646  10.143 -0.0527  0.2699 -0.1013
  527loPI   C3B 8431  10.663   9.569   9.610  0.2607  0.0557 -0.3489
  527loPI   C4B 8432  10.696   9.731   9.119 -0.2515 -0.0436 -0.0096
  528loPI    C1 8433  13.857  16.325  11.885 -0.2381 -0.2552 -0.0422
  528loPI    C2 8434  13.791  16.205  12.261 -0.0879  0.2347  0.1496
  528loPI    C3 8435  13.704  16.580  12.153 -0.0381  0.1275 -0.2824
  528loPI   PO4 8436  13.780  16.161  11.682  0.0937 -0.3238  0.0482
  528loPI   GL1 8437  13.946  16.082  11.298  0.1533  0.1408  0.3402
  528loPI   GL2 8438  14.246  16.039  11.163 -0.0862 -0.3331  0.2261
  528loPI   C1A 8439  13.815  15.927  10.869  0.2726  0.1205  0.1603
  528loPI   C2A 8440  13.746  15.794  10.486  0.1552 -0.1650 -0.3120
  528loPI   C3A 8441  13.675  15.730  10.138 -0.3385  0.0016  0.0990
  528loPI   C4A 8442  13.698  15.707   9.722 -0.1559  0.0958  0.1641
  528loPI   C5A 8443  13.704  15.667   9.284 -0.0148 -0.0150 -0.0919
  528loPI   C6A 8444  13.454  15.915   9.005 -0.0375  0.0956 -0.1506
  528loPI   C1B 8445  14.278  15.929  10.761  0.1419 -0.1189 -0.2742
  528loPI   C2B 8446  14.275  15.883  10.393  0.3121 -0.0466 -0.1564
  528loPI   C3B 8447  14.306  15.804   9.927 -0.0868  0.0464 -0.2883
  528loPI   C4B 8448  14.156  15.764   9.561 -0.0759  0.0682 -0.3935
  529loPI    C1 8449  11.263   6.107  11.944  0.0314  0.0537  0.1224
  529loPI    C2 8450  10.993   5.815  11.986  0.3620 -0.2459  0.2134
  529loPI    C3 8451  11.055   6.075  12.284 -0.0520  0.0275  0.0691
  529loPI   PO4 8452  11.215   6.183  11.669  0.1992 -0.1264  0.0653
  529loPI   GL1 8453  11.335   6.327  11.291  0.1829  0.0672 -0.1122
  529loPI   GL2 8454  11.578   6.631  11.299 -0.2590 -0.0886  0.2583
  529loPI   C1A 8455  11.289   6.181  10.907 -0.0503 -0.2295  0.3638
  529loPI   C2A 8456  11.257   6.202  10.495 -0.1021 -0.0172  0.1246
  529loPI   C3A 8457  11.278   6.156   9.965  0.2476 -0.0312 -0.0545
  529loPI   C4A 8458  11.214   6.100   9.565 -0.0193  0.1276  0.2062
  529loPI   C5A 8459  11.286   6.093   9.174 -0.0683  0.0103 -0.0870
  529loPI   C6A 8460  11.310   5.804   8.846  0.0589 -0.1527  0.2879
  529loPI   C1B 8461  11.472   6.671  10.916  0.0272  0.0687 -0.2007
  529loPI   C2B 8462  11.469   6.721  10.469  0.4662  0.0871  0.1684
  529loPI   C3B 8463  11.469   6.644  10.037 -0.1074 -0.1355  0.2423
  529loPI   C4B 8464  11.403   6.594   9.489 -0.2719 -0.0225 -0.1585
  530loPI    C1 8465   5.542   9.096  12.038 -0.0069  0.1228  0.0833
  530loPI    C2 8466   5.271   8.923  12.276 -0.1104  0.0770 -0.0664
  530loPI    C3 8467   5.453   9.260  12.392 -0.2291  0.1064  0.0366
  530loPI   PO4 8468   5.423   9.189  11.766  0.1615  0.0636 -0.1614
  530loPI   GL1 8469   5.486   9.262  11.337  0.0859 -0.2993  0.0068
  530loPI   GL2 8470   5.246   9.325  11.178  0.0706 -0.0066  0.0351
  530loPI   C1A 8471   5.661   9.274  10.867  0.0149 -0.1320 -0.0905
  530loPI   C2A 8472   5.761   9.265  10.520  0.0972 -0.3026  0.2628
  530loPI   C3A 8473   5.769   9.338  10.113  0.2056 -0.1171 -0.0597
  530loPI   C4A 8474   5.702   9.201   9.683 -0.2013 -0.3734 -0.0005
  530loPI   C5A 8475   5.637   9.150   9.226  0.1332 -0.1587 -0.0927
  530loPI   C6A 8476   5.504   8.977   8.739  0.0392 -0.0899 -0.3686
  530loPI   C1B 8477   5.375   9.705  10.826  0.1020 -0.2352  0.2021
  530loPI   C2B 8478   5.410   9.692  10.339 -0.0145 -0.0363  0.0688
  530loPI   C3B 8479   5.418   9.587   9.890 -0.0056 -0.2054  0.0055
  530loPI   C4B 8480   5.501   9.602   9.437  0.2517 -0.0265 -0.1675
  531loPI    C1 8481  14.243   1.669  11.768 -0.0764 -0.0916 -0.1584
  531loPI    C2 8482  13.875   1.703  11.921  0.0647 -0.1302  0.1992
  531loPI    C3 8483  14.139   2.000  11.967 -0.0119  0.0286 -0.3217
  531loPI   PO4 8484  14.133   1.609  11.482 -0.1776  0.1318  0.0191
  531loPI   GL1 8485  14.197   1.447  11.078  0.0472 -0.0213 -0.0812
  531loPI   GL2 8486  13.958   1.628  10.938  0.0177  0.0136 -0.0495
  531loPI   C1A 8487  14.317   1.158  10.743  0.0650 -0.0422  0.0117
  531loPI   C2A 8488  14.192   1.128  10.266 -0.1679  0.1524  0.0890
  531loPI   C3A 8489  14.216   1.044   9.838 -0.2083  0.0963 -0.0691
  531loPI   C4A 8490  14.187   1.071   9.428 -0.2515  0.1118 -0.4327
  531loPI   C5A 8491  14.051   1.076   9.077 -0.1539 -0.0084  0.2580
  531loPI   C6A 8492  14.015   1.474   8.827  0.1224 -0.4023 -0.1636
  531loPI   C1B 8493  14.021   1.631  10.447  0.0235  0.0967  0.1172
  531loPI   C2B 8494  13.980   1.623   9.966  0.1446  0.0844 -0.2033
  531loPI   C3B 8495  13.943   1.465   9.591 -0.0806 -0.1911 -0.0251
  531loPI   C4B 8496  13.860   1.516   9.268  0.1520 -0.1152 -0.0978
  532loPI    C1 8497   1.390  12.522  11.426  0.0590 -0.0574 -0.1244
  532loPI    C2 8498   1.131  12.827  11.416 -0.0008 -0.1069 -0.0880
  532loPI    C3 8499   1.387  12.791  11.722 -0.0156 -0.1113 -0.0761
  532loPI   PO4 8500   1.439  12.475  11.172  0.1517  0.1336  0.0996
  532loPI   GL1 8501   1.300  12.709  10.836  0.0277  0.1907  0.0854
  532loPI   GL2 8502   1.408  13.110  10.797  0.2486  0.1482  0.1901
  532loPI   C1A 8503   1.204  12.531  10.471 -0.1429  0.0850  0.2123
  532loPI   C2A 8504   1.223  12.498   9.967 -0.0739  0.0990 -0.1275
  532loPI   C3A 8505   1.253  12.525   9.562 -0.0056 -0.2638 -0.0163
  532loPI   C4A 8506   1.299  12.544   9.049  0.0215  0.0313  0.2517
  532loPI   C5A 8507   1.648  12.647   8.798  0.0087  0.1806 -0.0120
  532loPI   C6A 8508   1.878  12.926   8.482 -0.0942  0.2581  0.0472
  532loPI   C1B 8509   1.461  13.121  10.318 -0.1108  0.2334 -0.0574
  532loPI   C2B 8510   1.370  13.080   9.874 -0.0153 -0.0626  0.2170
  532loPI   C3B 8511   1.364  13.035   9.421  0.2961  0.1502  0.0112
  532loPI   C4B 8512   1.395  13.101   9.044 -0.2551  0.3543  0.0749
  533loPI    C1 8513   0.472  12.860  11.581  0.0904 -0.1466  0.0733
  533loPI    C2 8514   0.253  12.595  11.786  0.1572 -0.1136  0.1879
  533loPI    C3 8515   0.537  12.807  11.972 -0.0575  0.2145  0.1505
  533loPI   PO4 8516   0.552  12.723  11.337  0.0187  0.1689 -0.1885
  533loPI   GL1 8517   0.613  12.728  10.968  0.1250 -0.1900  0.1649
  533loPI   GL2 8518   0.267  12.757  10.822 -0.1389 -0.0268  0.2234
  533loPI   C1A 8519   0.726  12.523  10.541  0.1418 -0.1029  0.3280
  533loPI   C2A 8520   0.728  12.476  10.089 -0.0594  0.0383 -0.0315
  533loPI   C3A 8521   0.657  12.405   9.603 -0.0238 -0.2423 -0.0946
  533loPI   C4A 8522   0.738  12.495   9.314 -0.0238 -0.2813  0.3026
  533loPI   C5A 8523   0.799  12.418   8.869  0.2113 -0.0980 -0.1056
  533loPI   C6A 8524   1.086  12.303   8.632 -0.2841 -0.0007  0.0744
  533loPI   C1B 8525   0.478  12.926  10.360  0.0222 -0.1322  0.0260
  533loPI   C2B 8526   0.376  12.850   9.880 -0.1500 -0.3623  0.0222
  533loPI   C3B 8527   0.338  12.746   9.459 -0.0557  0.0902 -0.0648
  533loPI   C4B 8528   0.420  12.861   9.044 -0.0148 -0.1020  0.1507
  534loPI    C1 8529   4.541   2.023  11.098 -0.3091 -0.0037 -0.2614
  534loPI    C2 8530   4.256   1.843  11.313 -0.2644  0.0350 -0.1696
  534loPI    C3 8531   4.464   1.634  11.044 -0.0097 -0.1263  0.1452
  534loPI   PO4 8532   4.535   2.321  11.039  0.1606  0.1286  0.0868
  534loPI   GL1 8533   4.304   2.645  10.800 -0.1322 -0.0658 -0.1070
  534loPI   GL2 8534   4.086   2.951  10.903  0.2228 -0.0016  0.0775
  534loPI   C1A 8535   4.440   2.595  10.373 -0.0166 -0.0706  0.1878
  534loPI   C2A 8536   4.446   2.632   9.920  0.0947 -0.1958  0.0225
  534loPI   C3A 8537   4.450   2.520   9.546  0.4441  0.0369  0.1977
  534loPI   C4A 8538   4.377   2.552   9.075  0.0772 -0.1922  0.4002
  534loPI   C5A 8539   4.107   2.889   8.830 -0.1781  0.0355 -0.2936
  534loPI   C6A 8540   3.820   3.188   8.807  0.1967 -0.1065 -0.0825
  534loPI   C1B 8541   4.157   2.997  10.510  0.1606 -0.2595 -0.2537
  534loPI   C2B 8542   4.070   2.970  10.121 -0.0554 -0.0506 -0.1203
  534loPI   C3B 8543   4.048   2.921   9.707  0.0511 -0.2756  0.1172
  534loPI   C4B 8544   3.921   2.888   9.289  0.1439  0.0517 -0.0419
  535loPI    C1 8545   8.548   8.695  11.705  0.0014 -0.2286 -0.0137
  535loPI    C2 8546   8.273   8.819  11.443  0.2525  0.2119 -0.0790
  535loPI    C3 8547   8.188   8.812  11.834  0.0445  0.0323 -0.1252
  535loPI   PO4 8548   8.780   8.747  11.547  0.0558  0.1634 -0.4207
  535loPI   GL1 8549   8.885   8.740  11.167 -0.0772  0.0707 -0.1666
  535loPI   GL2 8550   9.044   8.982  11.113  0.0304  0.1568  0.1764
  535loPI   C1A 8551   9.247   8.539  10.993  0.2094 -0.1667  0.2671
  535loPI   C2A 8552   9.296   8.482  10.527 -0.2795  0.3816  0.3437
  535loPI   C3A 8553   9.284   8.556  10.174  0.2533 -0.0881 -0.1665
  535loPI   C4A 8554   9.275   8.526   9.802  0.0426  0.2264  0.1682
  535loPI   C5A 8555   9.234   8.553   9.290  0.2675  0.0004 -0.2202
  535loPI   C6A 8556   9.336   8.898   8.970  0.0182  0.0156  0.3526
  535loPI   C1B 8557   8.888   8.922  10.728 -0.0332 -0.0918 -0.0134
  535loPI   C2B 8558   8.875   8.964  10.391 -0.0773 -0.1053  0.1673
  535loPI   C3B 8559   8.929   8.913   9.978 -0.2325 -0.1823  0.1289
  535loPI   C4B 8560   9.010   8.920   9.544  0.1692  0.1044  0.2059
  536loPI    C1 8561  12.932   0.904  11.742 -0.0533 -0.0257  0.0287
  536loPI    C2 8562  12.719   1.200  11.907 -0.0720  0.0018 -0.0443
  536loPI    C3 8563  13.043   1.058  12.094  0.0683  0.2232 -0.1162
  536loPI   PO4 8564  12.885   0.956  11.479 -0.0361  0.3704  0.0520
  536loPI   GL1 8565  12.982   0.825  11.122 -0.1902 -0.2869 -0.3752
  536loPI   GL2 8566  13.182   0.586  10.925 -0.0054 -0.0605  0.0082
  536loPI   C1A 8567  12.841   0.843  10.625 -0.0470 -0.1063 -0.0678
  536loPI   C2A 8568  12.779   0.786  10.190 -0.1218 -0.0954  0.1264
  536loPI   C3A 8569  12.727   0.810   9.846  0.1107  0.1799 -0.0111
  536loPI   C4A 8570  12.741   0.867   9.384 -0.4346  0.1248  0.1998
  536loPI   C5A 8571  12.701   0.756   8.917  0.2283  0.1005 -0.1725
  536loPI   C6A 8572  12.668   0.563   8.526  0.1196  0.3582  0.0743
  536loPI   C1B 8573  13.152   0.475  10.510 -0.0944  0.2084 -0.0723
  536loPI   C2B 8574  13.064   0.331  10.200 -0.0780  0.2650 -0.0160
  536loPI   C3B 8575  13.111   0.450   9.831  0.0834  0.1605 -0.0726
  536loPI   C4B 8576  13.047   0.376   9.348  0.1235  0.2623 -0.0042
  537loPI    C1 8577   3.598   9.082  11.918 -0.1178 -0.0600 -0.1276
  537loPI    C2 8578   3.358   8.952  12.210 -0.0923 -0.1747 -0.1572
  537loPI    C3 8579   3.747   9.013  12.282 -0.0887 -0.1901 -0.1637
  537loPI   PO4 8580   3.522   8.882  11.720  0.0294  0.0349  0.2178
  537loPI   GL1 8581   3.722   8.838  11.287  0.0024  0.0203 -0.2498
  537loPI   GL2 8582   3.755   9.091  11.148 -0.2717  0.0117  0.0330
  537loPI   C1A 8583   3.652   8.594  10.958 -0.0800  0.1717  0.0503
  537loPI   C2A 8584   3.550   8.607  10.494  0.3050 -0.1072 -0.2825
  537loPI   C3A 8585   3.532   8.536  10.027  0.1716 -0.1819 -0.2058
  537loPI   C4A 8586   3.622   8.476   9.544  0.0287 -0.0604 -0.0139
  537loPI   C5A 8587   3.894   8.420   9.192 -0.2085 -0.3178  0.1625
  537loPI   C6A 8588   4.308   8.255   9.180  0.1639 -0.0922  0.2175
  537loPI   C1B 8589   3.728   9.017  10.709  0.0563  0.1729  0.0848
  537loPI   C2B 8590   3.681   9.000  10.244  0.1152 -0.1955  0.3689
  537loPI   C3B 8591   3.685   8.950   9.820  0.2133 -0.1578  0.0378
  537loPI   C4B 8592   3.757   8.955   9.284 -0.0203 -0.0320 -0.1747
  538loPI    C1 8593   2.778  13.159  11.840  0.0810 -0.1153  0.0723
  538loPI    C2 8594   3.104  13.363  11.950 -0.1057  0.3516 -0.2103
  538loPI    C3 8595   2.849  13.228  12.227  0.3023  0.0091  0.0111
  538loPI   PO4 8596   2.623  13.293  11.642 -0.0079 -0.3100  0.1614
  538loPI   GL1 8597   2.687  13.248  11.220  0.3424  0.3023 -0.3783
  538loPI   GL2 8598   2.578  13.029  11.071 -0.0600 -0.2058  0.1809
  538loPI   C1A 8599   2.960  13.399  10.969  0.1098 -0.0720  0.1952
  538loPI   C2A 8600   2.987  13.406  10.529  0.0624  0.1959  0.0646
  538loPI   C3A 8601   2.861  13.471  10.153  0.0820 -0.3729 -0.2779
  538loPI   C4A 8602   2.898  13.346   9.738  0.0117  0.1491  0.0408
  538loPI   C5A 8603   2.851  13.330   9.319 -0.0357  0.0425 -0.0410
  538loPI   C6A 8604   2.804  13.358   8.885  0.3250  0.0146  0.2809
  538loPI   C1B 8605   2.844  12.938  10.677  0.2081  0.2216  0.0593
  538loPI   C2B 8606   2.734  12.835  10.274 -0.0924 -0.1119  0.1396
  538loPI   C3B 8607   2.746  12.819   9.855  0.0826 -0.2416 -0.3435
  538loPI   C4B 8608   2.710  12.825   9.506 -0.0730  0.2047 -0.0609
  539loPI    C1 8609   3.333   3.954  11.292  0.2208  0.3248  0.1933
  539loPI    C2 8610   2.964   4.100  11.342 -0.0126 -0.1222 -0.1465
  539loPI    C3 8611   3.164   3.949  11.654 -0.2388 -0.1546 -0.0148
  539loPI   PO4 8612   3.521   4.117  11.206 -0.1633 -0.3012  0.0394
  539loPI   GL1 8613   3.677   4.383  10.877 -0.1389  0.1002 -0.0257
  539loPI   GL2 8614   3.556   4.595  10.832 -0.1739  0.0594  0.0297
  539loPI   C1A 8615   3.526   4.260  10.455 -0.0362 -0.0604  0.0340
  539loPI   C2A 8616   3.532   4.158  10.079 -0.0261  0.0678 -0.0506
  539loPI   C3A 8617   3.556   4.125   9.689 -0.2438  0.2165 -0.4711
  539loPI   C4A 8618   3.469   4.117   9.272 -0.0440  0.2741  0.0527
  539loPI   C5A 8619   3.226   4.310   8.949  0.0699  0.1633 -0.2781
  539loPI   C6A 8620   3.087   4.104   8.531  0.0208 -0.0838 -0.0165
  539loPI   C1B 8621   3.281   4.661  10.529  0.0391 -0.0880  0.0406
  539loPI   C2B 8622   3.206   4.571  10.059  0.2162 -0.1341  0.0475
  539loPI   C3B 8623   3.178   4.491   9.711  0.1003  0.1790  0.2995
  539loPI   C4B 8624   3.265   4.545   9.374  0.0562  0.0198 -0.1439
  540loPI    C1 8625   0.657   8.178  11.886 -0.2007 -0.1767 -0.0896
  540loPI    C2 8626   0.361   8.183  12.155 -0.2040 -0.1208 -0.0941
  540loPI    C3 8627   0.739   8.244  12.272 -0.2041 -0.1083 -0.1004
  540loPI   PO4 8628   0.576   8.069  11.669 -0.2822  0.1511 -0.0247
  540loPI   GL1 8629   0.395   8.204  11.224  0.0025  0.1633  0.0207
  540loPI   GL2 8630   0.679   8.166  11.097 -0.2545 -0.0374 -0.0039
  540loPI   C1A 8631   0.291   8.222  10.803  0.0197 -0.0673  0.3346
  540loPI   C2A 8632   0.221   8.306  10.365  0.1165  0.1122 -0.0441
  540loPI   C3A 8633   0.181   8.217   9.886  0.2071  0.0016 -0.0870
  540loPI   C4A 8634   0.170   8.235   9.401  0.1899 -0.0306 -0.0416
  540loPI   C5A 8635   0.472   8.205   8.975  0.1716  0.0476  0.0637
  540loPI   C6A 8636   0.441   7.747   8.970  0.3784 -0.1281  0.1560
  540loPI   C1B 8637   0.759   8.381  10.662  0.2564 -0.0149 -0.1952
  540loPI   C2B 8638   0.786   8.392  10.247 -0.0534  0.1036  0.0905
  540loPI   C3B 8639   0.704   8.301   9.873 -0.0896  0.1473  0.1558
  540loPI   C4B 8640   0.630   8.284   9.516 -0.1433  0.2292  0.1491
  541loPI    C1 8641   5.089   5.251  12.021  0.0757 -0.2006 -0.0694
  541loPI    C2 8642   5.355   4.956  12.065  0.2465  0.0066  0.3419
  541loPI    C3 8643   5.267   5.193  12.374 -0.0969  0.2143  0.0920
  541loPI   PO4 8644   5.071   5.266  11.754  0.0794  0.3041  0.2515
  541loPI   GL1 8645   5.031   5.503  11.345  0.1185 -0.1586  0.1483
  541loPI   GL2 8646   5.115   5.159  11.263  0.0923  0.1729  0.0236
  541loPI   C1A 8647   4.877   5.535  10.904  0.0564  0.0840 -0.1859
  541loPI   C2A 8648   4.934   5.357  10.446  0.1144  0.0217  0.0087
  541loPI   C3A 8649   4.867   5.331   9.987 -0.3357  0.1292  0.0027
  541loPI   C4A 8650   4.902   5.447   9.615  0.0974  0.1203 -0.0740
  541loPI   C5A 8651   4.703   5.301   9.172 -0.1089 -0.0716  0.0054
  541loPI   C6A 8652   4.560   5.068   8.996  0.1302 -0.3269  0.1101
  541loPI   C1B 8653   5.207   5.171  10.788 -0.0083  0.3003 -0.2065
  541loPI   C2B 8654   5.261   4.958  10.403  0.1162 -0.1848 -0.2515
  541loPI   C3B 8655   5.241   5.012   9.971  0.3150 -0.0558 -0.0417
  541loPI   C4B 8656   5.254   4.959   9.539  0.1761  0.0764 -0.3810
  542loPI    C1 8657   9.587   2.624  11.894  0.1287  0.1436  0.0360
  542loPI    C2 8658   9.293   2.499  12.135  0.0779 -0.0038 -0.1005
  542loPI    C3 8659   9.657   2.573  12.284 -0.0440  0.2442  0.0815
  542loPI   PO4 8660   9.445   2.537  11.615 -0.0686 -0.0686 -0.3442
  542loPI   GL1 8661   9.385   2.426  11.245 -0.0647  0.0716  0.1012
  542loPI   GL2 8662   9.792   2.389  11.158  0.0103 -0.0525 -0.0252
  542loPI   C1A 8663   9.397   2.177  10.848  0.1919 -0.3232 -0.1281
  542loPI   C2A 8664   9.399   2.086  10.516  0.0577  0.0374  0.3222
  542loPI   C3A 8665   9.377   2.091  10.081 -0.1999 -0.0494 -0.0591
  542loPI   C4A 8666   9.283   2.119   9.695  0.2509 -0.0472  0.1444
  542loPI   C5A 8667   9.403   2.094   9.267 -0.0715  0.1981 -0.2913
  542loPI   C6A 8668   9.492   2.215   8.816  0.0075  0.1544  0.1251
  542loPI   C1B 8669   9.897   2.272  10.808  0.0259 -0.2817 -0.1126
  542loPI   C2B 8670   9.891   2.204  10.293  0.2240  0.0219 -0.2679
  542loPI   C3B 8671   9.909   2.188   9.885  0.0014 -0.3608 -0.1514
  542loPI   C4B 8672   9.949   2.169   9.460  0.1510  0.1158  0.2208
  543loPI    C1 8673   3.666  14.958  11.429  0.1941  0.0489  0.0146
  543loPI    C2 8674   3.542  15.297  11.601 -0.0677  0.0340 -0.1407
  543loPI    C3 8675   3.375  14.948  11.703  0.1949 -0.0497  0.0124
  543loPI   PO4 8676   3.619  15.021  11.162  0.1325  0.1969  0.0698
  543loPI   GL1 8677   3.636  14.762  10.792  0.2071  0.2128  0.2113
  543loPI   GL2 8678   3.724  14.489  10.802 -0.3441  0.3153 -0.2181
  543loPI   C1A 8679   3.446  14.856  10.364  0.0833 -0.4655 -0.1246
  543loPI   C2A 8680   3.476  14.840   9.886 -0.0507 -0.2046  0.1298
  543loPI   C3A 8681   3.507  14.836   9.372  0.0465 -0.1493 -0.1005
  543loPI   C4A 8682   3.531  14.748   8.935 -0.2205  0.0075 -0.2219
  543loPI   C5A 8683   3.474  14.731   8.462 -0.1048 -0.0358  0.0457
  543loPI   C6A 8684   3.033  14.886   8.274 -0.0008 -0.3048  0.2435
  543loPI   C1B 8685   3.798  14.500  10.360 -0.1454 -0.0047 -0.0208
  543loPI   C2B 8686   3.832  14.401   9.936  0.0722  0.2801  0.0504
  543loPI   C3B 8687   3.799  14.387   9.417  0.2749 -0.1383  0.2062
  543loPI   C4B 8688   3.633  14.289   9.062 -0.1807  0.0722 -0.0978
  544loPI    C1 8689   7.450  13.760  11.891 -0.0661 -0.1336  0.1209
  544loPI    C2 8690   7.792  13.701  12.090 -0.0076 -0.2197 -0.0041
  544loPI    C3 8691   7.441  13.638  12.272  0.0381  0.0599  0.1868
  544loPI   PO4 8692   7.506  13.733  11.635 -0.0503  0.2686  0.0954
  544loPI   GL1 8693   7.547  13.579  11.263 -0.0524  0.3246  0.1855
  544loPI   GL2 8694   7.420  13.841  11.101 -0.1834  0.1986 -0.0128
  544loPI   C1A 8695   7.667  13.367  10.927 -0.2278  0.0431 -0.1202
  544loPI   C2A 8696   7.710  13.316  10.480 -0.1322  0.2506 -0.0791
  544loPI   C3A 8697   7.635  13.316  10.049 -0.1293  0.2330 -0.0620
  544loPI   C4A 8698   7.698  13.192   9.680  0.2162 -0.1114  0.2683
  544loPI   C5A 8699   7.834  13.179   9.286  0.1346 -0.1180 -0.0275
  544loPI   C6A 8700   7.944  13.206   8.875  0.1056 -0.1574  0.0053
  544loPI   C1B 8701   7.364  13.710  10.623  0.1261 -0.0296 -0.1472
  544loPI   C2B 8702   7.337  13.649  10.229  0.1120  0.0448  0.3086
  544loPI   C3B 8703   7.291  13.628   9.822  0.1116  0.1443 -0.3384
  544loPI   C4B 8704   7.353  13.507   9.436  0.1010 -0.1433  0.0325
  545loPI    C1 8705   9.469   7.638  11.815 -0.0548 -0.0361 -0.1967
  545loPI    C2 8706   9.532   7.321  12.050  0.0138  0.0525 -0.0948
  545loPI    C3 8707   9.297   7.620  12.176 -0.1550 -0.0161 -0.2429
  545loPI   PO4 8708   9.420   7.551  11.611 -0.1282 -0.2616 -0.0599
  545loPI   GL1 8709   9.285   7.622  11.244  0.1847 -0.0234 -0.4954
  545loPI   GL2 8710   9.040   7.549  11.275 -0.3079 -0.0413 -0.1507
  545loPI   C1A 8711   9.454   7.603  10.707  0.0336  0.0208  0.0959
  545loPI   C2A 8712   9.456   7.689  10.316  0.1631 -0.1750 -0.0233
  545loPI   C3A 8713   9.418   7.690   9.884  0.3142 -0.1826 -0.2289
  545loPI   C4A 8714   9.492   7.652   9.502 -0.0832 -0.0719 -0.0738
  545loPI   C5A 8715   9.619   7.570   9.136  0.1171  0.0673  0.0579
  545loPI   C6A 8716   9.727   7.637   8.704 -0.1313 -0.0704 -0.0603
  545loPI   C1B 8717   8.931   7.569  10.849  0.3484  0.0052 -0.0224
  545loPI   C2B 8718   8.930   7.535  10.382  0.2471  0.1796 -0.0804
  545loPI   C3B 8719   8.924   7.535   9.938 -0.1312  0.1117  0.1992
  545loPI   C4B 8720   8.957   7.563   9.484  0.0463  0.0433 -0.0986
  546loPI    C1 8721   5.530   7.888  11.657 -0.0762  0.2759  0.1221
  546loPI    C2 8722   5.881   7.969  11.482  0.0371 -0.1015  0.1661
  546loPI    C3 8723   5.873   7.817  11.851 -0.1805  0.0596  0.2298
  546loPI   PO4 8724   5.413   7.850  11.487 -0.1214 -0.0642 -0.1136
  546loPI   GL1 8725   5.480   7.956  11.123  0.1555 -0.0436  0.0259
  546loPI   GL2 8726   5.732   8.137  11.041 -0.0828 -0.1038  0.0821
  546loPI   C1A 8727   5.303   7.764  10.700 -0.0379 -0.0693 -0.2918
  546loPI   C2A 8728   5.248   7.785  10.271 -0.0531 -0.0671  0.1105
  546loPI   C3A 8729   5.280   7.760   9.923  0.2584  0.1828  0.0522
  546loPI   C4A 8730   5.243   7.751   9.588 -0.0591 -0.1110  0.3751
  546loPI   C5A 8731   5.223   7.818   9.171 -0.0820 -0.0969  0.2012
  546loPI   C6A 8732   5.211   7.538   8.877 -0.2432 -0.0195  0.1111
  546loPI   C1B 8733   5.916   8.405  10.747  0.0140  0.2840  0.1600
  546loPI   C2B 8734   5.863   8.430  10.279 -0.1112  0.3567  0.1669
  546loPI   C3B 8735   5.838   8.393   9.845 -0.1910  0.0853 -0.2156
  546loPI   C4B 8736   5.942   8.299   9.458 -0.0012 -0.0231 -0.1667
  547loPI    C1 8737  13.279  10.857  11.737 -0.2145 -0.1843 -0.1184
  547loPI    C2 8738  13.149  10.782  12.108 -0.2375 -0.1001 -0.1092
  547loPI    C3 8739  13.261  11.152  12.006  0.0452 -0.1814 -0.1018
  547loPI   PO4 8740  13.073  10.720  11.580  0.1596  0.3604  0.1304
  547loPI   GL1 8741  13.162  10.604  11.218 -0.0534 -0.3941 -0.0110
  547loPI   GL2 8742  12.847  10.630  11.092 -0.0193  0.1269  0.0057
  547loPI   C1A 8743  13.296  10.481  10.833  0.4516  0.4069 -0.3015
  547loPI   C2A 8744  13.431  10.296  10.452 -0.0878  0.0155 -0.1959
  547loPI   C3A 8745  13.673  10.302  10.007  0.3541  0.0838 -0.0919
  547loPI   C4A 8746  13.634  10.178   9.634 -0.3372 -0.2043 -0.0845
  547loPI   C5A 8747  13.579  10.234   9.203 -0.1632  0.2626 -0.1988
  547loPI   C6A 8748  13.641  10.593   8.864  0.1793  0.1186 -0.1452
  547loPI   C1B 8749  12.820  10.521  10.733 -0.0260  0.0182 -0.0709
  547loPI   C2B 8750  12.753  10.559  10.335 -0.2999 -0.2457  0.0778
  547loPI   C3B 8751  12.809  10.534   9.913 -0.0421 -0.2115 -0.0400
  547loPI   C4B 8752  12.753  10.515   9.536  0.0786 -0.2389  0.1303
  548loPI    C1 8753  10.178   9.800  11.821  0.1691 -0.1492  0.0552
  548loPI    C2 8754   9.950  10.111  11.926  0.0132 -0.2581  0.0427
  548loPI    C3 8755  10.343  10.119  11.997  0.0408  0.0193 -0.1257
  548loPI   PO4 8756  10.125   9.768  11.522 -0.1203 -0.1510  0.1597
  548loPI   GL1 8757  10.262   9.901  11.130 -0.1230  0.0237 -0.0348
  548loPI   GL2 8758   9.927   9.919  11.076  0.2395  0.1400 -0.2076
  548loPI   C1A 8759  10.248  10.079  10.695  0.2433 -0.1098  0.0998
  548loPI   C2A 8760  10.295  10.151  10.224 -0.0879 -0.0841 -0.2121
  548loPI   C3A 8761  10.467  10.003   9.789  0.1463  0.3385 -0.0149
  548loPI   C4A 8762  10.389  10.064   9.411 -0.0750 -0.0586  0.3858
  548loPI   C5A 8763  10.313  10.132   9.043  0.1639  0.1294 -0.2292
  548loPI   C6A 8764  10.178  10.358   8.683  0.1614 -0.0023  0.0133
  548loPI   C1B 8765   9.779   9.927  10.587  0.1565  0.4672 -0.2520
  548loPI   C2B 8766   9.800  10.061  10.174  0.0548 -0.1639  0.0056
  548loPI   C3B 8767   9.754   9.927   9.704 -0.0801 -0.1304  0.3104
  548loPI   C4B 8768   9.826   9.986   9.258  0.0461  0.0295  0.0858
  549loPI    C1 8769   9.726   8.583  11.944  0.2315  0.1474  0.1183
  549loPI    C2 8770   9.387   8.621  12.152  0.1185 -0.2902  0.0233
  549loPI    C3 8771   9.717   8.483  12.331  0.2174  0.0183  0.0848
  549loPI   PO4 8772   9.721   8.464  11.773  0.3190 -0.0155  0.0082
  549loPI   GL1 8773   9.925   8.474  11.351  0.0890 -0.1020  0.0519
  549loPI   GL2 8774  10.073   8.166  11.290  0.1479  0.0783  0.3144
  549loPI   C1A 8775   9.798   8.614  10.925  0.1950 -0.0835  0.0448
  549loPI   C2A 8776   9.782   8.512  10.542  0.1689 -0.2164  0.3662
  549loPI   C3A 8777   9.786   8.673  10.124  0.1939  0.1926 -0.1301
  549loPI   C4A 8778   9.743   8.629   9.676 -0.2776 -0.3414  0.2738
  549loPI   C5A 8779   9.722   8.606   9.198  0.0198 -0.3179 -0.0935
  549loPI   C6A 8780   9.862   8.742   8.923  0.1666  0.2154 -0.1215
  549loPI   C1B 8781  10.069   8.155  10.844 -0.1856 -0.1043  0.4577
  549loPI   C2B 8782  10.084   8.154  10.448 -0.2821  0.1422  0.2081
  549loPI   C3B 8783  10.118   8.165   9.977  0.0238 -0.1397 -0.0177
  549loPI   C4B 8784  10.042   8.236   9.557 -0.1815  0.2173 -0.0761
  550loPI    C1 8785  11.242   6.671  11.840  0.0700  0.0146 -0.0303
  550loPI    C2 8786  11.313   6.909  12.153  0.0631 -0.0167 -0.0049
  550loPI    C3 8787  11.084   6.584  12.197  0.0060  0.0161 -0.0580
  550loPI   PO4 8788  11.170   6.725  11.578 -0.0679 -0.0515 -0.0484
  550loPI   GL1 8789  11.006   6.795  11.156  0.0769  0.0293 -0.3362
  550loPI   GL2 8790  11.126   7.025  10.898  0.0337  0.0580 -0.1894
  550loPI   C1A 8791  10.924   6.531  10.811  0.4768 -0.0437  0.1356
  550loPI   C2A 8792  10.975   6.616  10.324 -0.2144 -0.3467 -0.0568
  550loPI   C3A 8793  10.995   6.642   9.860  0.2723  0.0006 -0.0603
  550loPI   C4A 8794  10.877   6.432   9.409 -0.2720 -0.0582  0.2467
  550loPI   C5A 8795  10.602   6.242   9.051  0.0014 -0.0433 -0.1344
  550loPI   C6A 8796  10.244   6.217   8.787 -0.1199  0.1176  0.0064
  550loPI   C1B 8797  11.072   7.087  10.538  0.2492  0.3358 -0.0004
  550loPI   C2B 8798  11.083   7.092  10.153  0.2848  0.3197 -0.0833
  550loPI   C3B 8799  11.155   7.051   9.633  0.0123 -0.1220  0.3646
  550loPI   C4B 8800  11.162   6.996   9.212  0.0485  0.2957  0.0610
  551loPI    C1 8801   0.843  14.981  11.547  0.1691 -0.1454  0.0101
  551loPI    C2 8802   0.486  15.125  11.654  0.0934 -0.0965 -0.2974
  551loPI    C3 8803   0.730  14.969  11.930 -0.1018  0.0067 -0.0626
  551loPI   PO4 8804   0.910  15.040  11.361  0.0459  0.1245  0.1654
  551loPI   GL1 8805   0.647  15.013  10.916  0.1833 -0.0413 -0.1598
  551loPI   GL2 8806   0.328  15.157  10.858 -0.0090  0.1813 -0.1975
  551loPI   C1A 8807   0.559  14.838  10.539  0.0331 -0.0184 -0.0260
  551loPI   C2A 8808   0.525  14.722  10.173 -0.0905  0.0286 -0.4320
  551loPI   C3A 8809   0.537  14.777   9.771 -0.0246 -0.1319  0.0964
  551loPI   C4A 8810   0.539  14.722   9.383 -0.0545  0.1716 -0.0009
  551loPI   C5A 8811   0.518  14.591   8.952  0.0116  0.0155 -0.3179
  551loPI   C6A 8812   0.289  14.835   8.534  0.0192  0.0320 -0.2844
  551loPI   C1B 8813   0.224  15.220  10.467 -0.0237  0.1946  0.0303
  551loPI   C2B 8814   0.220  15.190   9.966 -0.0358  0.3566  0.2084
  551loPI   C3B 8815   0.176  15.089   9.405 -0.0615 -0.1356  0.0486
  551loPI   C4B 8816   0.242  15.055   9.037  0.0420  0.1100  0.0227
  552loPI    C1 8817  12.709  11.756  11.802  0.0854 -0.0439  0.1554
  552loPI    C2 8818  12.868  11.512  12.076 -0.0747 -0.0184  0.2727
  552loPI    C3 8819  12.589  11.778  12.183  0.0024  0.1257  0.1208
  552loPI   PO4 8820  12.697  11.577  11.590 -0.0518  0.0723  0.0276
  552loPI   GL1 8821  12.534  11.548  11.205 -0.0372 -0.1804 -0.1820
  552loPI   GL2 8822  12.328  11.422  11.190 -0.3426 -0.0049  0.1625
  552loPI   C1A 8823  12.613  11.530  10.750  0.1275  0.0820 -0.0849
  552loPI   C2A 8824  12.666  11.503  10.343 -0.2115 -0.0940 -0.3287
  552loPI   C3A 8825  12.664  11.537   9.977  0.0235 -0.1260 -0.1018
  552loPI   C4A 8826  12.686  11.377   9.528 -0.0904 -0.2770  0.2575
  552loPI   C5A 8827  12.637  11.431   9.170  0.2876  0.1855  0.1924
  552loPI   C6A 8828  12.687  11.546   8.735  0.0856 -0.1431 -0.2737
  552loPI   C1B 8829  12.111  11.348  10.710 -0.2127 -0.2572  0.1266
  552loPI   C2B 8830  12.179  11.368  10.264 -0.0962 -0.4036 -0.2149
  552loPI   C3B 8831  12.159  11.314   9.827  0.0984 -0.1671  0.0765
  552loPI   C4B 8832  12.160  11.411   9.508  0.1439  0.1065 -0.0030
  553loPI    C1 8833   8.313  13.243  11.760 -0.1070 -0.0983  0.0838
  553loPI    C2 8834   8.330  12.907  11.977 -0.1037 -0.0993  0.0819
  553loPI    C3 8835   8.117  13.219  12.108  0.1186 -0.0028  0.2193
  553loPI   PO4 8836   8.346  13.235  11.535 -0.2524  0.0431  0.0127
  553loPI   GL1 8837   8.449  13.142  11.149 -0.0691  0.2961 -0.0633
  553loPI   GL2 8838   8.575  13.462  10.968 -0.1450  0.2876 -0.2846
  553loPI   C1A 8839   8.519  13.012  10.679  0.2700 -0.1879  0.2571
  553loPI   C2A 8840   8.529  12.997  10.206 -0.2139 -0.0000  0.1966
  553loPI   C3A 8841   8.493  12.899   9.746 -0.3364  0.1908 -0.1664
  553loPI   C4A 8842   8.514  12.856   9.328  0.2170  0.2140 -0.1085
  553loPI   C5A 8843   8.598  12.693   8.914 -0.2217 -0.1122 -0.1508
  553loPI   C6A 8844   8.698  12.730   8.546  0.0465 -0.2388  0.0164
  553loPI   C1B 8845   8.694  13.411  10.458 -0.1640 -0.4042 -0.4059
  553loPI   C2B 8846   8.699  13.409   9.925 -0.1554  0.4155  0.1070
  553loPI   C3B 8847   8.741  13.382   9.445  0.1602  0.0623 -0.0322
  553loPI   C4B 8848   8.981  13.546   8.997  0.0462 -0.1173  0.2058
  554loPI    C1 8849   6.383   2.217  11.784  0.1482 -0.1294 -0.1622
  554loPI    C2 8850   6.111   1.948  11.669 -0.1956  0.0537  0.2003
  554loPI    C3 8851   6.277   1.922  12.032  0.0024  0.1524  0.1180
  554loPI   PO4 8852   6.380   2.366  11.554 -0.0556 -0.0545  0.4136
  554loPI   GL1 8853   6.418   2.608  11.140  0.1963 -0.3151  0.0019
  554loPI   GL2 8854   6.398   2.876  11.017  0.0517  0.0610  0.0468
  554loPI   C1A 8855   6.293   2.444  10.701 -0.2103 -0.2005  0.2040
  554loPI   C2A 8856   6.223   2.510  10.211 -0.0061 -0.1751  0.1017
  554loPI   C3A 8857   6.224   2.424   9.802 -0.1131  0.0959  0.1343
  554loPI   C4A 8858   6.196   2.426   9.427 -0.0615 -0.1476 -0.0312
  554loPI   C5A 8859   6.359   2.599   9.067  0.1290 -0.1089  0.0362
  554loPI   C6A 8860   6.233   2.844   8.753  0.0913  0.0256 -0.1452
  554loPI   C1B 8861   6.387   3.042  10.605 -0.1844 -0.1404  0.0119
  554loPI   C2B 8862   6.409   2.976  10.175 -0.0455 -0.0131  0.0192
  554loPI   C3B 8863   6.421   2.919   9.867 -0.0597  0.0254 -0.0174
  554loPI   C4B 8864   6.363   2.944   9.385 -0.0703 -0.0092  0.2804
  555loPI    C1 8865  13.055   2.813  11.662 -0.1207  0.1159  0.0414
  555loPI    C2 8866  13.081   3.149  11.878  0.1176  0.0512  0.1169
  555loPI    C3 8867  12.802   2.876  11.966  0.0196  0.1610  0.1504
  555loPI   PO4 8868  13.104   2.856  11.462 -0.0340  0.0514  0.1386
  555loPI   GL1 8869  12.900   2.879  11.032 -0.0996 -0.2197 -0.0460
  555loPI   GL2 8870  12.780   2.639  11.032 -0.0036 -0.2909  0.1384
  555loPI   C1A 8871  12.917   2.771  10.597 -0.0573  0.2579 -0.1988
  555loPI   C2A 8872  12.848   2.770  10.130  0.1734  0.1705  0.0583
  555loPI   C3A 8873  12.894   2.756   9.701  0.1393  0.1955  0.3170
  555loPI   C4A 8874  12.969   2.709   9.211  0.0961  0.2472  0.2194
  555loPI   C5A 8875  13.310   2.774   8.976 -0.1518  0.1853 -0.0746
  555loPI   C6A 8876  13.684   2.874   8.791 -0.1283 -0.0194  0.0329
  555loPI   C1B 8877  12.721   2.296  10.628 -0.0976 -0.2250  0.1675
  555loPI   C2B 8878  12.708   2.222  10.148  0.2249  0.0242 -0.0127
  555loPI   C3B 8879  12.776   2.226   9.687 -0.1109 -0.0275 -0.1979
  555loPI   C4B 8880  12.826   2.240   9.349  0.3146 -0.0070  0.0232
  556loPI    C1 8881  14.968   8.662  11.596 -0.0425 -0.0593  0.0895
  556loPI    C2 8882  15.158   8.315  11.659 -0.0873 -0.1098 -0.0514
  556loPI    C3 8883  14.843   8.414  11.884  0.1484  0.0086  0.2330
  556loPI   PO4 8884  14.905   8.680  11.384  0.0804 -0.0123  0.1744
  556loPI   GL1 8885  15.072   8.557  10.969  0.0821  0.0400 -0.1605
  556loPI   GL2 8886  15.165   8.261  11.135 -0.0583  0.0433 -0.0571
  556loPI   C1A 8887  15.062   8.623  10.458 -0.0009  0.0333 -0.3584
  556loPI   C2A 8888  14.951   8.695  10.012 -0.1259 -0.0843 -0.3069
  556loPI   C3A 8889  14.983   8.612   9.661  0.1454 -0.1327  0.0813
  556loPI   C4A 8890  14.987   8.622   9.220  0.0069 -0.2112  0.2499
  556loPI   C5A 8891  15.233   8.368   8.905  0.3793  0.0268  0.0050
  556loPI   C6A 8892  15.314   8.047   8.680 -0.1054 -0.1279 -0.2096
  556loPI   C1B 8893  15.345   8.260  10.647  0.1013 -0.0217 -0.0433
  556loPI   C2B 8894  15.381   8.207  10.308 -0.2546  0.2946  0.0627
  556loPI   C3B 8895  15.280   8.272   9.843  0.0315  0.2010 -0.0620
  556loPI   C4B 8896  15.329   8.214   9.410 -0.0296 -0.1888 -0.1320
  557loPI    C1 8897  11.672  11.251  12.051 -0.0518  0.2041 -0.1403
  557loPI    C2 8898  11.488  11.524  12.279 -0.1050 -0.0587  0.1378
  557loPI    C3 8899  11.588  11.168  12.433  0.1110 -0.1382 -0.1747
  557loPI   PO4 8900  11.759  11.370  11.866 -0.1109 -0.0979 -0.0735
  557loPI   GL1 8901  11.739  11.268  11.444  0.0202  0.1877  0.0359
  557loPI   GL2 8902  11.962  11.024  11.260  0.1863  0.0750 -0.0489
  557loPI   C1A 8903  11.647  11.234  10.909  0.5365  0.0737 -0.1562
  557loPI   C2A 8904  11.685  11.235  10.464 -0.1821  0.1272  0.0462
  557loPI   C3A 8905  11.704  11.243  10.077  0.4657  0.0911  0.1563
  557loPI   C4A 8906  11.675  11.278   9.727 -0.0787  0.3908 -0.0140
  557loPI   C5A 8907  11.585  11.306   9.219 -0.0298 -0.3758  0.2191
  557loPI   C6A 8908  11.202  11.221   9.054  0.1893 -0.2044 -0.1943
  557loPI   C1B 8909  11.997  10.820  10.766 -0.2263  0.1234  0.0754
  557loPI   C2B 8910  12.021  10.882  10.388  0.2155 -0.1654  0.0483
  557loPI   C3B 8911  12.013  10.863   9.928  0.0757  0.0277 -0.1280
  557loPI   C4B 8912  11.894  10.888   9.521  0.2594  0.2126  0.0139
  558loPI    C1 8913   4.009  16.610  11.439 -0.1300  0.0088  0.1205
  558loPI    C2 8914   4.225  16.348  11.651  0.1730  0.1071 -0.0617
  558loPI    C3 8915   4.043  16.652  11.836 -0.2965 -0.3023  0.1707
  558loPI   PO4 8916   3.985  16.751  11.224 -0.0255  0.1736 -0.2949
  558loPI   GL1 8917   4.253  16.810  10.837  0.3070  0.1543 -0.1872
  558loPI   GL2 8918   4.590  16.696  10.964 -0.0540 -0.1359  0.0617
  558loPI   C1A 8919   4.117  16.838  10.357  0.1438 -0.1875 -0.2369
  558loPI   C2A 8920   4.207  16.805   9.857 -0.0338  0.1135  0.1255
  558loPI   C3A 8921   4.206  16.713   9.505 -0.1414 -0.2596  0.3029
  558loPI   C4A 8922   4.245  16.757   9.145 -0.0416  0.1160 -0.0153
  558loPI   C5A 8923   4.437  16.818   8.740 -0.1943  0.1349  0.1748
  558loPI   C6A 8924   4.366  17.074   8.413 -0.0182 -0.0820 -0.0740
  558loPI   C1B 8925   4.607  16.838  10.524 -0.0440  0.2337  0.1534
  558loPI   C2B 8926   4.651  16.854  10.111  0.0845  0.0383  0.1580
  558loPI   C3B 8927   4.693  16.841   9.694  0.2338  0.0898 -0.1465
  558loPI   C4B 8928   4.748  16.810   9.222 -0.1812 -0.1852 -0.1078
  559loPI    C1 8929   8.278   9.638  11.952 -0.0704 -0.1371  0.0302
  559loPI    C2 8930   7.955   9.744  12.164  0.1425  0.3691  0.1158
  559loPI    C3 8931   8.246   9.529  12.335 -0.0265  0.1348  0.1134
  559loPI   PO4 8932   8.288   9.806  11.699 -0.0962 -0.3747  0.0363
  559loPI   GL1 8933   8.365   9.760  11.324 -0.1102  0.1330 -0.0585
  559loPI   GL2 8934   8.047   9.893  11.274 -0.1850  0.0660  0.1006
  559loPI   C1A 8935   8.728   9.786  11.129  0.0944  0.0298 -0.0469
  559loPI   C2A 8936   8.842   9.816  10.775 -0.0402 -0.2118 -0.0474
  559loPI   C3A 8937   8.808   9.863  10.243 -0.1801 -0.2286  0.0348
  559loPI   C4A 8938   8.779   9.812   9.797 -0.3212 -0.0946  0.1309
  559loPI   C5A 8939   8.864   9.830   9.295  0.4246 -0.3314  0.1015
  559loPI   C6A 8940   9.320   9.971   9.005 -0.1351  0.1347 -0.1278
  559loPI   C1B 8941   8.055  10.119  10.905  0.2592  0.2942  0.2061
  559loPI   C2B 8942   8.000  10.151  10.523  0.0318  0.1562 -0.0811
  559loPI   C3B 8943   7.994  10.115  10.070 -0.0631  0.4801 -0.1686
  559loPI   C4B 8944   8.047  10.039   9.618  0.1559 -0.1504 -0.2073
  560loPI    C1 8945   3.339   0.108  11.375 -0.0894 -0.1896 -0.0239
  560loPI    C2 8946   3.713  -0.026  11.420 -0.1052 -0.2661 -0.1172
  560loPI    C3 8947   3.469  -0.004  11.736  0.0229 -0.0791 -0.0293
  560loPI   PO4 8948   3.288   0.066  11.084 -0.2393 -0.2463  0.2414
  560loPI   GL1 8949   3.368   0.293  10.651  0.1458  0.1149  0.3635
  560loPI   GL2 8950   3.682   0.512  10.620 -0.1316 -0.0808  0.0789
  560loPI   C1A 8951   3.395   0.189  10.206  0.0464 -0.1058  0.3951
  560loPI   C2A 8952   3.460   0.149   9.719  0.0331 -0.1357 -0.4105
  560loPI   C3A 8953   3.530   0.127   9.322  0.4005 -0.0811 -0.0482
  560loPI   C4A 8954   3.425  -0.029   8.934 -0.0151  0.0150  0.1198
  560loPI   C5A 8955   3.214   0.089   8.555 -0.4258  0.3336 -0.1502
  560loPI   C6A 8956   2.747   0.135   8.580  0.0395  0.1545 -0.1328
  560loPI   C1B 8957   3.724   0.524  10.174  0.2354 -0.3725  0.0604
  560loPI   C2B 8958   3.704   0.624   9.675  0.1153 -0.1443  0.2188
  560loPI   C3B 8959   3.620   0.582   9.250  0.2050 -0.2487  0.0211
  560loPI   C4B 8960   3.543   0.558   8.898  0.4051  0.2076  0.1966
  561loPI    C1 8961   3.575   7.787  11.757  0.0080 -0.0999 -0.0177
  561loPI    C2 8962   3.570   7.534  12.066  0.0209  0.1280  0.1717
  561loPI    C3 8963   3.446   7.912  12.114  0.1687  0.2087 -0.0634
  561loPI   PO4 8964   3.445   7.559  11.566 -0.4421  0.1138 -0.3953
  561loPI   GL1 8965   3.410   7.620  11.146 -0.1122 -0.1664  0.2002
  561loPI   GL2 8966   3.269   8.007  11.311  0.1540  0.0619  0.0566
  561loPI   C1A 8967   3.387   7.632  10.743  0.2763  0.1260  0.0190
  561loPI   C2A 8968   3.204   7.590  10.384 -0.2857 -0.1539 -0.2819
  561loPI   C3A 8969   3.152   7.351  10.011  0.1033 -0.1285 -0.0039
  561loPI   C4A 8970   3.252   7.382   9.604  0.2423  0.0659 -0.1346
  561loPI   C5A 8971   3.010   7.581   9.325  0.0860 -0.0167 -0.0641
  561loPI   C6A 8972   2.522   7.742   9.142 -0.0514  0.0845 -0.1150
  561loPI   C1B 8973   3.469   8.146  10.941 -0.0701  0.1179 -0.2277
  561loPI   C2B 8974   3.504   8.073  10.436  0.2112  0.0335  0.0752
  561loPI   C3B 8975   3.402   7.915   9.919  0.1376  0.1798 -0.3274
  561loPI   C4B 8976   3.361   7.862   9.441 -0.2486  0.1913 -0.0015
  562loPI    C1 8977   8.211  15.824  11.881 -0.2920 -0.0394  0.0284
  562loPI    C2 8978   8.322  15.584  12.181 -0.0988 -0.1029 -0.0921
  562loPI    C3 8979   8.066  15.883  12.249 -0.0661 -0.1242  0.1329
  562loPI   PO4 8980   8.276  15.651  11.617 -0.3139 -0.0026 -0.2770
  562loPI   GL1 8981   8.140  15.666  11.247  0.2152  0.1139 -0.1071
  562loPI   GL2 8982   8.287  15.418  11.149  0.0795 -0.2696  0.1703
  562loPI   C1A 8983   8.469  15.819  10.867  0.0448 -0.3082  0.0077
  562loPI   C2A 8984   8.435  15.784  10.412  0.1287 -0.0082  0.2715
  562loPI   C3A 8985   8.478  15.661   9.955  0.2088  0.2205  0.0622
  562loPI   C4A 8986   8.535  15.745   9.604  0.1976  0.0820  0.3553
  562loPI   C5A 8987   8.416  15.615   9.198 -0.3093 -0.0360 -0.0100
  562loPI   C6A 8988   8.388  15.489   8.743  0.3459  0.0542 -0.0538
  562loPI   C1B 8989   8.345  15.336  10.713 -0.1403  0.0509  0.1265
  562loPI   C2B 8990   8.280  15.315  10.321 -0.1975 -0.2919  0.0217
  562loPI   C3B 8991   8.267  15.188   9.951  0.1380  0.2081 -0.0215
  562loPI   C4B 8992   8.320  15.175   9.533  0.0935 -0.0486  0.3593
  563loPI    C1 8993  11.422   9.087  11.725  0.1645 -0.2622  0.0857
  563loPI    C2 8994  11.781   9.210  11.599  0.0397 -0.1021 -0.1189
  563loPI    C3 8995  11.621   9.366  11.931  0.0410  0.0253 -0.1777
  563loPI   PO4 8996  11.320   8.977  11.510 -0.0015  0.2858  0.2548
  563loPI   GL1 8997  11.328   9.027  11.065  0.2237 -0.2104 -0.4366
  563loPI   GL2 8998  11.557   9.312  11.149  0.2006 -0.0253  0.0982
  563loPI   C1A 8999  11.220   8.884  10.639 -0.0042  0.1872 -0.2754
  563loPI   C2A 9000  11.154   8.860  10.313  0.1657 -0.3770 -0.2262
  563loPI   C3A 9001  11.357   8.884   9.944  0.0336  0.4567 -0.1074
  563loPI   C4A 9002  11.375   8.812   9.588  0.0528 -0.0474  0.0910
  563loPI   C5A 9003  11.413   8.904   9.172 -0.0698  0.0020  0.0604
  563loPI   C6A 9004  11.498   9.269   8.956  0.1357  0.1717  0.0895
  563loPI   C1B 9005  11.474   9.339  10.620  0.1673  0.2361  0.0003
  563loPI   C2B 9006  11.439   9.309  10.211 -0.1315  0.0637  0.1310
  563loPI   C3B 9007  11.470   9.324   9.828 -0.1207  0.1835  0.1591
  563loPI   C4B 9008  11.566   9.343   9.480 -0.0035 -0.2572  0.3038
  564loPI    C1 9009  13.480  14.587  11.677 -0.1741  0.0023 -0.0660
  564loPI    C2 9010  13.292  14.253  11.793  0.1188 -0.1543 -0.0327
  564loPI    C3 9011  13.610  14.385  11.997 -0.1014  0.2474  0.0612
  564loPI   PO4 9012  13.462  14.577  11.413 -0.0198 -0.0873  0.2798
  564loPI   GL1 9013  13.339  14.968  11.121 -0.1343  0.2263  0.1823
  564loPI   GL2 9014  13.099  14.815  11.075 -0.0055 -0.0177 -0.3374
  564loPI   C1A 9015  13.438  14.877  10.664  0.2682  0.2434 -0.0409
  564loPI   C2A 9016  13.313  14.850  10.316  0.2777 -0.1762 -0.1359
  564loPI   C3A 9017  13.325  14.790   9.980 -0.0214 -0.1786 -0.1878
  564loPI   C4A 9018  13.322  14.741   9.515  0.3024  0.0234 -0.0604
  564loPI   C5A 9019  13.258  14.671   9.040 -0.3366  0.1522 -0.1350
  564loPI   C6A 9020  13.375  14.619   8.537 -0.2919  0.1816  0.2008
  564loPI   C1B 9021  12.876  14.768  10.694 -0.0866  0.1237 -0.0487
  564loPI   C2B 9022  12.878  14.697  10.237  0.0167 -0.0425 -0.2622
  564loPI   C3B 9023  12.810  14.681   9.805  0.1216 -0.1012  0.0722
  564loPI   C4B 9024  12.825  14.706   9.302  0.0023  0.0504 -0.0244
  565loPI    C1 9025  10.109   6.909  11.738 -0.1983 -0.0527  0.0377
  565loPI    C2 9026  10.323   6.941  12.075  0.0291  0.3318 -0.1351
  565loPI    C3 9027   9.925   6.899  12.093  0.0860 -0.1629  0.1856
  565loPI   PO4 9028  10.268   6.762  11.596 -0.0262  0.0073  0.0173
  565loPI   GL1 9029  10.505   6.931  11.314 -0.0215  0.1608 -0.2802
  565loPI   GL2 9030  10.668   7.255  11.130  0.0778 -0.0475 -0.3551
  565loPI   C1A 9031  10.637   6.947  10.757  0.1333  0.1642  0.0161
  565loPI   C2A 9032  10.569   6.945  10.309 -0.1940 -0.2628 -0.2659
  565loPI   C3A 9033  10.629   6.987   9.838  0.0784  0.0715 -0.0250
  565loPI   C4A 9034  10.655   6.904   9.460  0.2503  0.3227  0.0222
  565loPI   C5A 9035  10.668   7.132   9.015 -0.2452  0.0344  0.1242
  565loPI   C6A 9036  10.616   7.394   8.697  0.2436 -0.2039  0.0820
  565loPI   C1B 9037  10.714   7.413  10.806  0.1613  0.0455 -0.1360
  565loPI   C2B 9038  10.738   7.446  10.443 -0.0959 -0.0587  0.1074
  565loPI   C3B 9039  10.754   7.492   9.965  0.1545  0.1442  0.0353
  565loPI   C4B 9040  10.839   7.429   9.559 -0.4156 -0.0256  0.1516
  566loPI    C1 9041  17.354   6.786  11.580  0.0258 -0.0084  0.2828
  566loPI    C2 9042  17.164   7.123  11.478 -0.0945 -0.1440  0.0515
  566loPI    C3 9043  17.263   7.057  11.860 -0.0341  0.1705  0.0928
  566loPI   PO4 9044  17.520   6.671  11.378  0.1490  0.1293 -0.1985
  566loPI   GL1 9045  17.592   6.594  11.063  0.1079 -0.4701  0.2295
  566loPI   GL2 9046  17.925   6.542  11.027  0.0083  0.0358 -0.0883
  566loPI   C1A 9047  17.740   6.893  10.752 -0.0952 -0.0926 -0.2862
  566loPI   C2A 9048  17.741   6.787  10.327 -0.1653 -0.4220 -0.0915
  566loPI   C3A 9049  17.639   6.789   9.929 -0.2360  0.0664 -0.0408
  566loPI   C4A 9050  17.655   6.763   9.483  0.1185 -0.0043  0.1374
  566loPI   C5A 9051  17.570   6.934   9.091  0.0644  0.3166 -0.0846
  566loPI   C6A 9052  17.709   6.669   8.716 -0.1317  0.0829 -0.2028
  566loPI   C1B 9053  17.982   6.469  10.638  0.3389  0.1418 -0.0350
  566loPI   C2B 9054  18.057   6.359  10.146  0.1085 -0.0482  0.1937
  566loPI   C3B 9055  17.936   6.366   9.785  0.0701  0.0824  0.1657
  566loPI   C4B 9056  18.043   6.402   9.436 -0.0654 -0.1701 -0.0333
  567loPI    C1 9057  13.084   3.800  11.563 -0.1449 -0.0356  0.0623
  567loPI    C2 9058  13.051   3.995  11.910  0.0075  0.0614  0.0228
  567loPI    C3 9059  13.184   3.618  11.904  0.0541  0.0771  0.0650
  567loPI   PO4 9060  12.963   3.974  11.406  0.2148  0.1977 -0.0948
  567loPI   GL1 9061  12.792   3.961  11.059  0.1817 -0.0910  0.0065
  567loPI   GL2 9062  12.809   3.745  10.781 -0.2134  0.1246 -0.1196
  567loPI   C1A 9063  12.926   4.212  10.617  0.1573  0.1320 -0.1741
  567loPI   C2A 9064  12.954   4.109  10.198 -0.0346  0.0404 -0.0275
  567loPI   C3A 9065  12.915   4.160   9.752  0.1075  0.3049 -0.0906
  567loPI   C4A 9066  12.957   4.198   9.305  0.1481  0.0215 -0.0587
  567loPI   C5A 9067  12.934   4.169   8.964  0.1563  0.2915  0.2014
  567loPI   C6A 9068  12.804   4.126   8.538 -0.2519  0.2263  0.1102
  567loPI   C1B 9069  12.892   3.684  10.420 -0.3148 -0.1743 -0.0285
  567loPI   C2B 9070  12.683   3.668   9.987  0.0241 -0.1254 -0.3055
  567loPI   C3B 9071  12.676   3.501   9.585 -0.1091 -0.1974 -0.1674
  567loPI   C4B 9072  12.768   3.676   9.149  0.1325  0.0055  0.1723
  568loPI    C1 9073  16.343   3.325  11.748 -0.0232 -0.1464  0.3889
  568loPI    C2 9074  16.296   2.930  11.785 -0.1297 -0.1346  0.3848
  568loPI    C3 9075  16.549   3.125  12.025  0.1570 -0.2502  0.1829
  568loPI   PO4 9076  16.377   3.410  11.505 -0.0834  0.0356  0.1066
  568loPI   GL1 9077  16.216   3.476  11.182  0.0649  0.2433  0.1817
  568loPI   GL2 9078  15.948   3.446  11.148 -0.1197  0.1595  0.0896
  568loPI   C1A 9079  16.391   3.474  10.796  0.1780 -0.0265  0.1057
  568loPI   C2A 9080  16.407   3.463  10.411  0.0092 -0.0214 -0.1017
  568loPI   C3A 9081  16.432   3.384   9.982  0.1094 -0.0727  0.1222
  568loPI   C4A 9082  16.437   3.290   9.563 -0.4035 -0.1018 -0.0660
  568loPI   C5A 9083  16.479   3.318   9.181  0.4880  0.0586 -0.1119
  568loPI   C6A 9084  16.211   3.457   8.887 -0.0878  0.0267 -0.0278
  568loPI   C1B 9085  15.879   3.314  10.636 -0.0296  0.1813  0.2462
  568loPI   C2B 9086  15.904   3.339  10.130 -0.0985  0.1161 -0.0393
  568loPI   C3B 9087  15.933   3.396   9.768  0.2196 -0.2088 -0.3049
  568loPI   C4B 9088  15.977   3.238   9.312  0.1571  0.1703 -0.0080
  569loPI    C1 9089   3.681   8.274  11.825 -0.2412 -0.1512 -0.4266
  569loPI    C2 9090   3.369   8.460  11.994 -0.0927 -0.1094 -0.1939
  569loPI    C3 9091   3.742   8.581  12.074 -0.0013 -0.3961 -0.1769
  569loPI   PO4 9092   3.661   8.295  11.545  0.3833  0.0374 -0.2014
  569loPI   GL1 9093   3.865   8.202  11.170 -0.1561 -0.2924  0.1398
  569loPI   GL2 9094   3.789   7.936  11.259 -0.0984  0.2112  0.2794
  569loPI   C1A 9095   3.957   8.247  10.741  0.1417  0.3342  0.2675
  569loPI   C2A 9096   3.966   8.049  10.317  0.2353 -0.1948  0.2906
  569loPI   C3A 9097   3.907   8.123   9.838 -0.0440  0.2785 -0.2114
  569loPI   C4A 9098   3.899   7.985   9.401  0.0115  0.3019  0.0552
  569loPI   C5A 9099   3.831   7.678   9.064  0.2560 -0.1714 -0.1185
  569loPI   C6A 9100   3.443   7.382   9.078 -0.1771  0.0215 -0.0808
  569loPI   C1B 9101   3.862   7.776  10.801 -0.0600  0.1816  0.3170
  569loPI   C2B 9102   3.699   7.655  10.319  0.2079 -0.0121  0.2670
  569loPI   C3B 9103   3.703   7.452   9.853 -0.1874 -0.1713 -0.2083
  569loPI   C4B 9104   3.736   7.439   9.470  0.2678 -0.1172 -0.4066
  570loPI    C1 9105  14.026   3.330  11.756 -0.1355 -0.1399 -0.0747
  570loPI    C2 9106  13.930   2.993  11.948 -0.2621 -0.1030 -0.0717
  570loPI    C3 9107  14.054   3.312  12.154 -0.1713 -0.1379 -0.0719
  570loPI   PO4 9108  13.863   3.324  11.561  0.1199 -0.1235  0.1365
  570loPI   GL1 9109  13.843   3.346  11.161  0.0220  0.2268 -0.1474
  570loPI   GL2 9110  14.080   3.511  11.006 -0.2585 -0.2402  0.0641
  570loPI   C1A 9111  13.613   3.399  10.784  0.0715 -0.2249 -0.1695
  570loPI   C2A 9112  13.600   3.294  10.396 -0.1758  0.1561 -0.3046
  570loPI   C3A 9113  13.629   3.252   9.987  0.0180 -0.1145 -0.1547
  570loPI   C4A 9114  13.617   3.370   9.603 -0.1303 -0.0422 -0.5516
  570loPI   C5A 9115  13.595   3.375   9.168 -0.4526 -0.4070 -0.1959
  570loPI   C6A 9116  13.487   3.400   8.712 -0.4265  0.0851  0.0086
  570loPI   C1B 9117  14.058   3.451  10.597 -0.0270  0.2811  0.2352
  570loPI   C2B 9118  14.087   3.454  10.156 -0.1134  0.3191  0.1532
  570loPI   C3B 9119  14.126   3.382   9.771  0.1111 -0.0212 -0.1007
  570loPI   C4B 9120  14.080   3.403   9.266  0.0142  0.0332  0.0610
  571loPI    C1 9121   3.832   1.312  11.579  0.1028  0.0310 -0.0798
  571loPI    C2 9122   3.621   1.405  11.906  0.1960  0.1244 -0.0454
  571loPI    C3 9123   3.928   1.149  11.932  0.1377  0.0506 -0.0800
  571loPI   PO4 9124   3.916   1.461  11.445  0.2774 -0.1589 -0.0792
  571loPI   GL1 9125   3.840   1.633  11.025 -0.0535  0.1913 -0.1954
  571loPI   GL2 9126   4.078   1.649  10.757  0.1890 -0.2459 -0.2266
  571loPI   C1A 9127   3.774   1.959  10.689  0.0308 -0.1547  0.2984
  571loPI   C2A 9128   3.716   2.094  10.333 -0.1776  0.2465  0.0626
  571loPI   C3A 9129   3.660   1.986   9.916  0.3075  0.0744 -0.1552
  571loPI   C4A 9130   3.754   1.932   9.530 -0.2048 -0.1999 -0.1920
  571loPI   C5A 9131   3.756   2.106   9.083 -0.1496  0.0901 -0.1153
  571loPI   C6A 9132   3.988   2.399   8.729  0.1692 -0.0685 -0.1830
  571loPI   C1B 9133   4.085   1.603  10.352  0.0478  0.0126  0.3773
  571loPI   C2B 9134   4.086   1.630   9.938 -0.2912  0.1718 -0.1109
  571loPI   C3B 9135   4.052   1.558   9.594 -0.3124 -0.1397 -0.0411
  571loPI   C4B 9136   3.933   1.580   9.156 -0.0554  0.0624  0.0316
  572loPI    C1 9137   1.104   6.917  11.706 -0.1126 -0.1002 -0.1351
  572loPI    C2 9138   0.890   6.584  11.764 -0.1793  0.0074  0.2659
  572loPI    C3 9139   1.240   6.633  11.952 -0.0548  0.0635  0.0242
  572loPI   PO4 9140   1.107   6.930  11.391  0.2408  0.2208 -0.0588
  572loPI   GL1 9141   0.969   6.729  11.067  0.1133 -0.2823 -0.0401
  572loPI   GL2 9142   0.781   6.945  10.947  0.2729 -0.3136  0.1104
  572loPI   C1A 9143   0.988   6.518  10.662 -0.0104 -0.1089 -0.2557
  572loPI   C2A 9144   1.045   6.534  10.251  0.1908  0.2395  0.2839
  572loPI   C3A 9145   1.010   6.405   9.750 -0.0443  0.0361  0.0910
  572loPI   C4A 9146   1.158   6.568   9.305 -0.3376 -0.0899 -0.1465
  572loPI   C5A 9147   1.171   6.576   8.899 -0.3765 -0.5041  0.1457
  572loPI   C6A 9148   1.243   6.323   8.570  0.0190 -0.0696  0.0619
  572loPI   C1B 9149   0.720   6.875  10.475  0.2550  0.0191  0.1627
  572loPI   C2B 9150   0.657   6.872  10.030 -0.3881 -0.2887 -0.0636
  572loPI   C3B 9151   0.614   6.897   9.570  0.0724  0.0175  0.0601
  572loPI   C4B 9152   0.673   6.811   9.092  0.3266  0.0494  0.2662
  573loPI    C1 9153  12.943   5.582  11.665  0.0197 -0.4176  0.2013
  573loPI    C2 9154  12.591   5.764  11.613  0.1697 -0.1789  0.0010
  573loPI    C3 9155  12.704   5.648  11.978  0.0832  0.1586  0.1392
  573loPI   PO4 9156  13.087   5.700  11.460 -0.0223  0.1851 -0.2076
  573loPI   GL1 9157  12.840   5.751  11.079 -0.2467  0.1955 -0.0954
  573loPI   GL2 9158  12.722   5.452  11.199  0.1273  0.0446 -0.1027
  573loPI   C1A 9159  12.663   5.942  10.639  0.2193 -0.1404 -0.2616
  573loPI   C2A 9160  12.559   5.935  10.200  0.2913  0.0113  0.2029
  573loPI   C3A 9161  12.649   5.928   9.727 -0.0581  0.1058  0.1886
  573loPI   C4A 9162  12.611   5.817   9.351 -0.0057  0.0947 -0.0700
  573loPI   C5A 9163  12.295   5.555   9.047 -0.1164  0.1187 -0.0126
  573loPI   C6A 9164  12.170   5.375   8.609 -0.0675  0.1787 -0.3477
  573loPI   C1B 9165  12.468   5.501  10.805  0.0509 -0.0448  0.0366
  573loPI   C2B 9166  12.410   5.533  10.373  0.0347 -0.0231  0.1541
  573loPI   C3B 9167  12.486   5.451   9.924 -0.0298  0.2954  0.0208
  573loPI   C4B 9168  12.439   5.390   9.462  0.0979  0.0393  0.0321
  574loPI    C1 9169   4.314  10.535  11.617 -0.2208  0.0501 -0.2095
  574loPI    C2 9170   4.027  10.269  11.533 -0.1623 -0.0182 -0.1942
  574loPI    C3 9171   4.256  10.220  11.857 -0.2840  0.1596 -0.0792
  574loPI   PO4 9172   4.181  10.751  11.610  0.0785 -0.1185  0.1673
  574loPI   GL1 9173   3.988  10.766  11.216 -0.2256  0.4954 -0.1906
  574loPI   GL2 9174   4.135  10.500  11.032  0.2198  0.1711 -0.2770
  574loPI   C1A 9175   3.928  10.852  10.761 -0.2465  0.3723 -0.0015
  574loPI   C2A 9176   3.915  10.718  10.251  0.0499 -0.0269 -0.2170
  574loPI   C3A 9177   3.899  10.718   9.780  0.0780 -0.3011 -0.0551
  574loPI   C4A 9178   3.921  10.763   9.285  0.1669  0.0718 -0.1205
  574loPI   C5A 9179   4.106  10.663   8.929 -0.2532  0.0338  0.1344
  574loPI   C6A 9180   4.195  10.342   8.639 -0.4489  0.2072 -0.0809
  574loPI   C1B 9181   4.227  10.444  10.599  0.1171 -0.1338 -0.0368
  574loPI   C2B 9182   4.310  10.380  10.180 -0.2412  0.0628 -0.3598
  574loPI   C3B 9183   4.259  10.344   9.742 -0.2404  0.0954  0.0059
  574loPI   C4B 9184   4.183  10.284   9.331  0.0024  0.2076  0.2634
  575loPI    C1 9185  15.516  13.256  11.592 -0.2322 -0.1075 -0.0321
  575loPI    C2 9186  15.433  13.633  11.697 -0.0307 -0.0510 -0.0705
  575loPI    C3 9187  15.548  13.369  11.974  0.3568  0.0593 -0.1199
  575loPI   PO4 9188  15.362  13.256  11.352  0.2261 -0.0617 -0.1259
  575loPI   GL1 9189  15.212  13.309  11.030  0.2387 -0.0190  0.0061
  575loPI   GL2 9190  14.904  13.311  11.132  0.0526 -0.1178 -0.1011
  575loPI   C1A 9191  15.233  13.390  10.552  0.2782 -0.0618 -0.2842
  575loPI   C2A 9192  15.200  13.328  10.181 -0.2371 -0.2625 -0.0218
  575loPI   C3A 9193  15.267  13.265   9.699 -0.2786 -0.1022  0.0817
  575loPI   C4A 9194  15.078  13.369   9.367 -0.1596  0.1918  0.3579
  575loPI   C5A 9195  15.326  13.261   8.966  0.2655  0.0757 -0.1152
  575loPI   C6A 9196  15.204  13.040   8.529 -0.0955 -0.0279  0.1623
  575loPI   C1B 9197  14.782  13.329  10.649 -0.0145  0.1320  0.0902
  575loPI   C2B 9198  14.677  13.203  10.277 -0.0847  0.2024 -0.2154
  575loPI   C3B 9199  14.745  13.242   9.881  0.0052  0.3910  0.0450
  575loPI   C4B 9200  14.590  13.193   9.501 -0.0672  0.0082 -0.1529
  576loPI    C1 9201   6.963  15.121  11.747 -0.2132  0.0987 -0.2409
  576loPI    C2 9202   6.782  14.921  12.042  0.2393 -0.2051 -0.1586
  576loPI    C3 9203   6.877  15.306  12.091 -0.1629 -0.1072 -0.1151
  576loPI   PO4 9204   6.836  14.987  11.512  0.4189  0.2968 -0.1040
  576loPI   GL1 9205   7.089  15.095  11.103  0.0730 -0.1303  0.1004
  576loPI   GL2 9206   6.736  14.960  10.938 -0.1376 -0.2255  0.1304
  576loPI   C1A 9207   7.332  15.059  10.775 -0.1319  0.2840  0.3236
  576loPI   C2A 9208   7.386  15.121  10.305  0.1195  0.1357  0.0269
  576loPI   C3A 9209   7.307  15.106   9.866  0.1819  0.1006 -0.1267
  576loPI   C4A 9210   7.382  14.997   9.470  0.0071  0.0842 -0.0575
  576loPI   C5A 9211   7.362  14.851   9.098  0.0486 -0.3231  0.0372
  576loPI   C6A 9212   7.495  15.082   8.754 -0.1698 -0.0330  0.0696
  576loPI   C1B 9213   6.853  15.025  10.529 -0.0225  0.1382  0.1541
  576loPI   C2B 9214   6.913  15.015  10.196 -0.0987 -0.1153 -0.0356
  576loPI   C3B 9215   6.784  14.897   9.772 -0.0824  0.0188 -0.0425
  576loPI   C4B 9216   6.878  14.838   9.319 -0.2617 -0.1853 -0.2865
  577loPI    C1 9217   6.312   6.620  11.836 -0.0557  0.0077  0.2154
  577loPI    C2 9218   6.676   6.465  11.776 -0.1324 -0.0829 -0.0307
  577loPI    C3 9219   6.419   6.284  12.025 -0.1019 -0.1636 -0.0576
  577loPI   PO4 9220   6.248   6.646  11.515  0.0704 -0.3586 -0.0765
  577loPI   GL1 9221   6.111   6.755  11.069  0.1138 -0.0987  0.0072
  577loPI   GL2 9222   6.249   6.593  10.958  0.0933 -0.0432 -0.2224
  577loPI   C1A 9223   6.016   7.035  10.698 -0.0345  0.1505  0.0284
  577loPI   C2A 9224   5.847   6.991  10.304 -0.0303 -0.0451 -0.0546
  577loPI   C3A 9225   5.928   6.936   9.845 -0.0465  0.0451 -0.0138
  577loPI   C4A 9226   5.970   6.899   9.363 -0.1335 -0.2551 -0.1798
  577loPI   C5A 9227   5.939   6.690   8.958 -0.1152  0.0099  0.1204
  577loPI   C6A 9228   5.626   6.372   8.792  0.2906 -0.0018  0.1055
  577loPI   C1B 9229   6.229   6.579  10.527  0.1248 -0.0601  0.1573
  577loPI   C2B 9230   6.204   6.621  10.094  0.0091 -0.2965  0.0375
  577loPI   C3B 9231   6.226   6.536   9.715  0.4448 -0.0631 -0.1375
  577loPI   C4B 9232   6.355   6.452   9.224  0.1043  0.0183 -0.1547
  578loPI    C1 9233  14.957  16.809  11.489 -0.0037  0.0461 -0.0021
  578loPI    C2 9234  14.839  16.980  11.831 -0.0443 -0.0438  0.0293
  578loPI    C3 9235  14.808  16.584  11.785  0.2182 -0.0657  0.0273
  578loPI   PO4 9236  15.045  17.016  11.303  0.4432  0.0100  0.1777
  578loPI   GL1 9237  15.040  17.088  10.929 -0.0701 -0.2744 -0.0347
  578loPI   GL2 9238  14.770  17.340  10.871  0.1003  0.1786  0.2056
  578loPI   C1A 9239  15.048  16.992  10.513 -0.2153  0.1220 -0.1487
  578loPI   C2A 9240  15.052  16.937  10.192  0.0827 -0.3236  0.0300
  578loPI   C3A 9241  15.084  16.896   9.741  0.2148  0.1389  0.0803
  578loPI   C4A 9242  15.022  16.767   9.328 -0.0975 -0.0880 -0.1511
  578loPI   C5A 9243  15.001  16.797   8.971  0.3194  0.2480 -0.0785
  578loPI   C6A 9244  14.996  16.780   8.490  0.3514 -0.0597  0.2986
  578loPI   C1B 9245  14.724  17.350  10.441  0.0537 -0.3660  0.0120
  578loPI   C2B 9246  14.675  17.216  10.029  0.0317 -0.1165  0.0075
  578loPI   C3B 9247  14.705  17.165   9.568 -0.0535  0.0939  0.1396
  578loPI   C4B 9248  14.806  17.232   9.116 -0.0744 -0.2239 -0.1514
  579loPI    C1 9249   2.724   4.563  11.558  0.0296 -0.1862 -0.2314
  579loPI    C2 9250   3.089   4.439  11.666  0.0163 -0.0287  0.0001
  579loPI    C3 9251   2.768   4.326  11.877 -0.0377  0.0698 -0.0286
  579loPI   PO4 9252   2.677   4.547  11.288  0.1198 -0.0203  0.0264
  579loPI   GL1 9253   2.849   4.363  10.869  0.4274 -0.0625 -0.4082
  579loPI   GL2 9254   2.668   4.134  10.938  0.0550  0.1366 -0.0440
  579loPI   C1A 9255   2.837   4.423  10.475 -0.1502 -0.1287  0.1668
  579loPI   C2A 9256   2.725   4.514  10.030 -0.1939 -0.0599 -0.2016
  579loPI   C3A 9257   2.648   4.393   9.647 -0.0818 -0.0146 -0.2251
  579loPI   C4A 9258   2.713   4.422   9.175  0.0452  0.2012  0.2001
  579loPI   C5A 9259   2.737   4.541   8.813 -0.2771 -0.1684  0.0370
  579loPI   C6A 9260   2.664   4.932   8.529 -0.0078  0.2463  0.1681
  579loPI   C1B 9261   2.492   4.058  10.603 -0.1496  0.2255  0.1254
  579loPI   C2B 9262   2.533   3.985  10.212 -0.1635 -0.2410 -0.2745
  579loPI   C3B 9263   2.461   3.971   9.763  0.0250 -0.3135  0.1878
  579loPI   C4B 9264   2.448   3.944   9.353  0.0842 -0.1233 -0.0324
  580loPI    C1 9265   2.996   7.507  11.980  0.2915  0.1098 -0.2794
  580loPI    C2 9266   2.825   7.147  11.936 -0.0775  0.2659 -0.1650
  580loPI    C3 9267   3.168   7.183  12.139 -0.1277  0.0014 -0.0295
  580loPI   PO4 9268   2.895   7.614  11.704  0.0638  0.1659  0.0071
  580loPI   GL1 9269   2.888   7.584  11.232 -0.1803 -0.2967  0.1503
  580loPI   GL2 9270   2.739   7.925  11.370 -0.0075  0.1074  0.1834
  580loPI   C1A 9271   2.988   7.404  10.762  0.2615  0.0877 -0.2261
  580loPI   C2A 9272   2.902   7.227  10.478  0.0135  0.0325  0.0089
  580loPI   C3A 9273   2.666   7.214  10.100 -0.2719 -0.1602  0.3098
  580loPI   C4A 9274   2.642   7.184   9.663 -0.2569 -0.2770 -0.1448
  580loPI   C5A 9275   2.678   7.165   9.223 -0.0932  0.2025  0.0675
  580loPI   C6A 9276   2.341   7.334   8.924 -0.0126  0.1177  0.1409
  580loPI   C1B 9277   2.913   7.991  10.973 -0.1276 -0.0824  0.1773
  580loPI   C2B 9278   3.063   8.031  10.588 -0.2954  0.1981 -0.0128
  580loPI   C3B 9279   2.958   8.020  10.211  0.0592  0.1427 -0.1695
  580loPI   C4B 9280   2.907   7.858   9.772  0.0246  0.4211 -0.3792
  581loPI    C1 9281  12.104  16.587  11.737  0.1099  0.0928  0.0330
  581loPI    C2 9282  12.210  16.952  11.862  0.1441  0.0173  0.2282
  581loPI    C3 9283  11.849  16.806  11.953  0.0579  0.0765 -0.0118
  581loPI   PO4 9284  12.213  16.641  11.430  0.1236 -0.0758 -0.0698
  581loPI   GL1 9285  12.600  16.572  11.171 -0.0916 -0.1779  0.1572
  581loPI   GL2 9286  12.907  16.635  11.282  0.0962 -0.1072  0.5340
  581loPI   C1A 9287  12.562  16.484  10.716  0.0237  0.1758  0.2882
  581loPI   C2A 9288  12.582  16.441  10.313 -0.0136  0.0070  0.1382
  581loPI   C3A 9289  12.569  16.502   9.927 -0.0633 -0.2210  0.0853
  581loPI   C4A 9290  12.520  16.362   9.416  0.0890  0.0910  0.2733
  581loPI   C5A 9291  12.475  16.125   8.973  0.1871  0.1406  0.1633
  581loPI   C6A 9292  12.801  15.946   8.681  0.2357 -0.3939 -0.0102
  581loPI   C1B 9293  13.006  16.604  10.881 -0.0778  0.0088  0.2515
  581loPI   C2B 9294  13.090  16.530  10.449 -0.2187 -0.0588 -0.2609
  581loPI   C3B 9295  13.087  16.619  10.037 -0.1288 -0.0763 -0.2427
  581loPI   C4B 9296  13.061  16.558   9.592 -0.2060  0.0698  0.4033
  582loPI    C1 9297   5.720   9.591  11.733  0.0291  0.0459 -0.0175
  582loPI    C2 9298   5.776   9.595  12.129 -0.3362 -0.2614  0.0429
  582loPI    C3 9299   5.817   9.932  11.918 -0.1078 -0.1016  0.3350
  582loPI   PO4 9300   5.923   9.396  11.666  0.1185  0.2939 -0.2514
  582loPI   GL1 9301   6.026   9.262  11.263 -0.1104  0.0170 -0.0469
  582loPI   GL2 9302   6.253   9.388  11.248  0.0372 -0.0810  0.3062
  582loPI   C1A 9303   6.103   8.873  10.904 -0.0477 -0.1582 -0.0359
  582loPI   C2A 9304   6.070   8.859  10.454  0.1301  0.1184  0.2671
  582loPI   C3A 9305   6.092   8.840  10.055 -0.1123 -0.0135  0.2401
  582loPI   C4A 9306   6.095   8.805   9.604 -0.0864 -0.1649  0.1317
  582loPI   C5A 9307   6.195   8.742   9.243  0.1161  0.1246 -0.1636
  582loPI   C6A 9308   6.532   8.963   8.963  0.1783  0.1592  0.0785
  582loPI   C1B 9309   6.183   9.374  10.807 -0.1083 -0.0236 -0.1808
  582loPI   C2B 9310   6.291   9.331  10.368 -0.3733 -0.0825  0.0488
  582loPI   C3B 9311   6.179   9.283   9.847  0.0107 -0.3479  0.0004
  582loPI   C4B 9312   6.276   9.238   9.371  0.0209 -0.3096  0.0449
  583loPI    C1 9313   8.712  12.864  11.646 -0.1075 -0.0357  0.0206
  583loPI    C2 9314   8.825  13.170  11.878 -0.2381 -0.0710  0.1315
  583loPI    C3 9315   8.817  12.798  12.026 -0.0485 -0.1336 -0.0123
  583loPI   PO4 9316   8.805  12.874  11.401 -0.2358 -0.0973  0.2130
  583loPI   GL1 9317   8.940  13.096  11.011  0.0571  0.2551 -0.0160
  583loPI   GL2 9318   9.065  13.433  10.955 -0.2725  0.4266  0.1815
  583loPI   C1A 9319   9.048  13.050  10.559 -0.0740  0.0207 -0.1957
  583loPI   C2A 9320   9.044  12.979  10.086  0.4088  0.1503  0.1360
  583loPI   C3A 9321   8.977  13.012   9.759  0.2036  0.0618  0.0152
  583loPI   C4A 9322   8.974  12.945   9.297  0.1070 -0.2786  0.0050
  583loPI   C5A 9323   8.960  13.086   8.851  0.1549  0.0533 -0.0533
  583loPI   C6A 9324   8.988  13.070   8.390 -0.0295 -0.2234  0.2351
  583loPI   C1B 9325   9.239  13.480  10.483 -0.0828 -0.0151 -0.0711
  583loPI   C2B 9326   9.189  13.451  10.081  0.0595  0.0088 -0.0897
  583loPI   C3B 9327   9.289  13.550   9.677 -0.3037 -0.1002  0.2701
  583loPI   C4B 9328   9.302  13.363   9.297 -0.1163  0.6431 -0.0030
  584loPI    C1 9329  15.493  16.635  11.581  0.1990 -0.2709 -0.1502
  584loPI    C2 9330  15.265  16.475  11.868  0.1555  0.0791  0.0157
  584loPI    C3 9331  15.663  16.438  11.885  0.1458 -0.0110  0.0522
  584loPI   PO4 9332  15.427  16.651  11.418 -0.2179  0.1584  0.1141
  584loPI   GL1 9333  15.217  16.637  11.061 -0.0766 -0.0002 -0.0923
  584loPI   GL2 9334  14.930  16.526  10.946  0.2972 -0.2619 -0.4541
  584loPI   C1A 9335  15.466  16.624  10.694  0.1787 -0.0119  0.2084
  584loPI   C2A 9336  15.397  16.581  10.250  0.0419  0.3764  0.1186
  584loPI   C3A 9337  15.356  16.482   9.822 -0.0978  0.2605  0.0227
  584loPI   C4A 9338  15.410  16.433   9.412 -0.0108 -0.1741 -0.4273
  584loPI   C5A 9339  15.313  16.388   9.072  0.3092  0.5535 -0.1178
  584loPI   C6A 9340  15.387  16.499   8.642  0.1043 -0.2027  0.0400
  584loPI   C1B 9341  14.945  16.477  10.468 -0.0180 -0.1938  0.0436
  584loPI   C2B 9342  14.866  16.388  10.042  0.0250 -0.0327  0.0193
  584loPI   C3B 9343  14.874  16.429   9.630  0.2775 -0.3451 -0.3315
  584loPI   C4B 9344  14.781  16.278   9.223 -0.0023  0.1880  0.2947
  585loPI    C1 9345  10.276  12.058  11.906 -0.0508  0.1452 -0.0114
  585loPI    C2 9346  10.543  12.157  12.187 -0.0812 -0.0133  0.0744
  585loPI    C3 9347  10.152  12.152  12.274 -0.0955  0.0005  0.0114
  585loPI   PO4 9348  10.374  12.215  11.701  0.3528  0.1200  0.0017
  585loPI   GL1 9349  10.358  12.321  11.296  0.0849  0.3333  0.2246
  585loPI   GL2 9350  10.518  12.063  11.153  0.0845  0.0255  0.4013
  585loPI   C1A 9351  10.635  12.416  10.868  0.1469  0.0952  0.2537
  585loPI   C2A 9352  10.689  12.370  10.461 -0.1234 -0.0841 -0.3133
  585loPI   C3A 9353  10.714  12.403   9.977  0.1841  0.1664 -0.0964
  585loPI   C4A 9354  10.616  12.471   9.598  0.0636 -0.0234  0.2820
  585loPI   C5A 9355  10.466  12.306   9.211  0.3023 -0.1551  0.0100
  585loPI   C6A 9356  10.425  12.653   8.899  0.1868  0.0038  0.0052
  585loPI   C1B 9357  10.490  11.926  10.738 -0.0561  0.1433 -0.0509
  585loPI   C2B 9358  10.491  11.968  10.267  0.0022  0.1761  0.0789
  585loPI   C3B 9359  10.441  11.992   9.877 -0.1572 -0.1587  0.0338
  585loPI   C4B 9360  10.516  11.908   9.495 -0.0787  0.0530  0.0481
  586loPI    C1 9361  12.954   4.498  12.047  0.1097  0.1033  0.0950
  586loPI    C2 9362  12.620   4.678  12.173  0.0963  0.0242  0.1734
  586loPI    C3 9363  12.663   4.282  12.215 -0.0559 -0.0618 -0.3874
  586loPI   PO4 9364  12.983   4.522  11.745 -0.1442  0.4725 -0.0821
  586loPI   GL1 9365  13.004   4.599  11.287 -0.0865 -0.4332 -0.1797
  586loPI   GL2 9366  13.092   4.408  11.201  0.0597  0.2474 -0.0650
  586loPI   C1A 9367  12.686   4.519  10.895  0.0161  0.2095 -0.1934
  586loPI   C2A 9368  12.623   4.605  10.507 -0.1480 -0.3359 -0.0328
  586loPI   C3A 9369  12.609   4.596  10.015 -0.1576 -0.1481 -0.1722
  586loPI   C4A 9370  12.589   4.512   9.617 -0.0966  0.1140  0.0900
  586loPI   C5A 9371  12.467   4.436   9.154 -0.1792  0.5176  0.1628
  586loPI   C6A 9372  12.344   4.246   8.744  0.2728 -0.0931  0.0851
  586loPI   C1B 9373  13.105   4.645  10.747  0.0911 -0.1876 -0.1362
  586loPI   C2B 9374  13.061   4.686  10.320  0.0432  0.0278  0.3199
  586loPI   C3B 9375  13.142   4.549  10.018 -0.1318  0.2226  0.0154
  586loPI   C4B 9376  13.036   4.661   9.716  0.3475  0.0470 -0.0173
  587loPI    C1 9377   8.518  12.479  11.782  0.1070  0.0636 -0.1541
  587loPI    C2 9378   8.125  12.465  11.852  0.1569 -0.0055  0.1273
  587loPI    C3 9379   8.383  12.421  12.154  0.3812  0.1729 -0.0346
  587loPI   PO4 9380   8.582  12.372  11.550 -0.0402 -0.0196  0.0757
  587loPI   GL1 9381   8.641  12.420  11.154 -0.1215  0.2413 -0.0830
  587loPI   GL2 9382   8.463  12.593  11.000 -0.0094  0.0866  0.2246
  587loPI   C1A 9383   8.688  12.152  10.777 -0.2375 -0.0165 -0.4209
  587loPI   C2A 9384   8.733  12.033  10.368  0.0156  0.0194  0.1396
  587loPI   C3A 9385   8.639  12.059   9.973  0.1084  0.0460  0.2333
  587loPI   C4A 9386   8.653  12.035   9.619 -0.0353 -0.2197  0.2036
  587loPI   C5A 9387   8.740  11.951   9.174 -0.0036  0.1103 -0.1226
  587loPI   C6A 9388   9.075  11.893   8.895 -0.0798 -0.0715 -0.4011
  587loPI   C1B 9389   8.460  12.561  10.531 -0.0456  0.0053  0.1713
  587loPI   C2B 9390   8.354  12.551  10.144 -0.2200  0.0723  0.0720
  587loPI   C3B 9391   8.278  12.394   9.777  0.2777 -0.4511 -0.2273
  587loPI   C4B 9392   8.295  12.329   9.315 -0.1483  0.2661  0.1172
  588loPI    C1 9393   0.054  10.809  11.666 -0.1185 -0.0448  0.3137
  588loPI    C2 9394   0.377  10.672  11.859 -0.0022 -0.1561  0.0453
  588loPI    C3 9395   0.288  11.062  11.869  0.1953 -0.1101  0.0417
  588loPI   PO4 9396   0.095  10.686  11.377  0.0507  0.1397  0.1060
  588loPI   GL1 9397   0.076  10.237  11.154 -0.2610  0.2047 -0.0851
  588loPI   GL2 9398  -0.304  10.133  11.071  0.3836 -0.1097 -0.1975
  588loPI   C1A 9399   0.073  10.457  10.726  0.0466 -0.3865  0.0834
  588loPI   C2A 9400   0.083  10.502  10.208 -0.0627  0.1804 -0.0828
  588loPI   C3A 9401  -0.015  10.480   9.788 -0.3854  0.3472  0.1127
  588loPI   C4A 9402  -0.055  10.444   9.297 -0.0395 -0.1102  0.1073
  588loPI   C5A 9403   0.115  10.545   8.912 -0.2185  0.1535 -0.2217
  588loPI   C6A 9404   0.324  10.602   8.559  0.0926 -0.0863  0.1769
  588loPI   C1B 9405  -0.096   9.978  10.726  0.2059  0.0148 -0.2056
  588loPI   C2B 9406  -0.129  10.041  10.300 -0.3257 -0.1438  0.0845
  588loPI   C3B 9407  -0.183   9.985   9.916 -0.0905  0.0105 -0.1883
  588loPI   C4B 9408  -0.162   9.962   9.477 -0.1619 -0.2626  0.1993
  589loPI    C1 9409   5.905  12.890  11.663  0.1897  0.0543  0.0685
  589loPI    C2 9410   6.041  12.858  12.038  0.1448  0.0584  0.0851
  589loPI    C3 9411   5.668  12.743  11.950  0.1333  0.1187  0.0549
  589loPI   PO4 9412   6.011  12.811  11.568  0.0496  0.0461 -0.0786
  589loPI   GL1 9413   6.266  12.850  11.234  0.2113 -0.3915 -0.2560
  589loPI   GL2 9414   6.627  12.748  11.264  0.0053  0.0316 -0.2914
  589loPI   C1A 9415   6.139  12.984  10.813  0.0109 -0.0907 -0.2445
  589loPI   C2A 9416   6.159  13.017  10.417  0.0783 -0.0665  0.1104
  589loPI   C3A 9417   6.100  12.948   9.938  0.0930 -0.3139 -0.0394
  589loPI   C4A 9418   6.120  12.963   9.448  0.0051  0.1181 -0.0429
  589loPI   C5A 9419   6.014  12.883   9.084 -0.0288  0.5736 -0.2074
  589loPI   C6A 9420   6.144  12.529   8.880  0.2955 -0.0035 -0.1131
  589loPI   C1B 9421   6.587  12.685  10.881 -0.3463  0.1844 -0.2006
  589loPI   C2B 9422   6.456  12.646  10.443 -0.3866 -0.1636 -0.1724
  589loPI   C3B 9423   6.389  12.547  10.095  0.2099 -0.0824 -0.0964
  589loPI   C4B 9424   6.421  12.638   9.715  0.1325  0.2614  0.1639
  590loPI    C1 9425   5.305  10.417  12.046  0.0159 -0.1113  0.0128
  590loPI    C2 9426   5.689  10.370  12.148 -0.0155  0.0247  0.1993
  590loPI    C3 9427   5.416  10.451  12.429 -0.1639  0.0382  0.0531
  590loPI   PO4 9428   5.264  10.543  11.876 -0.0628  0.1240 -0.0391
  590loPI   GL1 9429   5.215  10.482  11.490 -0.1221 -0.0486  0.0073
  590loPI   GL2 9430   5.421  10.408  11.218  0.0342 -0.1787  0.3214
  590loPI   C1A 9431   5.099  10.703  10.972  0.0580 -0.0249  0.0761
  590loPI   C2A 9432   5.234  10.567  10.588  0.1011 -0.2897  0.0342
  590loPI   C3A 9433   5.297  10.528  10.148  0.1408 -0.0800  0.2501
  590loPI   C4A 9434   5.290  10.519   9.632 -0.1045  0.0967 -0.0043
  590loPI   C5A 9435   5.429  10.369   9.215 -0.2850 -0.0213  0.0590
  590loPI   C6A 9436   5.651  10.231   8.854  0.2483  0.2952  0.2992
  590loPI   C1B 9437   5.556  10.228  10.848 -0.0195  0.0265  0.2410
  590loPI   C2B 9438   5.546  10.145  10.472 -0.1501 -0.1388  0.1007
  590loPI   C3B 9439   5.619  10.143  10.010  0.1029 -0.1553  0.2321
  590loPI   C4B 9440   5.664  10.186   9.598 -0.2880  0.1463  0.1021
  591loPI    C1 9441   3.496   0.991  11.346  0.1252  0.4033  0.0140
  591loPI    C2 9442   3.243   1.162  11.604  0.0840  0.1405  0.1501
  591loPI    C3 9443   3.551   0.945  11.739  0.1819  0.1719 -0.0198
  591loPI   PO4 9444   3.573   1.226  11.163 -0.2558 -0.0000 -0.3644
  591loPI   GL1 9445   3.631   1.066  10.829  0.1093  0.5802 -0.0167
  591loPI   GL2 9446   3.380   0.913  10.708 -0.0966  0.2409  0.3778
  591loPI   C1A 9447   3.611   1.468  10.565  0.3678 -0.0090  0.1412
  591loPI   C2A 9448   3.614   1.574  10.191  0.0529 -0.2903  0.0899
  591loPI   C3A 9449   3.477   1.530   9.761  0.2773  0.2136  0.0045
  591loPI   C4A 9450   3.496   1.449   9.338 -0.1127  0.0649  0.0852
  591loPI   C5A 9451   3.468   1.291   8.954 -0.4065  0.0954  0.2264
  591loPI   C6A 9452   3.427   0.948   8.571 -0.0280 -0.2313  0.2913
  591loPI   C1B 9453   3.448   1.063  10.239 -0.0922  0.2657  0.2941
  591loPI   C2B 9454   3.326   1.052   9.891  0.2223  0.3866  0.3396
  591loPI   C3B 9455   3.269   0.947   9.502 -0.1277 -0.2920  0.1201
  591loPI   C4B 9456   3.204   0.882   8.994 -0.4323 -0.2649  0.0282
  592loPI    C1 9457   5.361   1.798  11.286  0.1341  0.0033  0.0333
  592loPI    C2 9458   5.458   1.424  11.183  0.1250 -0.0318  0.1513
  592loPI    C3 9459   5.395   1.516  11.567 -0.1750  0.0214  0.0924
  592loPI   PO4 9460   5.511   1.912  11.222 -0.1536  0.0420  0.0411
  592loPI   GL1 9461   5.631   2.070  10.924 -0.0625  0.1549 -0.1258
  592loPI   GL2 9462   5.741   1.653  10.794  0.1444 -0.0914 -0.5021
  592loPI   C1A 9463   5.556   1.950  10.462  0.1399 -0.1383  0.1655
  592loPI   C2A 9464   5.544   1.886  10.026  0.1244 -0.0223 -0.1059
  592loPI   C3A 9465   5.533   1.874   9.610 -0.0194 -0.1047  0.1630
  592loPI   C4A 9466   5.604   1.783   9.171  0.0779 -0.0163  0.1409
  592loPI   C5A 9467   5.473   1.620   8.731 -0.2227 -0.0319 -0.2916
  592loPI   C6A 9468   5.413   1.658   8.298 -0.0378  0.2307 -0.0146
  592loPI   C1B 9469   5.940   1.567  10.357  0.3383 -0.0858 -0.1059
  592loPI   C2B 9470   5.894   1.470   9.987 -0.3600 -0.1250 -0.0147
  592loPI   C3B 9471   5.855   1.496   9.596 -0.0162 -0.0972  0.2553
  592loPI   C4B 9472   5.832   1.347   9.235 -0.0776 -0.1959 -0.0979
  593loPI    C1 9473  10.071   5.180  11.821 -0.0091  0.0693 -0.0027
  593loPI    C2 9474   9.731   5.086  12.010 -0.0109  0.3694  0.1499
  593loPI    C3 9475  10.035   5.249  12.214  0.2211  0.1184  0.0117
  593loPI   PO4 9476  10.014   5.245  11.588  0.1921  0.2267  0.1382
  593loPI   GL1 9477   9.778   5.110  11.263  0.2766 -0.0458 -0.1327
  593loPI   GL2 9478   9.612   5.324  11.142 -0.2640 -0.1519  0.1381
  593loPI   C1A 9479   9.961   4.980  10.951  0.2690  0.0948  0.0784
  593loPI   C2A 9480   9.936   5.090  10.493  0.1529  0.1337 -0.2167
  593loPI   C3A 9481   9.864   5.020  10.005  0.2726  0.1347 -0.0307
  593loPI   C4A 9482   9.929   4.853   9.627  0.0125 -0.1300  0.1869
  593loPI   C5A 9483   9.945   4.919   9.126 -0.0841  0.0059  0.0114
  593loPI   C6A 9484   9.565   5.106   8.888  0.0980  0.0826  0.0657
  593loPI   C1B 9485   9.650   5.408  10.736  0.2677 -0.1761  0.0284
  593loPI   C2B 9486   9.570   5.309  10.311 -0.1937 -0.4047  0.2292
  593loPI   C3B 9487   9.587   5.379   9.851 -0.0175 -0.0194  0.1581
  593loPI   C4B 9488   9.627   5.293   9.393  0.1348 -0.0527  0.0165
  594loPI    C1 9489   3.352   6.838  11.774 -0.0042 -0.0607 -0.1604
  594loPI    C2 9490   3.572   7.076  11.539 -0.0332  0.1230 -0.0039
  594loPI    C3 9491   3.655   7.049  11.930 -0.2668  0.1680  0.0501
  594loPI   PO4 9492   3.258   6.717  11.615  0.3078 -0.0014 -0.2619
  594loPI   GL1 9493   3.361   6.825  11.167 -0.0162  0.0396  0.0798
  594loPI   GL2 9494   3.313   7.090  11.064 -0.1808 -0.1987  0.1298
  594loPI   C1A 9495   3.444   6.565  10.744 -0.3085  0.0034 -0.3025
  594loPI   C2A 9496   3.442   6.445  10.339 -0.1055  0.2450 -0.1003
  594loPI   C3A 9497   3.341   6.396   9.880  0.2251 -0.0475  0.1847
  594loPI   C4A 9498   3.334   6.440   9.536  0.0778  0.1075 -0.0214
  594loPI   C5A 9499   3.405   6.474   9.046 -0.1448  0.0291  0.1738
  594loPI   C6A 9500   3.192   6.702   8.640 -0.1227  0.0338  0.1042
  594loPI   C1B 9501   3.510   7.166  10.672  0.2561  0.0632 -0.2948
  594loPI   C2B 9502   3.483   7.082  10.243  0.0587 -0.1159  0.1112
  594loPI   C3B 9503   3.502   6.890   9.829  0.2518  0.0742 -0.1232
  594loPI   C4B 9504   3.526   6.970   9.429 -0.2636  0.0074 -0.0740
  595loPI    C1 9505  17.246  16.271  11.402  0.0887 -0.1340  0.1008
  595loPI    C2 9506  16.976  16.566  11.404 -0.0726 -0.2772 -0.1064
  595loPI    C3 9507  17.005  16.319  11.718  0.1032 -0.0081  0.0931
  595loPI   PO4 9508  17.202  16.116  11.195 -0.1792 -0.2171  0.0404
  595loPI   GL1 9509  16.967  16.063  10.838  0.0884 -0.1939  0.2030
  595loPI   GL2 9510  16.861  16.353  10.906 -0.2008  0.1790  0.0673
  595loPI   C1A 9511  17.044  16.001  10.407  0.1293 -0.0797  0.2236
  595loPI   C2A 9512  17.105  15.993   9.916  0.0414 -0.2449  0.1657
  595loPI   C3A 9513  17.009  15.940   9.481  0.0461  0.0595  0.0826
  595loPI   C4A 9514  16.966  15.775   9.065  0.0179 -0.2190  0.0939
  595loPI   C5A 9515  16.668  15.465   8.768  0.2960 -0.0186 -0.0045
  595loPI   C6A 9516  16.314  15.343   8.531  0.1503 -0.2210  0.2270
  595loPI   C1B 9517  16.689  16.369  10.466  0.2320  0.1975  0.1473
  595loPI   C2B 9518  16.689  16.459  10.171  0.1923  0.0057  0.1070
  595loPI   C3B 9519  16.757  16.428   9.793 -0.0417  0.0533  0.1339
  595loPI   C4B 9520  16.679  16.301   9.360 -0.0526 -0.2055 -0.1175
  596loPI    C1 9521   2.928   2.725  11.577  0.1951  0.1266  0.0984
  596loPI    C2 9522   3.005   3.099  11.697 -0.0481  0.1076  0.3227
  596loPI    C3 9523   3.214   2.793  11.849  0.2047  0.1561  0.0809
  596loPI   PO4 9524   2.746   2.759  11.384  0.1307 -0.0756 -0.2314
  596loPI   GL1 9525   2.606   2.843  11.003 -0.2426 -0.0212 -0.0617
  596loPI   GL2 9526   2.756   2.639  10.733  0.1575 -0.1215 -0.0679
  596loPI   C1A 9527   2.626   3.142  10.611  0.0221 -0.0706 -0.0858
  596loPI   C2A 9528   2.576   3.219  10.150 -0.3034 -0.6239 -0.0572
  596loPI   C3A 9529   2.692   3.160   9.727 -0.1092 -0.0364  0.0615
  596loPI   C4A 9530   2.628   3.075   9.216  0.2426 -0.2650 -0.1461
  596loPI   C5A 9531   2.589   3.168   8.846 -0.1060 -0.0819 -0.0476
  596loPI   C6A 9532   2.565   3.225   8.402 -0.0850  0.0752  0.1315
  596loPI   C1B 9533   2.489   2.739  10.351 -0.1215  0.3974  0.4092
  596loPI   C2B 9534   2.471   2.675   9.866 -0.1958 -0.0094  0.0570
  596loPI   C3B 9535   2.470   2.593   9.289  0.1879  0.0017  0.0283
  596loPI   C4B 9536   2.313   2.483   8.852 -0.0057 -0.3260  0.1028
  597loPI    C1 9537  14.506   3.660  11.692  0.1630  0.1896 -0.0236
  597loPI    C2 9538  14.235   3.906  11.852 -0.1361 -0.2224  0.1212
  597loPI    C3 9539  14.465   3.681  12.089  0.0376 -0.1873 -0.0123
  597loPI   PO4 9540  14.522   3.786  11.475 -0.0499 -0.2312  0.0749
  597loPI   GL1 9541  14.435   4.103  11.236  0.1676 -0.0784 -0.3992
  597loPI   GL2 9542  14.717   4.119  11.093 -0.0174  0.2540  0.0772
  597loPI   C1A 9543  14.326   3.944  10.798 -0.0524  0.1153 -0.1396
  597loPI   C2A 9544  14.317   3.922  10.364 -0.2019  0.3505 -0.1741
  597loPI   C3A 9545  14.331   3.931   9.899 -0.1067  0.0228 -0.2260
  597loPI   C4A 9546  14.249   3.802   9.467 -0.0132 -0.2221 -0.0227
  597loPI   C5A 9547  14.229   3.954   9.057  0.0206 -0.3796 -0.0055
  597loPI   C6A 9548  14.209   4.038   8.746 -0.4451  0.1139  0.1764
  597loPI   C1B 9549  14.805   4.044  10.691 -0.0368 -0.0301 -0.0312
  597loPI   C2B 9550  14.814   4.077  10.176 -0.2544  0.2927 -0.2224
  597loPI   C3B 9551  14.792   3.996   9.763  0.2856 -0.0490  0.1288
  597loPI   C4B 9552  14.803   4.063   9.271 -0.0613 -0.0288  0.0779
  598loPI    C1 9553  16.430  10.594  11.841  0.3016 -0.0771  0.2015
  598loPI    C2 9554  16.671  10.563  12.159  0.1803  0.1896  0.3226
  598loPI    C3 9555  16.274  10.544  12.206  0.1712 -0.1900  0.1312
  598loPI   PO4 9556  16.520  10.532  11.630 -0.0494  0.0090  0.0524
  598loPI   GL1 9557  16.614  10.567  11.193  0.2557 -0.1047 -0.3631
  598loPI   GL2 9558  16.736  10.886  11.238 -0.1230 -0.0005  0.0483
  598loPI   C1A 9559  16.654  10.319  10.860  0.0334  0.0105 -0.1996
  598loPI   C2A 9560  16.547  10.210  10.428 -0.0839 -0.0377 -0.0408
  598loPI   C3A 9561  16.516  10.223   9.931  0.1721 -0.0926  0.1632
  598loPI   C4A 9562  16.440  10.321   9.506  0.1207 -0.2682 -0.2726
  598loPI   C5A 9563  16.470  10.320   9.081 -0.0015  0.1551  0.4473
  598loPI   C6A 9564  16.606  10.285   8.712 -0.0223  0.0546 -0.1920
  598loPI   C1B 9565  16.812  10.786  10.782 -0.0571  0.1102  0.1099
  598loPI   C2B 9566  16.776  10.768  10.358  0.1157 -0.1611 -0.0908
  598loPI   C3B 9567  16.696  10.755   9.884  0.1747 -0.0862 -0.1006
  598loPI   C4B 9568  16.649  10.788   9.482 -0.0873 -0.2874  0.1282
  599loPI    C1 9569   5.367  11.817  11.802 -0.2537 -0.2008  0.0786
  599loPI    C2 9570   5.062  12.029  11.950 -0.2441 -0.1929  0.0869
  599loPI    C3 9571   5.303  11.825  12.196 -0.1180 -0.0322  0.0984
  599loPI   PO4 9572   5.445  12.061  11.543  0.2419  0.0681  0.0829
  599loPI   GL1 9573   5.305  12.209  11.156  0.2890  0.0223  0.1242
  599loPI   GL2 9574   5.379  12.479  11.015 -0.0643  0.1334  0.0280
  599loPI   C1A 9575   5.340  12.017  10.786  0.3428  0.0447 -0.0348
  599loPI   C2A 9576   5.217  11.992  10.395 -0.3600  0.2514  0.1071
  599loPI   C3A 9577   5.233  11.946   9.914  0.2086  0.0285  0.4725
  599loPI   C4A 9578   5.281  11.927   9.489  0.0482 -0.0226  0.3449
  599loPI   C5A 9579   5.355  11.785   9.068 -0.1326 -0.1727  0.2887
  599loPI   C6A 9580   5.574  11.689   8.808 -0.1079  0.0041  0.0760
  599loPI   C1B 9581   5.473  12.451  10.585 -0.0147 -0.0401  0.1563
  599loPI   C2B 9582   5.427  12.444  10.095  0.4336 -0.0551 -0.0485
  599loPI   C3B 9583   5.398  12.459   9.764  0.0795  0.0469 -0.0671
  599loPI   C4B 9584   5.485  12.414   9.375  0.0607  0.0175 -0.1070
  600loPI    C1 9585  10.043  12.876  11.762  0.2009 -0.2124  0.0553
  600loPI    C2 9586  10.373  12.944  11.977  0.0887  0.0020  0.1629
  600loPI    C3 9587  10.173  12.601  12.022  0.3417 -0.1659  0.0352
  600loPI   PO4 9588  10.135  12.964  11.538 -0.0033  0.0609  0.4009
  600loPI   GL1 9589   9.971  13.226  11.245  0.2615  0.3244  0.1966
  600loPI   GL2 9590   9.691  13.069  11.158 -0.3391  0.2018  0.0915
  600loPI   C1A 9591  10.106  13.182  10.850  0.0176  0.0014 -0.1898
  600loPI   C2A 9592  10.060  13.184  10.407 -0.1310  0.1438 -0.0094
  600loPI   C3A 9593  10.128  13.169   9.973  0.1664 -0.1424  0.0758
  600loPI   C4A 9594  10.286  12.923   9.688 -0.0641 -0.0239 -0.0316
  600loPI   C5A 9595  10.149  12.711   9.298  0.2858  0.2092 -0.0141
  600loPI   C6A 9596   9.941  12.759   8.899  0.1163 -0.0755  0.2146
  600loPI   C1B 9597   9.460  13.123  10.804  0.2624  0.2603 -0.0054
  600loPI   C2B 9598   9.565  13.133  10.448 -0.0071  0.5888  0.0344
  600loPI   C3B 9599   9.538  13.074  10.038 -0.1386  0.0835 -0.0532
  600loPI   C4B 9600   9.500  13.068   9.623  0.1471 -0.1176 -0.0735
  601loPI    C1 9601   4.749  15.566  11.907 -0.3826 -0.2764 -0.1667
  601loPI    C2 9602   4.649  15.936  12.019  0.3917 -0.0863 -0.0495
  601loPI    C3 9603   4.450  15.623  12.166 -0.0913  0.2641  0.0670
  601loPI   PO4 9604   4.775  15.579  11.643  0.4093  0.1768 -0.1646
  601loPI   GL1 9605   4.868  15.695  11.183  0.1384  0.1336  0.5305
  601loPI   GL2 9606   4.812  15.365  11.014 -0.2733  0.2397 -0.1017
  601loPI   C1A 9607   5.188  15.657  10.805  0.0281  0.1201 -0.0994
  601loPI   C2A 9608   5.207  15.577  10.329  0.0374 -0.1701 -0.0322
  601loPI   C3A 9609   5.137  15.550   9.907 -0.0875  0.1840  0.0094
  601loPI   C4A 9610   5.196  15.492   9.426 -0.1046 -0.2310 -0.1744
  601loPI   C5A 9611   5.171  15.551   9.018 -0.1103 -0.0475  0.3601
  601loPI   C6A 9612   5.265  15.729   8.641 -0.0097  0.0477 -0.0115
  601loPI   C1B 9613   4.716  15.567  10.600 -0.2028  0.2768  0.0724
  601loPI   C2B 9614   4.685  15.534  10.162  0.0258 -0.1245 -0.2576
  601loPI   C3B 9615   4.681  15.473   9.747  0.0186  0.1851 -0.1341
  601loPI   C4B 9616   4.660  15.432   9.304 -0.1770 -0.2267 -0.0008
  602loPI    C1 9617  15.194   6.457  11.961  0.0527  0.0581 -0.1524
  602loPI    C2 9618  15.162   6.771  12.207 -0.1025 -0.4635  0.5213
  602loPI    C3 9619  15.518   6.596  12.149  0.0186 -0.0695  0.0027
  602loPI   PO4 9620  15.035   6.583  11.720 -0.0549  0.0482 -0.1225
  602loPI   GL1 9621  15.002   6.591  11.258 -0.0519 -0.0535 -0.1898
  602loPI   GL2 9622  14.962   6.824  11.136 -0.0316 -0.0603 -0.2296
  602loPI   C1A 9623  15.134   6.430  10.858  0.0639 -0.1147 -0.2165
  602loPI   C2A 9624  15.184   6.396  10.476 -0.1815  0.2027 -0.2013
  602loPI   C3A 9625  15.105   6.482  10.133  0.0314 -0.1690  0.0143
  602loPI   C4A 9626  15.138   6.397   9.669  0.1615 -0.2596 -0.2119
  602loPI   C5A 9627  15.152   6.363   9.264 -0.2485  0.0102 -0.1503
  602loPI   C6A 9628  14.847   6.582   8.936 -0.0661  0.0935 -0.3130
  602loPI   C1B 9629  14.847   6.768  10.705 -0.0621  0.0813  0.2097
  602loPI   C2B 9630  14.798   6.756  10.334  0.0127  0.0349 -0.0175
  602loPI   C3B 9631  14.844   6.767   9.832  0.2575 -0.2239  0.2522
  602loPI   C4B 9632  14.834   6.729   9.430 -0.2137 -0.0038  0.0786
  603loPI    C1 9633  14.203   2.282  11.596 -0.0691 -0.2906 -0.0326
  603loPI    C2 9634  13.920   2.486  11.400  0.1944  0.1476  0.0303
  603loPI    C3 9635  13.946   2.513  11.798  0.1715 -0.0900  0.0490
  603loPI   PO4 9636  14.218   2.106  11.486 -0.1202 -0.0336 -0.2171
  603loPI   GL1 9637  14.026   2.050  11.135  0.0989 -0.0423 -0.1691
  603loPI   GL2 9638  14.396   1.954  11.018  0.0736 -0.1059 -0.1238
  603loPI   C1A 9639  14.121   2.135  10.630 -0.3107 -0.0252  0.2900
  603loPI   C2A 9640  14.082   2.065  10.215  0.2500 -0.2730  0.0769
  603loPI   C3A 9641  14.052   2.080   9.727  0.0569 -0.3552  0.0111
  603loPI   C4A 9642  14.033   1.976   9.233 -0.0990  0.1675  0.0480
  603loPI   C5A 9643  14.041   2.040   8.803  0.0913 -0.0322 -0.1186
  603loPI   C6A 9644  13.848   2.024   8.355  0.0069 -0.0033 -0.0458
  603loPI   C1B 9645  14.494   1.741  10.645 -0.2374  0.0972 -0.0549
  603loPI   C2B 9646  14.409   1.693  10.115  0.0515 -0.0471  0.0819
  603loPI   C3B 9647  14.500   1.605   9.700  0.1347 -0.1279  0.0192
  603loPI   C4B 9648  14.378   1.491   9.343  0.1238  0.0825  0.2208
  604loPI    C1 9649   1.399  15.407  11.794 -0.0884 -0.0779  0.0476
  604loPI    C2 9650   1.274  15.035  11.718  0.1133 -0.1640  0.1324
  604loPI    C3 9651   1.225  15.192  12.082 -0.0531 -0.0741  0.0719
  604loPI   PO4 9652   1.539  15.423  11.563 -0.1466 -0.2463  0.0521
  604loPI   GL1 9653   1.387  15.577  11.062 -0.1450 -0.1022 -0.0892
  604loPI   GL2 9654   1.301  15.784  10.841 -0.0591 -0.3976 -0.2049
  604loPI   C1A 9655   1.243  15.335  10.634 -0.1939  0.0390 -0.0738
  604loPI   C2A 9656   1.179  15.335  10.175 -0.2079  0.0801  0.0117
  604loPI   C3A 9657   1.269  15.293   9.665 -0.1516 -0.1679 -0.0543
  604loPI   C4A 9658   1.173  15.253   9.281 -0.1996  0.0071  0.2044
  604loPI   C5A 9659   1.135  15.351   8.860  0.0549 -0.1610 -0.2932
  604loPI   C6A 9660   1.208  15.176   8.586 -0.1802  0.0541  0.2845
  604loPI   C1B 9661   1.410  15.867  10.441  0.0685 -0.0502  0.0065
  604loPI   C2B 9662   1.460  15.850   9.998  0.2674  0.1174  0.1647
  604loPI   C3B 9663   1.379  15.798   9.496 -0.3833  0.0604 -0.1468
  604loPI   C4B 9664   1.409  15.699   9.088  0.0654 -0.0016  0.1384
  605loPI    C1 9665  17.223   0.674  11.603 -0.2144  0.1017  0.1686
  605loPI    C2 9666  17.500   0.765  11.876 -0.0661 -0.1186  0.0940
  605loPI    C3 9667  17.121   0.879  11.931 -0.0117 -0.0427  0.3247
  605loPI   PO4 9668  17.312   0.704  11.374 -0.1984 -0.1937 -0.1695
  605loPI   GL1 9669  17.314   1.089  11.050  0.1689  0.0715  0.0178
  605loPI   GL2 9670  17.070   1.283  11.165 -0.0875 -0.4232  0.4581
  605loPI   C1A 9671  17.433   0.861  10.671 -0.0785  0.1077  0.0172
  605loPI   C2A 9672  17.422   0.848  10.192 -0.0402  0.1089  0.3219
  605loPI   C3A 9673  17.419   0.775   9.711 -0.3800 -0.0545  0.2939
  605loPI   C4A 9674  17.495   0.811   9.269  0.0729  0.0746  0.0963
  605loPI   C5A 9675  17.125   0.865   9.001 -0.0985  0.0894 -0.2939
  605loPI   C6A 9676  16.762   0.696   8.755 -0.2390 -0.3520 -0.1222
  605loPI   C1B 9677  17.049   1.356  10.681  0.0301 -0.0595  0.1326
  605loPI   C2B 9678  17.061   1.236  10.297 -0.1387  0.2847  0.1569
  605loPI   C3B 9679  17.035   1.111   9.879  0.1686  0.1702  0.0627
  605loPI   C4B 9680  17.108   1.163   9.392 -0.2712  0.0474  0.1173
  606loPI    C1 9681   2.169  14.951  11.415  0.1437  0.0044  0.0838
  606loPI    C2 9682   2.439  15.033  11.698  0.0370 -0.0746  0.2100
  606loPI    C3 9683   2.149  14.768  11.770  0.0050 -0.0901  0.0282
  606loPI   PO4 9684   2.256  14.896  11.200 -0.1537 -0.1865  0.1651
  606loPI   GL1 9685   2.460  14.610  11.012  0.0439 -0.1771  0.3351
  606loPI   GL2 9686   2.759  14.545  11.051  0.2800  0.2779 -0.3198
  606loPI   C1A 9687   2.476  14.655  10.561  0.2877  0.1506  0.0535
  606loPI   C2A 9688   2.421  14.685  10.114 -0.0760  0.1064 -0.2769
  606loPI   C3A 9689   2.365  14.566   9.702 -0.2209  0.1632  0.1453
  606loPI   C4A 9690   2.405  14.605   9.234  0.1902 -0.1375 -0.1076
  606loPI   C5A 9691   2.553  14.618   8.872  0.1606  0.1825 -0.0224
  606loPI   C6A 9692   2.611  14.557   8.376 -0.0065 -0.1240  0.2125
  606loPI   C1B 9693   2.750  14.258  10.698  0.1562 -0.0242  0.1085
  606loPI   C2B 9694   2.767  14.173  10.258 -0.0076  0.0574  0.1180
  606loPI   C3B 9695   2.712  14.237   9.861  0.1531  0.1209 -0.1067
  606loPI   C4B 9696   2.761  14.252   9.422 -0.0729  0.2375 -0.0466
  607loPI    C1 9697   8.147   5.574  11.901  0.1718  0.3131 -0.0530
  607loPI    C2 9698   7.879   5.822  12.065  0.0383  0.0738  0.0984
  607loPI    C3 9699   8.062   5.548  12.291  0.3613  0.1870 -0.0187
  607loPI   PO4 9700   8.173   5.692  11.627 -0.0768  0.0709  0.0664
  607loPI   GL1 9701   8.118   5.955  11.288  0.0980 -0.3004 -0.0596
  607loPI   GL2 9702   8.115   5.527  11.120 -0.1017  0.0300 -0.0240
  607loPI   C1A 9703   7.950   6.001  10.909  0.1457 -0.0096  0.0067
  607loPI   C2A 9704   7.919   6.020  10.514 -0.1925 -0.1297  0.0139
  607loPI   C3A 9705   7.972   5.932  10.046  0.0191 -0.0097  0.0482
  607loPI   C4A 9706   7.890   5.911   9.724  0.2112 -0.0369 -0.2375
  607loPI   C5A 9707   7.960   6.019   9.287  0.1226 -0.3483 -0.0080
  607loPI   C6A 9708   7.956   6.285   8.841 -0.3101 -0.0124  0.1165
  607loPI   C1B 9709   8.220   5.661  10.678  0.0949 -0.1507  0.1350
  607loPI   C2B 9710   8.287   5.618  10.271 -0.2431 -0.2458  0.2137
  607loPI   C3B 9711   8.263   5.542   9.776  0.1518  0.1771  0.1250
  607loPI   C4B 9712   8.208   5.607   9.386 -0.1306  0.1822  0.2793
  608loPI    C1 9713  13.094   0.400  11.344  0.0308  0.1274 -0.0562
  608loPI    C2 9714  13.036   0.436  11.738 -0.0082 -0.1758 -0.0319
  608loPI    C3 9715  12.727   0.469  11.487 -0.0407 -0.3168 -0.0112
  608loPI   PO4 9716  13.233   0.070  11.315 -0.0186 -0.1077 -0.2858
  608loPI   GL1 9717  13.224   0.004  10.849 -0.1070  0.1195 -0.2271
  608loPI   GL2 9718  13.469   0.085  10.806 -0.3960  0.0328 -0.3232
  608loPI   C1A 9719  12.890  -0.050  10.496  0.0243  0.4123  0.1261
  608loPI   C2A 9720  12.848  -0.040  10.035 -0.2340 -0.0463 -0.2895
  608loPI   C3A 9721  12.893  -0.108   9.613 -0.3707 -0.0841 -0.2547
  608loPI   C4A 9722  12.901  -0.127   9.214 -0.0065 -0.1640  0.1018
  608loPI   C5A 9723  12.916  -0.088   8.784  0.1681 -0.0419 -0.2541
  608loPI   C6A 9724  13.375  -0.192   8.539 -0.0358 -0.1411  0.0511
  608loPI   C1B 9725  13.442   0.070  10.413  0.1161 -0.1692  0.0547
  608loPI   C2B 9726  13.392   0.024   9.937 -0.0461 -0.2040 -0.0019
  608loPI   C3B 9727  13.407   0.031   9.479 -0.3091 -0.2253  0.2914
  608loPI   C4B 9728  13.387  -0.034   9.064 -0.1717 -0.2563  0.5013
  609POPI    C1 9729   8.621   0.781  11.592 -0.0502  0.0905 -0.0533
  609POPI    C2 9730   8.519   0.445  11.783  0.0645 -0.0061 -0.1611
  609POPI    C3 9731   8.595   0.777  11.991  0.3060 -0.1419 -0.0273
  609POPI   PO4 9732   8.562   0.673  11.351  0.0613 -0.1498  0.1265
  609POPI   GL1 9733   8.482   0.387  11.002  0.3281  0.0580  0.1400
  609POPI   GL2 9734   8.729   0.282  10.948  0.1179  0.1437 -0.0824
  609POPI   C1A 9735   8.337   0.423  10.551  0.0724 -0.1152 -0.3120
  609POPI   D2A 9736   8.337   0.586  10.125  0.0501  0.1673  0.1731
  609POPI   C3A 9737   8.383   0.568   9.690  0.0295 -0.1477  0.2046
  609POPI   C4A 9738   8.332   0.578   9.305  0.0857  0.0357 -0.0480
  609POPI   C1B 9739   8.703   0.105  10.549  0.0963  0.0521 -0.1541
  609POPI   C2B 9740   8.645   0.201  10.130 -0.1379  0.0374  0.3050
  609POPI   C3B 9741   8.714   0.179   9.662  0.0466  0.1447 -0.2509
  609POPI   C4B 9742   8.622   0.207   9.199 -0.0441  0.1077  0.1225
  610POPI    C1 9743   2.444   0.430  11.201  0.0396 -0.0977 -0.0432
  610POPI    C2 9744   2.587   0.234  11.519  0.0590  0.4111  0.2732
  610POPI    C3 9745   2.210   0.368  11.520 -0.1134 -0.0401 -0.1432
  610POPI   PO4 9746   2.391   0.332  10.942  0.2932 -0.1883 -0.1884
  610POPI   GL1 9747   2.578   0.360  10.667  0.1100  0.1556 -0.1491
  610POPI   GL2 9748   2.829   0.225  10.627 -0.1239  0.0445 -0.0976
  610POPI   C1A 9749   2.622   0.588  10.343  0.2886 -0.0938 -0.1793
  610POPI   D2A 9750   2.429   0.757  10.088 -0.1007 -0.0865  0.1138
  610POPI   C3A 9751   2.687   0.463   9.867  0.1446 -0.1993  0.0390
  610POPI   C4A 9752   2.623   0.432   9.398 -0.0836  0.0187  0.0192
  610POPI   C1B 9753   2.892   0.171  10.158  0.1547 -0.0396 -0.0059
  610POPI   C2B 9754   2.980   0.100   9.727  0.1187 -0.0328  0.1013
  610POPI   C3B 9755   2.938  -0.001   9.389 -0.1715 -0.1548  0.0740
  610POPI   C4B 9756   2.936  -0.137   8.938  0.1306 -0.1583  0.0474
  611POPI    C1 9757   1.995   0.714  11.022 -0.1962 -0.0391  0.1087
  611POPI    C2 9758   1.888   0.687  11.406 -0.3391 -0.0430  0.0692
  611POPI    C3 9759   2.211   0.899  11.303 -0.0768 -0.3552  0.2296
  611POPI   PO4 9760   1.709   0.577  10.937  0.1778  0.0123 -0.1806
  611POPI   GL1 9761   1.523   0.719  10.655  0.1833  0.2437 -0.3266
  611POPI   GL2 9762   1.291   0.658  10.539  0.0666  0.0348  0.3950
  611POPI   C1A 9763   1.823   0.668  10.306  0.1492 -0.0609 -0.1247
  611POPI   D2A 9764   1.948   0.780   9.889 -0.1813  0.1130  0.2058
  611POPI   C3A 9765   2.154   0.516   9.667 -0.3484  0.1390  0.0025
  611POPI   C4A 9766   2.175   0.229   9.276 -0.1062  0.3751  0.3335
  611POPI   C1B 9767   1.345   0.640  10.124  0.2500  0.0914  0.0675
  611POPI   C2B 9768   1.361   0.576   9.681  0.3212 -0.2221  0.1081
  611POPI   C3B 9769   1.274   0.608   9.198 -0.0203 -0.0041  0.3750
  611POPI   C4B 9770   1.631   0.775   8.842  0.2720  0.1486 -0.1900
  612POPI    C1 9771   4.632   5.604  11.592 -0.1430 -0.0745 -0.0148
  612POPI    C2 9772   4.520   5.355  11.885 -0.2399  0.0074  0.0186
  612POPI    C3 9773   4.783   5.647  11.960  0.0900 -0.2550 -0.0868
  612POPI   PO4 9774   4.430   5.591  11.432 -0.1865  0.1621 -0.2846
  612POPI   GL1 9775   4.448   5.456  11.071 -0.0110  0.1263 -0.0640
  612POPI   GL2 9776   4.145   5.661  10.946  0.1510  0.2279  0.2103
  612POPI   C1A 9777   4.497   5.333  10.653  0.1503  0.2361  0.0752
  612POPI   D2A 9778   4.446   5.281  10.217 -0.0440  0.3244 -0.0599
  612POPI   C3A 9779   4.380   5.254   9.784 -0.2203  0.0066 -0.0087
  612POPI   C4A 9780   4.299   5.329   9.404 -0.1930  0.0322 -0.0975
  612POPI   C1B 9781   4.106   5.691  10.534 -0.0638 -0.1067 -0.1823
  612POPI   C2B 9782   4.093   5.621  10.057  0.3008  0.0158  0.3714
  612POPI   C3B 9783   4.110   5.742   9.641 -0.0264 -0.3902 -0.1096
  612POPI   C4B 9784   4.083   5.732   9.217  0.0120  0.0633  0.0548
  613POPI    C1 9785   6.412  16.560  11.587 -0.0304  0.0005  0.0376
  613POPI    C2 9786   6.061  16.674  11.434  0.0679  0.1622 -0.0713
  613POPI    C3 9787   6.072  16.453  11.768 -0.1376  0.1121 -0.0962
  613POPI   PO4 9788   6.534  16.486  11.406  0.0052  0.3022  0.1450
  613POPI   GL1 9789   6.452  16.647  10.999 -0.3128 -0.1141  0.3141
  613POPI   GL2 9790   6.147  16.502  10.982 -0.4317  0.3020  0.1361
  613POPI   C1A 9791   6.500  16.792  10.557 -0.0057 -0.0395  0.1741
  613POPI   D2A 9792   6.494  16.650  10.104 -0.0618 -0.0586  0.2060
  613POPI   C3A 9793   6.467  16.651   9.599  0.0128 -0.0141 -0.2372
  613POPI   C4A 9794   6.469  16.613   9.134  0.1577  0.5361  0.1093
  613POPI   C1B 9795   5.936  16.224  10.771  0.0978  0.2694  0.2375
  613POPI   C2B 9796   5.883  16.175  10.242  0.0454  0.0401 -0.2719
  613POPI   C3B 9797   5.784  16.081   9.833  0.1313 -0.0281  0.0846
  613POPI   C4B 9798   5.893  16.147   9.481  0.0754  0.2206 -0.0342
  614POPI    C1 9799  10.173  15.814  11.235 -0.3478  0.3158 -0.1214
  614POPI    C2 9800  10.274  16.191  11.320  0.2778  0.1236  0.0441
  614POPI    C3 9801  10.317  15.906  11.597  0.0198 -0.1082 -0.1499
  614POPI   PO4 9802   9.923  15.885  11.113  0.1771 -0.1008 -0.1188
  614POPI   GL1 9803  10.097  15.957  10.749  0.0065  0.2300 -0.0163
  614POPI   GL2 9804  10.431  16.029  10.817 -0.0675  0.0757  0.0547
  614POPI   C1A 9805   9.980  16.079  10.357 -0.0215 -0.0022  0.2601
  614POPI   D2A 9806  10.122  16.023   9.921 -0.1122 -0.0460  0.0871
  614POPI   C3A 9807   9.910  16.050   9.607  0.0718  0.2962  0.2605
  614POPI   C4A 9808   9.951  16.201   9.198  0.0418  0.2083  0.1532
  614POPI   C1B 9809  10.454  16.052  10.371 -0.1329  0.0177  0.2130
  614POPI   C2B 9810  10.584  16.126   9.886 -0.0954  0.1358  0.1678
  614POPI   C3B 9811  10.386  16.180   9.459  0.0174 -0.0555 -0.1840
  614POPI   C4B 9812  10.448  16.081   9.042 -0.1708  0.3333 -0.0635
  615POPI    C1 9813  11.887   3.775  11.544  0.0689 -0.1668  0.0597
  615POPI    C2 9814  11.876   4.104  11.772  0.0712  0.1021 -0.3185
  615POPI    C3 9815  12.185   3.850  11.800 -0.0697 -0.0252  0.1815
  615POPI   PO4 9816  11.843   3.822  11.377 -0.1024  0.0164 -0.3139
  615POPI   GL1 9817  11.991   4.140  11.036  0.3011  0.1999 -0.1791
  615POPI   GL2 9818  12.312   4.145  10.997 -0.0356 -0.1745  0.0590
  615POPI   C1A 9819  11.935   4.044  10.573 -0.0162 -0.1194 -0.2172
  615POPI   D2A 9820  11.980   4.008  10.149 -0.0127  0.3289  0.0144
  615POPI   C3A 9821  11.897   3.925   9.802 -0.0329 -0.0423 -0.0006
  615POPI   C4A 9822  11.870   3.859   9.410 -0.2185 -0.2907 -0.1769
  615POPI   C1B 9823  12.392   4.175  10.610  0.1404  0.1274  0.0371
  615POPI   C2B 9824  12.428   4.171  10.197  0.3635 -0.1359 -0.0671
  615POPI   C3B 9825  12.383   4.072   9.862  0.1679 -0.1926 -0.0005
  615POPI   C4B 9826  12.482   3.946   9.465 -0.0007  0.0839 -0.0723
  616POPI    C1 9827  14.283   8.800  11.817 -0.1537  0.0304 -0.0841
  616POPI    C2 9828  14.449   8.599  12.120  0.0081  0.1367 -0.1008
  616POPI    C3 9829  14.052   8.590  12.068 -0.0013 -0.0481 -0.0083
  616POPI   PO4 9830  14.415   8.789  11.653 -0.1641  0.0568 -0.0058
  616POPI   GL1 9831  14.438   8.734  11.209  0.0328 -0.2550  0.1371
  616POPI   GL2 9832  14.246   8.649  11.209  0.0902  0.0542  0.1311
  616POPI   C1A 9833  14.702   8.828  10.727  0.0660 -0.1641  0.0248
  616POPI   D2A 9834  14.737   9.070  10.297  0.1650 -0.1219 -0.1217
  616POPI   C3A 9835  14.631   9.070   9.887 -0.1664  0.0345 -0.3130
  616POPI   C4A 9836  14.649   8.939   9.502  0.2628 -0.1406 -0.0462
  616POPI   C1B 9837  14.260   8.650  10.759 -0.1924  0.0731  0.2857
  616POPI   C2B 9838  14.433   8.623  10.289 -0.1146  0.0515 -0.1940
  616POPI   C3B 9839  14.411   8.565   9.924 -0.0425 -0.0560  0.1417
  616POPI   C4B 9840  14.471   8.466   9.477  0.0589 -0.0707 -0.1074
  617POPI    C1 9841   4.769   6.635  11.607  0.0294  0.1860 -0.1104
  617POPI    C2 9842   4.421   6.504  11.755  0.1131  0.0482 -0.0329
  617POPI    C3 9843   4.662   6.729  11.981  0.1128  0.0731 -0.0573
  617POPI   PO4 9844   4.739   6.436  11.349  0.0697 -0.0327  0.4930
  617POPI   GL1 9845   4.575   6.606  10.902 -0.2755 -0.1781  0.0234
  617POPI   GL2 9846   4.838   6.414  10.862  0.1313 -0.0393 -0.1656
  617POPI   C1A 9847   4.396   6.716  10.588  0.2009  0.0992 -0.3175
  617POPI   D2A 9848   4.262   6.762  10.164  0.1150  0.0300  0.0366
  617POPI   C3A 9849   4.377   6.688   9.707  0.0508  0.0657 -0.0244
  617POPI   C4A 9850   4.412   6.610   9.312 -0.1757 -0.2431 -0.0400
  617POPI   C1B 9851   4.833   6.274  10.418  0.1389 -0.0125  0.0132
  617POPI   C2B 9852   4.735   6.227  10.046 -0.0003 -0.1227  0.0710
  617POPI   C3B 9853   4.760   6.282   9.566 -0.0967 -0.1624 -0.0122
  617POPI   C4B 9854   4.778   6.282   9.177 -0.2115  0.1164  0.0954
  618POPI    C1 9855   2.825   3.576  11.597  0.0719  0.0245 -0.1453
  618POPI    C2 9856   2.642   3.868  11.801  0.3053  0.0625  0.0139
  618POPI    C3 9857   2.624   3.491  11.932  0.1718  0.0347 -0.0824
  618POPI   PO4 9858   2.727   3.671  11.326 -0.2167  0.0295  0.0390
  618POPI   GL1 9859   2.941   3.687  11.013 -0.2525 -0.1481  0.2573
  618POPI   GL2 9860   2.736   3.549  10.851 -0.3099 -0.0161 -0.1412
  618POPI   C1A 9861   3.041   3.970  10.664  0.1639 -0.0093 -0.0269
  618POPI   D2A 9862   3.017   4.030  10.312 -0.1218  0.0920  0.0427
  618POPI   C3A 9863   2.927   4.072   9.918 -0.1114  0.0333  0.0810
  618POPI   C4A 9864   3.002   4.119   9.460  0.0977 -0.2959  0.1252
  618POPI   C1B 9865   2.729   3.623  10.399  0.2627 -0.1143  0.2434
  618POPI   C2B 9866   2.870   3.592   9.960  0.0758  0.1344 -0.1481
  618POPI   C3B 9867   2.798   3.569   9.528  0.0225 -0.3248 -0.0926
  618POPI   C4B 9868   2.818   3.491   9.214 -0.1952 -0.1095 -0.1167
  619POPI    C1 9869   0.546   2.927  11.789  0.0142 -0.0575 -0.1811
  619POPI    C2 9870   0.503   3.122  12.136 -0.0161 -0.2327 -0.0855
  619POPI    C3 9871   0.800   2.858  12.090  0.3696  0.2398 -0.4043
  619POPI   PO4 9872   0.558   3.071  11.635 -0.0298  0.3418  0.0688
  619POPI   GL1 9873   0.674   3.053  11.267 -0.0922  0.0278  0.1113
  619POPI   GL2 9874   0.681   2.796  11.023  0.1571  0.1263  0.1319
  619POPI   C1A 9875   0.838   3.289  10.787 -0.1544  0.3320  0.2019
  619POPI   D2A 9876   0.871   3.308  10.292  0.0876 -0.0229 -0.2764
  619POPI   C3A 9877   0.816   3.190   9.876 -0.0594 -0.0731  0.1817
  619POPI   C4A 9878   0.790   3.169   9.449 -0.0176 -0.0182  0.3450
  619POPI   C1B 9879   0.636   2.824  10.616 -0.0540  0.1749 -0.1432
  619POPI   C2B 9880   0.621   2.779  10.149 -0.3791 -0.1623  0.0106
  619POPI   C3B 9881   0.634   2.716   9.631 -0.0130 -0.1779  0.2247
  619POPI   C4B 9882   0.664   2.750   9.214  0.2232 -0.1752  0.1504
  620POPI    C1 9883   5.920   4.984  11.499 -0.0622  0.1130 -0.0669
  620POPI    C2 9884   5.834   4.609  11.607 -0.0868  0.0899 -0.1664
  620POPI    C3 9885   5.837   4.899  11.881  0.0528 -0.0040 -0.0672
  620POPI   PO4 9886   5.842   5.034  11.277  0.0032  0.0859 -0.0874
  620POPI   GL1 9887   5.498   4.895  11.067 -0.1512  0.0569 -0.0235
  620POPI   GL2 9888   5.647   4.612  10.754 -0.1003 -0.2366 -0.0219
  620POPI   C1A 9889   5.722   5.084  10.613  0.3051 -0.2743  0.2953
  620POPI   D2A 9890   5.699   5.079  10.180 -0.1418  0.2083 -0.0832
  620POPI   C3A 9891   5.810   5.088   9.732  0.2362  0.0024 -0.1168
  620POPI   C4A 9892   5.711   5.067   9.339  0.1566  0.1876  0.2703
  620POPI   C1B 9893   5.578   4.620  10.219 -0.0301 -0.1243 -0.1603
  620POPI   C2B 9894   5.558   4.609   9.786 -0.1158 -0.1444 -0.1154
  620POPI   C3B 9895   5.602   4.578   9.461 -0.0731 -0.0280  0.2535
  620POPI   C4B 9896   5.631   4.587   8.980 -0.1757 -0.0507 -0.0017
  621POPI    C1 9897   9.654   3.381  11.769 -0.1135  0.0308  0.1607
  621POPI    C2 9898  10.013   3.464  11.615 -0.0418 -0.1485  0.2283
  621POPI    C3 9899   9.954   3.492  12.009 -0.1296 -0.0255  0.2071
  621POPI   PO4 9900   9.637   3.079  11.607  0.2773 -0.0317 -0.1252
  621POPI   GL1 9901   9.627   2.913  11.228  0.1646  0.0070 -0.0831
  621POPI   GL2 9902   9.273   2.931  11.048  0.0001 -0.1596 -0.1613
  621POPI   C1A 9903   9.601   2.667  10.784  0.4537 -0.2908 -0.0187
  621POPI   D2A 9904   9.578   2.621  10.388  0.2091  0.1085  0.2450
  621POPI   C3A 9905   9.572   2.578   9.927 -0.1059  0.1274  0.3512
  621POPI   C4A 9906   9.511   2.541   9.425  0.1201  0.0775  0.2382
  621POPI   C1B 9907   9.270   2.973  10.596 -0.0679  0.0758  0.0971
  621POPI   C2B 9908   9.235   2.958  10.173 -0.1510 -0.1093  0.0402
  621POPI   C3B 9909   9.169   2.886   9.690 -0.3619 -0.0874  0.1841
  621POPI   C4B 9910   9.280   2.936   9.217  0.1650 -0.0776 -0.5063
  622POPI    C1 9911  13.117   8.938  12.089 -0.1628 -0.1346 -0.1531
  622POPI    C2 9912  13.328   8.677  12.306  0.1199  0.0237 -0.2323
  622POPI    C3 9913  12.933   8.630  12.265  0.0876 -0.1013  0.1766
  622POPI   PO4 9914  13.309   9.033  11.920  0.2023  0.3396 -0.0018
  622POPI   GL1 9915  13.400   8.893  11.512  0.1667 -0.0719 -0.1304
  622POPI   GL2 9916  13.121   8.903  11.372 -0.2280  0.3071  0.2098
  622POPI   C1A 9917  13.492   9.210  11.232  0.1892  0.1322  0.1849
  622POPI   D2A 9918  13.639   9.641  11.172  0.0303 -0.1953  0.0314
  622POPI   C3A 9919  13.966   9.773  10.855  0.1231 -0.2447 -0.0442
  622POPI   C4A 9920  14.235   9.978  10.954 -0.1783 -0.0408 -0.0769
  622POPI   C1B 9921  13.167   8.743  10.867 -0.2313  0.0539 -0.1362
  622POPI   C2B 9922  13.137   8.805  10.419  0.2518 -0.0129  0.2081
  622POPI   C3B 9923  13.176   8.753   9.921 -0.0429  0.2074  0.1636
  622POPI   C4B 9924  13.171   8.733   9.440 -0.0152  0.1439  0.1825
  623POPI    C1 9925  14.696  15.100  11.654 -0.2243 -0.3016 -0.0906
  623POPI    C2 9926  14.348  15.061  11.846 -0.1323  0.1421  0.1824
  623POPI    C3 9927  14.692  15.030  12.048 -0.0106 -0.1797 -0.0648
  623POPI   PO4 9928  14.551  15.329  11.511 -0.1406 -0.1127  0.0864
  623POPI   GL1 9929  14.554  15.178  11.057 -0.0890 -0.0246 -0.2325
  623POPI   GL2 9930  14.418  15.460  11.072 -0.0746 -0.0977 -0.3212
  623POPI   C1A 9931  14.407  15.057  10.681  0.0084  0.0979 -0.0969
  623POPI   D2A 9932  14.340  14.999  10.242 -0.1579 -0.2737  0.3234
  623POPI   C3A 9933  14.282  14.954   9.873  0.0539 -0.1481  0.1248
  623POPI   C4A 9934  14.302  15.000   9.504 -0.0855 -0.0154  0.0662
  623POPI   C1B 9935  14.560  15.542  10.602 -0.2350 -0.0919 -0.3300
  623POPI   C2B 9936  14.594  15.416  10.208  0.1146  0.0977  0.1773
  623POPI   C3B 9937  14.530  15.416   9.708  0.0260  0.1571 -0.2815
  623POPI   C4B 9938  14.476  15.372   9.199  0.1434 -0.1436 -0.0452
  624POPI    C1 9939  17.048  10.633  11.602 -0.0191  0.0741 -0.1041
  624POPI    C2 9940  17.028  10.344  11.878 -0.0643  0.1058 -0.0740
  624POPI    C3 9941  17.197  10.694  11.968 -0.1864  0.1589 -0.0489
  624POPI   PO4 9942  17.095  10.498  11.382 -0.0244  0.0418 -0.2580
  624POPI   GL1 9943  17.187  10.624  11.056  0.3043 -0.0298 -0.1730
  624POPI   GL2 9944  17.334  10.887  10.880 -0.0774  0.0070  0.0037
  624POPI   C1A 9945  17.042  10.388  10.586 -0.1041  0.0148  0.0240
  624POPI   D2A 9946  16.985  10.391  10.095  0.1833  0.2073 -0.0292
  624POPI   C3A 9947  16.995  10.393   9.663  0.1299  0.0215 -0.1267
  624POPI   C4A 9948  16.903  10.476   9.193  0.1152 -0.0073 -0.0209
  624POPI   C1B 9949  17.288  10.887  10.411 -0.2954  0.1979 -0.1239
  624POPI   C2B 9950  17.168  10.854  10.001  0.1208 -0.0594 -0.0769
  624POPI   C3B 9951  17.179  10.797   9.550 -0.0369 -0.3933  0.3269
  624POPI   C4B 9952  17.227  10.837   9.039 -0.0145 -0.0661 -0.0774
  625DPPI    C1 9953   4.344   7.824  12.022  0.0462  0.0106 -0.1271
  625DPPI    C2 9954   3.957   7.871  12.114  0.1174  0.2718  0.0512
  625DPPI    C3 9955   4.240   7.996  12.368  0.3216 -0.0270 -0.0230
  625DPPI   PO4 9956   4.402   7.679  11.791 -0.1267  0.1467 -0.1586
  625DPPI   GL1 9957   4.464   7.727  11.395 -0.2470  0.3103  0.3557
  625DPPI   GL2 9958   4.363   7.434  11.291 -0.3637 -0.2252 -0.2425
  625DPPI   C1A 9959   4.324   7.909  10.988  0.0775  0.1513  0.0886
  625DPPI   C2A 9960   4.401   8.035  10.527  0.0348  0.0922  0.1424
  625DPPI   C3A 9961   4.380   8.118  10.032 -0.2489  0.1177 -0.1527
  625DPPI   C4A 9962   4.460   8.148   9.585  0.0083  0.0398 -0.0986
  625DPPI   C1B 9963   4.242   7.437  10.828 -0.1797 -0.0433  0.0363
  625DPPI   C2B 9964   4.167   7.645  10.472 -0.2611  0.3360  0.0198
  625DPPI   C3B 9965   4.103   7.673  10.016 -0.0536  0.3772  0.2387
  625DPPI   C4B 9966   4.198   7.598   9.644 -0.1278 -0.0934 -0.0804
  626DPPI    C1 9967  15.685   0.762  11.810 -0.1122 -0.1287 -0.0505
  626DPPI    C2 9968  15.890   0.601  12.113 -0.0613 -0.0937 -0.0664
  626DPPI    C3 9969  15.616   0.883  12.185  0.0113 -0.0240 -0.0607
  626DPPI   PO4 9970  15.711   0.592  11.609  0.0348 -0.0137  0.0095
  626DPPI   GL1 9971  15.715   0.480  11.201  0.3528 -0.3218 -0.0116
  626DPPI   GL2 9972  15.958   0.787  11.148 -0.0333  0.2480 -0.0975
  626DPPI   C1A 9973  15.449   0.468  10.786 -0.1703  0.3764  0.2285
  626DPPI   C2A 9974  15.348   0.578  10.406  0.1423  0.1273 -0.1159
  626DPPI   C3A 9975  15.249   0.432  10.006 -0.0404  0.0784 -0.0937
  626DPPI   C4A 9976  15.420   0.424   9.605  0.4794 -0.0459 -0.0644
  626DPPI   C1B 9977  15.919   0.635  10.727 -0.1623 -0.1826  0.1497
  626DPPI   C2B 9978  15.940   0.649  10.319  0.3848 -0.0908 -0.0897
  626DPPI   C3B 9979  15.832   0.615   9.884  0.1800  0.1525  0.1477
  626DPPI   C4B 9980  15.902   0.512   9.343  0.0716  0.2177  0.3716
  627DPPI    C1 9981   1.432   0.833  11.270  0.2500 -0.0593  0.1476
  627DPPI    C2 9982   1.548   1.098  11.546  0.1893 -0.0580  0.1722
  627DPPI    C3 9983   1.377   0.754  11.658  0.2188 -0.0837  0.1382
  627DPPI   PO4 9984   1.313   0.983  11.080  0.2664  0.1696  0.1565
  627DPPI   GL1 9985   1.414   1.224  10.748  0.1115 -0.0252 -0.2061
  627DPPI   GL2 9986   1.126   1.117  10.652  0.0954 -0.2129  0.0900
  627DPPI   C1A 9987   1.435   1.157  10.291  0.2600 -0.1308  0.0041
  627DPPI   C2A 9988   1.543   1.164   9.844 -0.1091  0.0242  0.1039
  627DPPI   C3A 9989   1.534   1.039   9.505  0.2672 -0.3171  0.1623
  627DPPI   C4A 9990   1.756   0.701   9.321  0.2161 -0.4382 -0.0851
  627DPPI   C1B 9991   0.920   1.074  10.306 -0.0365 -0.0080 -0.0957
  627DPPI   C2B 9992   1.048   0.991   9.807 -0.1538  0.0158 -0.0169
  627DPPI   C3B 9993   1.000   0.975   9.374 -0.0585 -0.0112  0.0179
  627DPPI   C4B 9994   1.219   1.065   8.892 -0.1129  0.0887 -0.1399
  628DPPI    C1 9995   0.514   0.193  11.500  0.3189  0.0178  0.0923
  628DPPI    C2 9996   0.614   0.450  11.790  0.0049  0.1179  0.1156
  628DPPI    C3 9997   0.249   0.287  11.784  0.1092 -0.1157 -0.0562
  628DPPI   PO4 9998   0.543   0.285  11.246 -0.0173  0.1114 -0.1878
  628DPPI   GL1 9999   0.295   0.657  11.018 -0.0286 -0.1160 -0.0273
  628DPPI   GL210000   0.402   0.998  10.900  0.1659  0.0244 -0.2352
  628DPPI   C1A10001   0.259   0.459  10.631  0.2548 -0.0880  0.3793
  628DPPI   C2A10002   0.297   0.393  10.288  0.1729 -0.1529  0.1349
  628DPPI   C3A10003   0.331   0.382   9.859  0.3169 -0.0539 -0.2208
  628DPPI   C4A10004   0.414   0.372   9.419 -0.2165  0.1716  0.0565
  628DPPI   C1B10005   0.437   0.919  10.442  0.2843  0.2027 -0.3384
  628DPPI   C2B10006   0.519   0.881  10.008 -0.2877 -0.0441  0.0352
  628DPPI   C3B10007   0.537   0.950   9.583 -0.1286 -0.0653 -0.1476
  628DPPI   C4B10008   0.560   0.844   9.193  0.1155  0.1631  0.0164
  629DPPI    C110009  16.771   0.500  11.764 -0.0328  0.2881 -0.1496
  629DPPI    C210010  16.396   0.432  11.883 -0.0165  0.2055 -0.1447
  629DPPI    C310011  16.688   0.468  12.154  0.0092  0.0868 -0.1562
  629DPPI   PO410012  16.703   0.547  11.537 -0.2605  0.0352  0.0224
  629DPPI   GL110013  16.962   0.396  11.200  0.0591 -0.0145  0.1578
  629DPPI   GL210014  17.227   0.456  10.915  0.0287  0.2339 -0.1618
  629DPPI   C1A10015  16.763   0.419  10.779  0.2538 -0.2646 -0.0077
  629DPPI   C2A10016  16.742   0.322  10.402 -0.0253  0.0419  0.1705
  629DPPI   C3A10017  16.755   0.203  10.020 -0.2417  0.1795  0.0188
  629DPPI   C4A10018  16.723   0.198   9.541 -0.0855  0.0165 -0.3684
  629DPPI   C1B10019  17.235   0.399  10.449 -0.1450 -0.1023  0.0597
  629DPPI   C2B10020  17.309   0.290  10.002 -0.1791 -0.2462 -0.0879
  629DPPI   C3B10021  17.255   0.326   9.500  0.0277 -0.0420 -0.3877
  629DPPI   C4B10022  16.983   0.378   9.127  0.0363 -0.0973 -0.1394
  630DPPI    C110023  14.615   2.179  11.841  0.1899  0.1029 -0.0539
  630DPPI    C210024  14.889   2.192  12.133 -0.0251 -0.2953  0.1752
  630DPPI    C310025  14.514   2.312  12.205  0.0542  0.1470 -0.1068
  630DPPI   PO410026  14.704   2.308  11.623  0.0778 -0.2628 -0.1837
  630DPPI   GL110027  14.640   2.314  11.253 -0.1634 -0.0490  0.2344
  630DPPI   GL210028  14.403   2.508  11.171  0.1709 -0.1157 -0.0650
  630DPPI   C1A10029  14.713   2.224  10.772  0.2952  0.2589 -0.0992
  630DPPI   C2A10030  14.601   2.149  10.339 -0.2289  0.0055 -0.0058
  630DPPI   C3A10031  14.556   2.136   9.915 -0.1323  0.1993 -0.0314
  630DPPI   C4A10032  14.477   2.033   9.449 -0.0022 -0.0497 -0.1769
  630DPPI   C1B10033  14.358   2.664  10.800 -0.2016 -0.0678  0.1219
  630DPPI   C2B10034  14.230   2.563  10.399  0.1904 -0.0813 -0.3052
  630DPPI   C3B10035  14.236   2.559   9.962  0.1658  0.1355 -0.0057
  630DPPI   C4B10036  14.275   2.579   9.683 -0.3008  0.0763  0.0024
  631DPPI    C110037   0.097   1.727  11.708 -0.1081 -0.0824 -0.1376
  631DPPI    C210038  -0.098   1.568  12.018 -0.1743  0.2710  0.0073
  631DPPI    C310039   0.296   1.629  12.040 -0.1442  0.1050 -0.0591
  631DPPI   PO410040  -0.044   1.677  11.500  0.0683 -0.2424 -0.0567
  631DPPI   GL110041  -0.022   1.555  11.028 -0.1622 -0.1342 -0.4819
  631DPPI   GL210042  -0.160   1.845  10.949  0.3032  0.1131  0.2275
  631DPPI   C1A10043   0.046   1.352  10.623  0.2715  0.0516  0.1777
  631DPPI   C2A10044   0.141   1.347  10.231  0.0998  0.0928 -0.0032
  631DPPI   C3A10045   0.174   1.230   9.860  0.0374 -0.1841  0.0642
  631DPPI   C4A10046   0.088   1.271   9.470  0.1114 -0.2941  0.1305
  631DPPI   C1B10047  -0.220   1.820  10.523  0.1035  0.1006 -0.0032
  631DPPI   C2B10048  -0.111   1.810  10.159  0.1261  0.1886  0.2580
  631DPPI   C3B10049  -0.106   1.638   9.783  0.0414 -0.0211 -0.1646
  631DPPI   C4B10050  -0.285   1.629   9.330 -0.0459 -0.0918 -0.0229
  632DPPI    C110051  13.686  10.190  11.681  0.0840 -0.0418  0.0024
  632DPPI    C210052  13.376  10.369  11.861  0.2998  0.4951 -0.1393
  632DPPI    C310053  13.678  10.224  12.080 -0.0141  0.0225 -0.0046
  632DPPI   PO410054  13.593  10.106  11.471  0.0465  0.4544 -0.2746
  632DPPI   GL110055  13.618  10.140  11.107  0.0246 -0.1708 -0.1263
  632DPPI   GL210056  13.321  10.057  11.063 -0.2041 -0.1470 -0.4607
  632DPPI   C1A10057  13.801  10.289  10.744 -0.2070  0.2354 -0.0180
  632DPPI   C2A10058  13.948   9.978  10.351 -0.0174 -0.0841 -0.0395
  632DPPI   C3A10059  13.995   9.935   9.978  0.0081  0.0192 -0.0526
  632DPPI   C4A10060  13.959   9.801   9.557 -0.3095  0.0451 -0.0795
  632DPPI   C1B10061  13.508   9.857  10.656  0.2495 -0.0924 -0.1192
  632DPPI   C2B10062  13.443   9.837  10.158  0.1878  0.0572 -0.1918
  632DPPI   C3B10063  13.473   9.697   9.748 -0.0487  0.0440 -0.2838
  632DPPI   C4B10064  13.421   9.691   9.256 -0.0792 -0.3044 -0.0828
  633DPPI    C110065   4.794   9.810  12.080  0.0313  0.1813 -0.0238
  633DPPI    C210066   4.551  10.079  12.248  0.0928  0.1276  0.1529
  633DPPI    C310067   4.947  10.120  12.282  0.1042  0.0777  0.0812
  633DPPI   PO410068   4.717   9.744  11.904 -0.1732 -0.0664  0.1118
  633DPPI   GL110069   4.689   9.822  11.426 -0.1458  0.0610  0.1689
  633DPPI   GL210070   4.360   9.953  11.404 -0.2471  0.3998 -0.2018
  633DPPI   C1A10071   4.874   9.602  10.970  0.2921 -0.0611 -0.0560
  633DPPI   C2A10072   4.883   9.655  10.581 -0.3917  0.0717 -0.0440
  633DPPI   C3A10073   4.958   9.561  10.109  0.1434  0.2369 -0.2149
  633DPPI   C4A10074   4.925   9.516   9.735  0.1219  0.3167 -0.1560
  633DPPI   C1B10075   4.519  10.041  10.970  0.2228  0.0948 -0.0432
  633DPPI   C2B10076   4.565  10.071  10.477  0.0151  0.1978  0.0509
  633DPPI   C3B10077   4.658  10.055  10.115 -0.5062  0.3066 -0.1304
  633DPPI   C4B10078   4.681   9.938   9.702  0.2643 -0.0514 -0.3345
  634DPPI    C110079  11.782  15.060  11.477  0.2037  0.0811  0.0480
  634DPPI    C210080  11.699  15.153  11.857 -0.0812 -0.1068  0.0342
  634DPPI    C310081  11.955  14.857  11.775  0.0691  0.0100  0.0786
  634DPPI   PO410082  11.775  15.300  11.341  0.1152  0.0143  0.2306
  634DPPI   GL110083  11.696  15.575  10.974  0.0965  0.2596  0.3643
  634DPPI   GL210084  11.833  15.830  10.933 -0.3928  0.0985  0.1431
  634DPPI   C1A10085  11.628  15.421  10.520 -0.0052 -0.0825 -0.1699
  634DPPI   C2A10086  11.706  15.461  10.015  0.1465 -0.0210 -0.1392
  634DPPI   C3A10087  11.687  15.408   9.658  0.5020 -0.0391 -0.0061
  634DPPI   C4A10088  11.669  15.337   9.192  0.3179  0.1115  0.0224
  634DPPI   C1B10089  11.900  15.952  10.534  0.1190  0.0231 -0.1556
  634DPPI   C2B10090  11.841  15.928  10.107  0.0620  0.1153  0.2365
  634DPPI   C3B10091  11.909  15.875   9.735 -0.2265  0.2959 -0.4565
  634DPPI   C4B10092  11.806  15.797   9.257 -0.3239  0.0168  0.0691
  635PYPI    C110093  14.086   9.229  11.700  0.0739  0.0293  0.0176
  635PYPI    C210094  13.711   9.362  11.665  0.0675  0.0052 -0.0047
  635PYPI    C310095  13.797   9.073  11.928  0.0590 -0.0332 -0.0440
  635PYPI   PO410096  14.234   9.263  11.345  0.3244 -0.1423 -0.0976
  635PYPI   GL110097  13.958   9.108  10.976 -0.1232 -0.1368  0.0255
  635PYPI   GL210098  14.355   9.139  10.886 -0.1541 -0.2145 -0.2077
  635PYPI   C1A10099  13.802   9.367  10.632  0.2287  0.0741 -0.2170
  635PYPI   C2A10100  13.835   9.421  10.128 -0.0661  0.1001 -0.1579
  635PYPI   D3A10101  13.821   9.328   9.772  0.1341 -0.0744  0.2012
  635PYPI   C4A10102  13.805   9.362   9.330 -0.0438 -0.4034 -0.2921
  635PYPI   C1B10103  14.244   9.129  10.397 -0.0088 -0.3166 -0.1336
  635PYPI   C2B10104  14.155   9.002  10.030 -0.0259 -0.0800 -0.1304
  635PYPI   C3B10105  14.134   8.859   9.647  0.0252  0.0247 -0.3959
  635PYPI   C4B10106  14.166   8.924   9.264 -0.0710  0.1159  0.2693
  636PYPI    C110107  12.523  10.334  11.671 -0.0669  0.0804 -0.1714
  636PYPI    C210108  12.848  10.329  11.903 -0.1863  0.0513 -0.0032
  636PYPI    C310109  12.571  10.613  11.953 -0.3382 -0.1069  0.0661
  636PYPI   PO410110  12.604  10.337  11.418  0.1774 -0.0625  0.0571
  636PYPI   GL110111  12.560  10.074  11.006 -0.2582 -0.0399  0.3453
  636PYPI   GL210112  12.825  10.061  11.069  0.0040  0.0904  0.0100
  636PYPI   C1A10113  12.528  10.008  10.557 -0.0677  0.0746 -0.2162
  636PYPI   C2A10114  12.544  10.037  10.115 -0.1965  0.2881  0.1402
  636PYPI   D3A10115  12.655  10.007   9.670  0.0054 -0.0535  0.3209
  636PYPI   C4A10116  12.630  10.142   9.211  0.1151  0.3882 -0.0805
  636PYPI   C1B10117  13.035  10.045  10.664  0.1170  0.2314 -0.0462
  636PYPI   C2B10118  13.033  10.118  10.193  0.0209 -0.1662  0.4587
  636PYPI   C3B10119  13.159  10.122   9.807  0.0318 -0.1172  0.0777
  636PYPI   C4B10120  13.165  10.108   9.375  0.1585  0.3605 -0.0623
  637PYPI    C110121   4.116   2.314  11.723  0.1636  0.1577 -0.2137
  637PYPI    C210122   3.756   2.485  11.752 -0.0127 -0.2113 -0.1818
  637PYPI    C310123   4.044   2.581  12.012 -0.0550  0.1543 -0.2639
  637PYPI   PO410124   4.255   2.360  11.422  0.1094 -0.0007 -0.0675
  637PYPI   GL110125   4.083   2.225  10.985  0.1440 -0.3264  0.2580
  637PYPI   GL210126   4.245   2.198  10.646  0.2304  0.2806 -0.0478
  637PYPI   C1A10127   3.869   2.468  10.587 -0.4736  0.2128  0.1333
  637PYPI   C2A10128   3.962   2.453  10.130  0.2057  0.0285 -0.2225
  637PYPI   D3A10129   3.812   2.451   9.719 -0.0362  0.2207 -0.3846
  637PYPI   C4A10130   3.919   2.381   9.414 -0.1240 -0.1432  0.0136
  637PYPI   C1B10131   4.236   2.052  10.228  0.1096  0.3291 -0.0379
  637PYPI   C2B10132   4.200   2.125   9.872  0.1091  0.1436 -0.2080
  637PYPI   C3B10133   4.283   2.043   9.434 -0.1721 -0.2798  0.0005
  637PYPI   C4B10134   4.229   2.092   9.069  0.0179  0.0579 -0.1716
  638PYPI    C110135  14.516  13.130  11.564  0.2413  0.0026  0.1802
  638PYPI    C210136  14.560  12.772  11.739  0.3707 -0.0403  0.0616
  638PYPI    C310137  14.750  13.092  11.887  0.3307 -0.0393  0.1110
  638PYPI   PO410138  14.533  13.067  11.270  0.2851 -0.0635  0.2920
  638PYPI   GL110139  14.353  13.298  10.961 -0.0296 -0.0810 -0.1573
  638PYPI   GL210140  14.087  13.251  11.219  0.0839  0.0937 -0.0740
  638PYPI   C1A10141  14.178  13.269  10.539  0.0142  0.3684  0.2798
  638PYPI   C2A10142  14.162  13.174  10.143  0.1712  0.1933  0.0216
  638PYPI   D3A10143  14.070  13.003   9.643 -0.4628  0.1396  0.2115
  638PYPI   C4A10144  14.129  13.091   9.282 -0.0581 -0.0617  0.1786
  638PYPI   C1B10145  13.904  13.021  10.841 -0.3179 -0.1390 -0.0264
  638PYPI   C2B10146  13.737  13.045  10.411 -0.0575 -0.0150 -0.1347
  638PYPI   C3B10147  13.698  13.005   9.943 -0.0926  0.1353 -0.2954
  638PYPI   C4B10148  13.642  12.977   9.415  0.1127 -0.0565 -0.5741
  639PYPI    C110149   8.013   0.338  11.975 -0.0604 -0.0804  0.1110
  639PYPI    C210150   8.276   0.040  12.013 -0.1140 -0.1415  0.0078
  639PYPI    C310151   8.241   0.314  12.302 -0.0203 -0.1995  0.0746
  639PYPI   PO410152   7.981   0.357  11.733  0.0603  0.4470  0.1352
  639PYPI   GL110153   8.072   0.510  11.277 -0.0288 -0.1192 -0.1466
  639PYPI   GL210154   8.074   0.853  11.250  0.1975  0.3033  0.0819
  639PYPI   C1A10155   7.867   0.462  10.829 -0.0352 -0.1846  0.1864
  639PYPI   C2A10156   7.877   0.461  10.331  0.0128 -0.3321 -0.3223
  639PYPI   D3A10157   7.893   0.426   9.860 -0.1724  0.1348 -0.1851
  639PYPI   C4A10158   7.805   0.439   9.333  0.0113  0.1544  0.2022
  639PYPI   C1B10159   8.072   0.883  10.819 -0.1101 -0.0566  0.0030
  639PYPI   C2B10160   8.049   0.954  10.400 -0.0069 -0.1373  0.0228
  639PYPI   C3B10161   8.067   0.967   9.956  0.1640 -0.1272  0.0246
  639PYPI   C4B10162   8.035   0.893   9.497 -0.1355 -0.0294  0.0222
  640PYPI    C110163  11.081  15.673  11.527  0.1014  0.2267 -0.0240
  640PYPI    C210164  11.300  15.341  11.569 -0.1476  0.0241 -0.2819
  640PYPI    C310165  11.050  15.454  11.860  0.1487  0.1477 -0.0711
  640PYPI   PO410166  11.207  15.739  11.267  0.3150  0.4623  0.0003
  640PYPI   GL110167  11.284  15.753  10.828 -0.2638  0.0488  0.2110
  640PYPI   GL210168  11.160  16.000  10.833 -0.0564  0.0182 -0.1077
  640PYPI   C1A10169  11.407  15.840  10.428 -0.1371 -0.0124 -0.1515
  640PYPI   C2A10170  11.363  15.777   9.946 -0.1970 -0.1311 -0.0270
  640PYPI   D3A10171  11.405  15.840   9.540  0.1298  0.1999  0.0325
  640PYPI   C4A10172  11.343  15.806   9.089  0.1832 -0.0403  0.1191
  640PYPI   C1B10173  10.955  16.114  10.536 -0.0122  0.0148  0.1175
  640PYPI   C2B10174  11.013  16.119  10.156 -0.1535  0.0594  0.2303
  640PYPI   C3B10175  11.107  16.251   9.747 -0.1436  0.0241  0.1260
  640PYPI   C4B10176  10.997  16.237   9.211  0.1029  0.0753  0.4865
  641ERGO   ROH10177   2.414   7.705  11.053 -0.2886 -0.0546 -0.0099
  641ERGO    R110178   2.479   7.839  10.812 -0.3935  0.0098 -0.0012
  641ERGO    R210179   2.637   7.726  10.616 -0.1383  0.2198  0.0853
  641ERGO    R310180   2.425   7.785  10.457 -0.1645 -0.1243 -0.0197
  641ERGO    R410181   2.622   7.668  10.275  0.1653  0.2548  0.0630
  641ERGO    R510182   2.523   7.860  10.252 -0.1705  0.0950  0.0490
  641ERGO    C110183   2.415   7.691   9.928  0.3175 -0.0479 -0.0485
  641ERGO    C210184   2.317   7.753   9.584 -0.2837  0.0870 -0.2890
  642ERGO   ROH10185   9.636  15.189  10.838  0.1837 -0.1566  0.1156
  642ERGO    R110186   9.752  15.098  10.595  0.2492 -0.0851  0.1209
  642ERGO    R210187   9.611  14.949  10.410  0.3312 -0.1132  0.0880
  642ERGO    R310188   9.690  15.145  10.240  0.2820 -0.0675  0.1161
  642ERGO    R410189   9.620  14.920  10.066 -0.0793  0.0757  0.0551
  642ERGO    R510190   9.808  15.029  10.066  0.0075 -0.0587 -0.0884
  642ERGO    C110191   9.699  15.087   9.705 -0.3644  0.2285  0.0624
  642ERGO    C210192   9.553  15.026   9.342  0.1160  0.0578 -0.1358
  643ERGO   ROH10193   6.109  14.427  10.980  0.1430  0.2141 -0.0387
  643ERGO    R110194   6.200  14.505  10.724  0.2771 -0.0254 -0.0686
  643ERGO    R210195   6.302  14.325  10.541 -0.0911 -0.2817 -0.0414
  643ERGO    R310196   6.112  14.432  10.378  0.0939  0.0587 -0.0394
  643ERGO    R410197   6.292  14.287  10.197 -0.2027 -0.3197 -0.0332
  643ERGO    R510198   6.233  14.496  10.181  0.1972 -0.2044 -0.0614
  643ERGO    C110199   6.109  14.366   9.845 -0.0939 -0.0224 -0.0266
  643ERGO    C210200   6.151  14.280   9.496  0.1856  0.0468 -0.0450
  644ERGO   ROH10201   6.940   7.208  10.797 -0.0560  0.0690  0.0376
  644ERGO    R110202   6.905   7.268  10.522 -0.1477 -0.0296  0.0267
  644ERGO    R210203   7.111   7.252  10.339 -0.1200  0.2360  0.0255
  644ERGO    R310204   6.937   7.090  10.207  0.1080 -0.0446  0.0601
  644ERGO    R410205   7.089   7.224   9.995 -0.2123  0.2693  0.0289
  644ERGO    R510206   6.872   7.217  10.014 -0.1948 -0.1167  0.1133
  644ERGO    C110207   6.913   7.057   9.671 -0.0521  0.0253  0.0633
  644ERGO    C210208   6.989   7.120   9.409 -0.2960  0.1567 -0.0253
  645ERGO   ROH10209  15.675  14.602  10.972 -0.0856 -0.0284 -0.1414
  645ERGO    R110210  15.627  14.679  10.704 -0.0559 -0.0794 -0.1616
  645ERGO    R210211  15.772  14.878  10.578 -0.2179  0.0823 -0.0992
  645ERGO    R310212  15.817  14.684  10.393  0.0740  0.1277 -0.0807
  645ERGO    R410213  15.767  14.926  10.236 -0.3818  0.0255 -0.1056
  645ERGO    R510214  15.665  14.735  10.215 -0.0599 -0.1585 -0.0534
  645ERGO    C110215  15.807  14.772   9.863 -0.2032  0.0353 -0.0920
  645ERGO    C210216  15.749  14.805   9.673 -0.1124  0.0444 -0.1912
  646ERGO   ROH10217   2.077   0.282  10.446 -0.0454 -0.0006 -0.0469
  646ERGO    R110218   2.260   0.280  10.230 -0.1616  0.1717 -0.1484
  646ERGO    R210219   2.396   0.053  10.152  0.1303  0.3348 -0.1241
  646ERGO    R310220   2.288   0.111   9.909 -0.0921  0.0710 -0.0877
  646ERGO    R410221   2.469  -0.115   9.858  0.0563  0.1854 -0.0583
  646ERGO    R510222   2.468   0.077   9.755 -0.1773  0.1098 -0.1937
  646ERGO    C110223   2.410  -0.158   9.460 -0.1956 -0.1494  0.0141
  646ERGO    C210224   2.505  -0.197   9.204 -0.0344  0.3737  0.0362
  647ERGO   ROH10225  10.577   3.731  11.142  0.0875  0.2112  0.0850
  647ERGO    R110226  10.463   3.658  10.894  0.0536  0.0359  0.1511
  647ERGO    R210227  10.368   3.844  10.713 -0.1709 -0.0993  0.1257
  647ERGO    R310228  10.536   3.715  10.541 -0.1272 -0.0148  0.1044
  647ERGO    R410229  10.318   3.816  10.372 -0.0206  0.1747  0.0782
  647ERGO    R510230  10.389   3.610  10.384 -0.0836  0.1452 -0.0457
  647ERGO    C110231  10.446   3.679  10.013  0.1080  0.4136  0.0304
  647ERGO    C210232  10.373   3.541   9.738 -0.2203  0.0332  0.0069
  648ERGO   ROH10233  11.037   1.087  10.907  0.1451  0.0021 -0.0029
  648ERGO    R110234  10.981   0.953  10.664 -0.0971  0.1142 -0.0113
  648ERGO    R210235  10.794   1.046  10.482  0.0658  0.4643 -0.0057
  648ERGO    R310236  11.003   1.029  10.309  0.0424  0.0984 -0.0071
  648ERGO    R410237  10.765   0.998  10.141 -0.0104  0.3173  0.0203
  648ERGO    R510238  10.935   0.863  10.150 -0.1818  0.0960  0.0852
  648ERGO    C110239  10.943   0.955   9.780 -0.0768 -0.1118  0.0341
  648ERGO    C210240  10.914   0.946   9.471 -0.1568 -0.1670 -0.1941
  649ERGO   ROH10241   2.442  15.643  10.679  0.1786 -0.1481 -0.1917
  649ERGO    R110242   2.396  15.489  10.446  0.0173 -0.1061 -0.1886
  649ERGO    R210243   2.225  15.570  10.246  0.0267  0.0227 -0.1437
  649ERGO    R310244   2.443  15.532  10.088 -0.0362 -0.1225 -0.1979
  649ERGO    R410245   2.217  15.544   9.901 -0.0643  0.1480 -0.1522
  649ERGO    R510246   2.366  15.386   9.915 -0.2044  0.0052 -0.2349
  649ERGO    C110247   2.418  15.494   9.553 -0.1763  0.0846 -0.2080
  649ERGO    C210248   2.313  15.473   9.269  0.2581  0.1122 -0.2795
  650ERGO   ROH10249  14.596   8.342  10.940  0.1821  0.3921 -0.1365
  650ERGO    R110250  14.699   8.370  10.678  0.1410  0.2123 -0.1744
  650ERGO    R210251  14.870   8.184  10.565  0.1094  0.1182 -0.0870
  650ERGO    R310252  14.683   8.181  10.367  0.0696  0.0072 -0.0461
  650ERGO    R410253  14.936   8.132  10.230  0.0591  0.1728 -0.1044
  650ERGO    R510254  14.791   8.286  10.181 -0.0445  0.0779 -0.0664
  650ERGO    C110255  14.800   8.098   9.849 -0.0075  0.1003 -0.0761
  650ERGO    C210256  14.818   8.138   9.392 -0.0774  0.1432  0.2174
  651ERGO   ROH10257  10.907  13.441  11.058 -0.2056  0.0856  0.0929
  651ERGO    R110258  11.034  13.508  10.815 -0.1590  0.1690  0.1393
  651ERGO    R210259  11.109  13.318  10.628  0.0476  0.2145  0.1705
  651ERGO    R310260  10.962  13.472  10.460  0.0004  0.1065  0.1126
  651ERGO    R410261  11.138  13.320  10.284  0.0073  0.0552  0.1661
  651ERGO    R510262  11.115  13.536  10.287 -0.0320  0.0520  0.0647
  651ERGO    C110263  11.017  13.466   9.925 -0.0605 -0.1389  0.1090
  651ERGO    C210264  11.062  13.505   9.571  0.4179  0.0022 -0.1818
  652ERGO   ROH10265  11.053   2.776  11.079 -0.0304 -0.1146  0.1851
  652ERGO    R110266  11.031   2.902  10.826  0.0844 -0.0216  0.2204
  652ERGO    R210267  11.211   2.857  10.622  0.0594 -0.1089  0.2154
  652ERGO    R310268  10.986   2.796  10.481  0.0142  0.1145  0.1877
  652ERGO    R410269  11.196   2.825  10.278  0.0997 -0.2357  0.2249
  652ERGO    R510270  11.003   2.928  10.282  0.2271  0.0093  0.1355
  652ERGO    C110271  10.976   2.749   9.946  0.0807 -0.0998  0.2046
  652ERGO    C210272  11.064   2.699   9.603  0.0768  0.1623  0.2950
  653ERGO   ROH10273   7.220  11.979  11.303  0.2105  0.0179 -0.0704
  653ERGO    R110274   7.280  11.854  11.056  0.0289 -0.0974 -0.0603
  653ERGO    R210275   7.085  11.772  10.879 -0.1018  0.0400  0.0060
  653ERGO    R310276   7.225  11.926  10.703 -0.0038 -0.1232 -0.0581
  653ERGO    R410277   7.048  11.762  10.535 -0.1791  0.0085  0.0162
  653ERGO    R510278   7.265  11.780  10.517 -0.1730 -0.1899 -0.0366
  653ERGO    C110279   7.158  11.900  10.170 -0.1322 -0.1630 -0.0381
  653ERGO    C210280   7.077  11.817   9.819  0.0884 -0.1614  0.1983
  654ERGO   ROH10281   6.150   1.202  10.808  0.0118  0.1372  0.0014
  654ERGO    R110282   6.240   1.204  10.539 -0.0894  0.3468 -0.0346
  654ERGO    R210283   6.268   0.973  10.390  0.3812  0.3964 -0.0473
  654ERGO    R310284   6.108   1.106  10.215  0.0017  0.0437  0.0187
  654ERGO    R410285   6.300   0.965  10.046 -0.0712  0.0891 -0.0906
  654ERGO    R510286   6.255   1.178  10.042 -0.3089  0.0348 -0.2528
  654ERGO    C110287   6.168   1.086   9.682 -0.6910 -0.4211 -0.0538
  654ERGO    C210288   6.132   0.950   9.397  0.1941  0.0403  0.0597
  655ERGO   ROH10289   8.515  14.463  11.025 -0.0202  0.0163  0.0078
  655ERGO    R110290   8.616  14.447  10.761  0.0908 -0.3069  0.0670
  655ERGO    R210291   8.603  14.215  10.610 -0.4618 -0.3096  0.1085
  655ERGO    R310292   8.481  14.378  10.430  0.0798  0.0043  0.0023
  655ERGO    R410293   8.624  14.180  10.267 -0.3398 -0.4289  0.1262
  655ERGO    R510294   8.640  14.397  10.251  0.2588 -0.4525  0.0938
  655ERGO    C110295   8.522  14.312   9.898  0.2397 -0.2035  0.0369
  655ERGO    C210296   8.541  14.321   9.554  0.0193  0.1778  0.1293
  656ERGO   ROH10297   9.558   3.855  11.029 -0.2275 -0.2528 -0.1929
  656ERGO    R110298   9.458   3.921  10.773 -0.1807 -0.0303 -0.1551
  656ERGO    R210299   9.599   4.077  10.594 -0.1088  0.0465 -0.0276
  656ERGO    R310300   9.559   3.866  10.428 -0.1728  0.1827 -0.1893
  656ERGO    R410301   9.599   4.095  10.249  0.0445  0.2884 -0.0182
  656ERGO    R510302   9.431   3.957  10.247 -0.0446  0.3908 -0.1824
  656ERGO    C110303   9.562   3.907   9.892  0.0737  0.5571 -0.1644
  656ERGO    C210304   9.549   3.918   9.502 -0.1899  0.0838  0.0563
  657ERGO   ROH10305   5.217   1.385  10.690 -0.0777  0.0815  0.0894
  657ERGO    R110306   5.335   1.480  10.451  0.1375 -0.0354  0.1450
  657ERGO    R210307   5.467   1.315  10.273 -0.0063 -0.1869  0.1674
  657ERGO    R310308   5.293   1.423  10.094  0.1914  0.0653  0.1241
  657ERGO    R410309   5.475   1.260   9.932 -0.1485 -0.3838  0.1942
  657ERGO    R510310   5.428   1.471   9.902  0.2690 -0.3041  0.0857
  657ERGO    C110311   5.318   1.330   9.565 -0.0456 -0.2617  0.1691
  657ERGO    C210312   5.314   1.339   9.179  0.0340 -0.0528 -0.0688
  658ERGO   ROH10313   6.679   6.025  11.034  0.0014 -0.2569 -0.1649
  658ERGO    R110314   6.534   6.059  10.794 -0.0180 -0.1186 -0.1348
  658ERGO    R210315   6.574   6.275  10.625  0.1170 -0.1282 -0.1200
  658ERGO    R310316   6.612   6.081  10.439 -0.0656 -0.1397 -0.1459
  658ERGO    R410317   6.584   6.328  10.284  0.2788 -0.0756 -0.1077
  658ERGO    R510318   6.470   6.144  10.257  0.0629  0.0675 -0.1750
  658ERGO    C110319   6.625   6.177   9.910  0.2017 -0.0557 -0.1247
  658ERGO    C210320   6.534   6.111   9.579  0.2011 -0.7490  0.2353
  659ERGO   ROH10321   2.169  12.226  10.864  0.0208 -0.0884  0.1308
  659ERGO    R110322   2.044  12.333  10.634 -0.0466 -0.1673  0.1294
  659ERGO    R210323   2.187  12.434  10.420 -0.1080 -0.0616  0.1338
  659ERGO    R310324   2.037  12.258  10.278  0.0174 -0.1639  0.1282
  659ERGO    R410325   2.185  12.410  10.075 -0.1919  0.0363  0.1276
  659ERGO    R510326   1.969  12.381  10.084 -0.1605 -0.1732  0.1853
  659ERGO    C110327   2.043  12.231   9.741 -0.1231 -0.0028  0.1187
  659ERGO    C210328   1.993  12.195   9.406 -0.1372  0.3458 -0.2138
  660ERGO   ROH10329  16.495  11.290  10.944 -0.0986 -0.1888 -0.1363
  660ERGO    R110330  16.477  11.175  10.685  0.0463 -0.1230 -0.1761
  660ERGO    R210331  16.247  11.186  10.534  0.0923 -0.1971 -0.2473
  660ERGO    R310332  16.413  11.293  10.347  0.0985 -0.0584 -0.1643
  660ERGO    R410333  16.254  11.096  10.200  0.1567 -0.0118 -0.2977
  660ERGO    R510334  16.471  11.109  10.206  0.1556  0.0288 -0.2594
  660ERGO    C110335  16.414  11.145   9.831  0.1996  0.2262 -0.2492
  660ERGO    C210336  16.274  11.166   9.495 -0.2315 -0.0852 -0.0922
  661ERGO   ROH10337  10.031  16.428  10.945  0.0030  0.0503 -0.0008
  661ERGO    R110338  10.126  16.575  10.723  0.3283 -0.1348  0.0091
  661ERGO    R210339  10.275  16.460  10.521 -0.0463 -0.4913 -0.0813
  661ERGO    R310340  10.083  16.568  10.361  0.1694  0.0835  0.0219
  661ERGO    R410341  10.281  16.459  10.175 -0.2630 -0.5754 -0.0857
  661ERGO    R510342  10.204  16.663  10.178  0.3613 -0.3165 -0.0681
  661ERGO    C110343  10.104  16.559   9.824 -0.1867 -0.0848  0.0086
  661ERGO    C210344  10.121  16.598   9.456 -0.0020  0.2154  0.1706
  662ERGO   ROH10345  15.192  10.698  10.902  0.0406  0.0959  0.0412
  662ERGO    R110346  15.302  10.716  10.642  0.0301 -0.1229  0.0193
  662ERGO    R210347  15.304  10.503  10.466 -0.3317 -0.1649  0.0556
  662ERGO    R310348  15.181  10.680  10.301 -0.0853  0.0035  0.0468
  662ERGO    R410349  15.274  10.467  10.123 -0.2300 -0.0458  0.0336
  662ERGO    R510350  15.314  10.680  10.102 -0.0048 -0.0805  0.1019
  662ERGO    C110351  15.141  10.612   9.769  0.0605  0.1816  0.0127
  662ERGO    C210352  15.086  10.506   9.467 -0.1402 -0.1780  0.0269
  663ERGO   ROH10353   5.482   6.894  10.616 -0.0490  0.0032 -0.1198
  663ERGO    R110354   5.340   6.853  10.375 -0.0212  0.1037 -0.1541
  663ERGO    R210355   5.360   7.025  10.159  0.1534  0.0909 -0.1514
  663ERGO    R310356   5.425   6.798  10.025  0.0248  0.0434 -0.1333
  663ERGO    R410357   5.412   7.005   9.818 -0.0673 -0.0105 -0.1806
  663ERGO    R510358   5.306   6.815   9.818 -0.1034  0.0100 -0.0626
  663ERGO    C110359   5.503   6.780   9.494 -0.3164 -0.1141 -0.1806
  663ERGO    C210360   5.521   6.761   9.181  0.0350  0.3973 -0.1823
  664ERGO   ROH10361   3.647  15.273  10.702  0.1291  0.1473  0.0514
  664ERGO    R110362   3.590  15.364  10.440 -0.1212 -0.0786  0.0252
  664ERGO    R210363   3.787  15.416  10.254 -0.2752  0.1598 -0.0673
  664ERGO    R310364   3.643  15.243  10.101 -0.0458 -0.1605  0.0641
  664ERGO    R410365   3.800  15.401   9.909 -0.4583  0.1127 -0.0743
  664ERGO    R510366   3.584  15.371   9.908 -0.4172 -0.3075  0.0678
  664ERGO    C110367   3.673  15.230   9.565 -0.3497 -0.2153  0.0449
  664ERGO    C210368   3.694  15.262   9.137 -0.1653  0.0100 -0.1452
  665ERGO   ROH10369  13.289   7.444  10.900  0.0530 -0.1282 -0.0136
  665ERGO    R110370  13.138   7.378  10.670 -0.0059  0.0505 -0.0283
  665ERGO    R210371  13.122   7.544  10.450  0.2039  0.0787 -0.0269
  665ERGO    R310372  13.206   7.322  10.317 -0.0372 -0.0180 -0.0231
  665ERGO    R410373  13.105   7.501  10.107  0.0966  0.0564 -0.0189
  665ERGO    R510374  13.045   7.294  10.142 -0.0980  0.1181  0.0119
  665ERGO    C110375  13.173   7.268   9.783 -0.1923 -0.0473 -0.0109
  665ERGO    C210376  13.102   7.249   9.491  0.0017 -0.4463 -0.1853
  666ERGO   ROH10377   0.526   7.710  10.920  0.1169 -0.1404 -0.1057
  666ERGO    R110378   0.513   7.848  10.674  0.0187 -0.1042 -0.0805
  666ERGO    R210379   0.693   7.804  10.470  0.0143  0.0146 -0.1032
  666ERGO    R310380   0.468   7.761  10.323  0.0146 -0.0671 -0.0938
  666ERGO    R410381   0.679   7.819  10.125  0.0508 -0.1704 -0.1130
  666ERGO    R510382   0.485   7.920  10.143  0.0360 -0.1527 -0.1791
  666ERGO    C110383   0.460   7.788   9.786  0.0723 -0.3546 -0.1100
  666ERGO    C210384   0.461   7.770   9.430  0.1554  0.1875 -0.1402
  667ERGO   ROH10385  15.865   0.101  10.918  0.2026 -0.0158  0.0673
  667ERGO    R110386  15.737   0.051  10.671  0.1132 -0.0164  0.1142
  667ERGO    R210387  15.716   0.243  10.472  0.0484 -0.0206  0.1209
  667ERGO    R310388  15.833   0.050  10.319 -0.0129 -0.0262  0.0790
  667ERGO    R410389  15.659   0.197  10.134  0.1738  0.1885  0.0683
  667ERGO    R510390  15.660  -0.018  10.168  0.0079  0.1680 -0.0378
  667ERGO    C110391  15.735  -0.011   9.795  0.1892  0.3049 -0.0017
  667ERGO    C210392  15.686  -0.020   9.382 -0.1245  0.0057  0.0929
  668ERGO   ROH10393  13.673  10.714  10.909 -0.0005  0.0348 -0.1689
  668ERGO    R110394  13.727  10.824  10.654  0.0666  0.0039 -0.1678
  668ERGO    R210395  13.932  10.733  10.493  0.1090 -0.0143 -0.1011
  668ERGO    R310396  13.733  10.705  10.310  0.1586 -0.0370 -0.1526
  668ERGO    R410397  13.976  10.742  10.150  0.1663  0.2190 -0.0895
  668ERGO    R510398  13.792  10.857  10.135  0.0915  0.1083 -0.0523
  668ERGO    C110399  13.815  10.721   9.779  0.2464  0.3336 -0.1310
  668ERGO    C210400  13.754  10.682   9.369 -0.1413 -0.3813 -0.1094
  669ERGO   ROH10401   5.050   6.880  10.713 -0.1869  0.2405  0.1249
  669ERGO    R110402   4.924   6.778  10.481 -0.0998  0.1893  0.0998
  669ERGO    R210403   4.801   6.941  10.295 -0.1113  0.1414  0.0646
  669ERGO    R310404   4.966   6.813  10.121 -0.0279  0.1887  0.1084
  669ERGO    R410405   4.754   6.924   9.953  0.0105  0.1608  0.0463
  669ERGO    R510406   4.819   6.716   9.959  0.0479  0.1743  0.0495
  669ERGO    C110407   4.882   6.795   9.591  0.1597  0.2165  0.0769
  669ERGO    C210408   5.025   6.726   9.304 -0.1026  0.1655  0.0318
  670ERGO   ROH10409   2.026   6.641  11.008 -0.1316  0.0422  0.0828
  670ERGO    R110410   1.921   6.734  10.762  0.0550  0.0261 -0.0043
  670ERGO    R210411   2.073   6.874  10.578  0.2536 -0.1757  0.0049
  670ERGO    R310412   1.988   6.679  10.408  0.1701 -0.1773  0.0470
  670ERGO    R410413   2.113   6.878  10.235  0.2392 -0.2552  0.0017
  670ERGO    R510414   1.913   6.797  10.215  0.2048 -0.1833  0.0279
  670ERGO    C110415   2.057   6.698   9.876  0.1524 -0.3029  0.0393
  670ERGO    C210416   2.017   6.658   9.515 -0.3224  0.1124 -0.2388
  671ERGO   ROH10417   7.383   1.656  10.950  0.3730 -0.0088  0.1097
  671ERGO    R110418   7.302   1.731  10.690  0.1121 -0.1256  0.1550
  671ERGO    R210419   7.481   1.800  10.491 -0.0982  0.1996  0.0682
  671ERGO    R310420   7.350   1.607  10.351  0.1575 -0.0188  0.1220
  671ERGO    R410421   7.454   1.790  10.147 -0.2922  0.2029  0.0821
  671ERGO    R510422   7.247   1.725  10.170 -0.1680 -0.1726  0.2002
  671ERGO    C110423   7.316   1.603   9.815 -0.1652 -0.0001  0.1406
  671ERGO    C210424   7.464   1.685   9.537 -0.2598 -0.1521 -0.2286
  672ERGO   ROH10425   7.033  10.592  11.247 -0.0250 -0.0120  0.0987
  672ERGO    R110426   7.125  10.605  10.979 -0.0999  0.1955  0.0794
  672ERGO    R210427   7.206  10.381  10.839  0.3755  0.3595  0.0602
  672ERGO    R310428   7.023  10.469  10.658  0.1321 -0.0371  0.1031
  672ERGO    R410429   7.238  10.354  10.496  0.3627  0.4690  0.0511
  672ERGO    R510430   7.154  10.554  10.477 -0.0994  0.2832  0.0844
  672ERGO    C110431   7.085  10.421  10.126  0.1267  0.1605  0.0861
  672ERGO    C210432   7.203  10.308   9.903 -0.1967  0.0687 -0.0198
  673ERGO   ROH10433  16.744   7.045  11.184 -0.3144  0.1336  0.1426
  673ERGO    R110434  16.738   7.164  10.928 -0.0762  0.1042  0.1202
  673ERGO    R210435  16.949   7.145  10.750 -0.0310 -0.1818  0.1950
  673ERGO    R310436  16.756   7.050  10.583 -0.0920  0.0264  0.1456
  673ERGO    R410437  16.963   7.159  10.405  0.1482 -0.3371  0.1950
  673ERGO    R510438  16.750   7.209  10.403  0.2169 -0.0335  0.0785
  673ERGO    C110439  16.790   7.078  10.047  0.1953 -0.2321  0.1485
  673ERGO    C210440  16.848   7.097   9.695 -0.0382 -0.4763  0.1177
  674loPI    C110441  11.475  11.801   5.661 -0.1795  0.0085  0.1386
  674loPI    C210442  11.554  12.165   5.516  0.1600 -0.1034  0.0324
  674loPI    C310443  11.586  11.844   5.279 -0.1165 -0.2069  0.1310
  674loPI   PO410444  11.499  11.773   5.883  0.1190 -0.0840 -0.0231
  674loPI   GL110445  11.631  11.844   6.352 -0.1169 -0.2882 -0.1949
  674loPI   GL210446  11.586  12.153   6.503  0.2275 -0.3165 -0.0544
  674loPI   C1A10447  11.631  11.763   6.776 -0.0677  0.0535  0.3347
  674loPI   C2A10448  11.677  11.841   7.268  0.1240  0.0934  0.0637
  674loPI   C3A10449  11.692  11.830   7.686 -0.0554  0.0384 -0.0278
  674loPI   C4A10450  11.719  11.884   8.027  0.0325 -0.4111 -0.2616
  674loPI   C5A10451  11.452  11.872   8.411  0.1458  0.3695  0.0191
  674loPI   C6A10452  11.246  11.504   8.652 -0.1776 -0.2113  0.1652
  674loPI   C1B10453  11.480  12.264   6.904  0.2804 -0.0618  0.1525
  674loPI   C2B10454  11.526  12.310   7.372 -0.2158  0.2515 -0.3077
  674loPI   C3B10455  11.553  12.326   7.814  0.0861  0.0420  0.1421
  674loPI   C4B10456  11.512  12.346   8.222  0.0077 -0.1334  0.0692
  675loPI    C110457  12.531  14.625   6.041  0.0654  0.0853 -0.0169
  675loPI    C210458  12.518  14.805   5.684  0.0438 -0.2238 -0.1751
  675loPI    C310459  12.677  14.439   5.719  0.3348 -0.0695  0.1902
  675loPI   PO410460  12.325  14.673   6.153 -0.2743  0.0359  0.1923
  675loPI   GL110461  12.531  14.882   6.504  0.0358 -0.1788 -0.0175
  675loPI   GL210462  12.758  14.672   6.621  0.0972 -0.2669  0.1179
  675loPI   C1A10463  12.259  14.927   6.816 -0.0147 -0.2607  0.0617
  675loPI   C2A10464  12.242  14.869   7.246  0.0788  0.1840  0.1250
  675loPI   C3A10465  12.329  14.964   7.662  0.2694 -0.0162 -0.2742
  675loPI   C4A10466  12.304  14.884   8.107 -0.1646  0.1580  0.0500
  675loPI   C5A10467  12.378  14.897   8.600  0.2122  0.1038  0.0192
  675loPI   C6A10468  12.093  14.610   8.846  0.0866  0.2060  0.2357
  675loPI   C1B10469  12.727  14.828   7.075  0.0558  0.0682 -0.2539
  675loPI   C2B10470  12.820  14.853   7.522  0.0233 -0.0083 -0.2166
  675loPI   C3B10471  12.790  14.802   7.965  0.1343 -0.1352 -0.0910
  675loPI   C4B10472  12.915  14.800   8.398 -0.1124 -0.2634 -0.3054
  676loPI    C110473   4.144   6.300   5.545 -0.0185  0.1530  0.0039
  676loPI    C210474   4.440   6.276   5.277  0.0609 -0.0880  0.1101
  676loPI    C310475   4.089   6.098   5.205 -0.0567  0.1879 -0.0107
  676loPI   PO410476   4.301   6.363   5.874 -0.0694  0.0916 -0.1841
  676loPI   GL110477   4.332   6.536   6.273 -0.0801  0.1706 -0.0992
  676loPI   GL210478   4.363   6.170   6.382 -0.0218  0.0411  0.0769
  676loPI   C1A10479   3.967   6.453   6.513  0.1269  0.2225  0.1792
  676loPI   C2A10480   3.915   6.442   6.960 -0.1078  0.2395 -0.2530
  676loPI   C3A10481   3.883   6.259   7.360 -0.1294  0.0585 -0.2214
  676loPI   C4A10482   3.883   6.296   7.840  0.1027 -0.1254  0.1687
  676loPI   C5A10483   3.904   6.369   8.236 -0.2261  0.0818 -0.0318
  676loPI   C6A10484   3.709   6.414   8.599  0.2127  0.1568  0.2182
  676loPI   C1B10485   4.396   6.282   6.827  0.2629 -0.0049  0.3786
  676loPI   C2B10486   4.373   6.164   7.205 -0.0895 -0.1969  0.3588
  676loPI   C3B10487   4.466   6.128   7.709  0.0171  0.0230  0.1521
  676loPI   C4B10488   4.462   6.202   8.227 -0.0576  0.2453  0.2745
  677loPI    C110489  12.126   1.580   5.390  0.0028 -0.2257  0.0284
  677loPI    C210490  12.324   1.244   5.304 -0.0747 -0.2356 -0.1138
  677loPI    C310491  12.014   1.357   5.078  0.0428  0.0084 -0.1567
  677loPI   PO410492  12.039   1.507   5.722  0.2104 -0.1187  0.2434
  677loPI   GL110493  11.977   1.286   6.123 -0.1498 -0.0709  0.1719
  677loPI   GL210494  11.940   1.584   6.366  0.1030 -0.0688 -0.0611
  677loPI   C1A10495  11.994   1.075   6.590  0.0296  0.0962 -0.2889
  677loPI   C2A10496  12.077   1.088   7.019 -0.0621 -0.0555  0.1154
  677loPI   C3A10497  12.067   1.165   7.437 -0.0188  0.1023  0.4110
  677loPI   C4A10498  12.057   1.138   7.847  0.0399  0.2583  0.1090
  677loPI   C5A10499  12.118   1.308   8.304  0.1371 -0.0755  0.3635
  677loPI   C6A10500  12.022   1.534   8.606 -0.2813 -0.0242 -0.0383
  677loPI   C1B10501  11.879   1.612   6.796 -0.0698  0.2774  0.2265
  677loPI   C2B10502  11.870   1.645   7.211 -0.0829  0.2159  0.1251
  677loPI   C3B10503  11.841   1.670   7.662  0.2385  0.3307 -0.0521
  677loPI   C4B10504  11.885   1.654   8.038 -0.1054 -0.1139  0.3843
  678loPI    C110505  15.218  14.309   5.607  0.0297  0.0239 -0.0063
  678loPI    C210506  15.469  14.618   5.572  0.0650  0.0020  0.0507
  678loPI    C310507  15.544  14.276   5.378  0.0405  0.0198  0.0097
  678loPI   PO410508  15.200  14.292   5.768  0.1133  0.1705  0.1862
  678loPI   GL110509  15.264  14.163   6.188  0.1971 -0.1604  0.2614
  678loPI   GL210510  15.081  13.935   6.336 -0.0243 -0.0597 -0.4953
  678loPI   C1A10511  15.278  14.266   6.653 -0.0540  0.1852 -0.0227
  678loPI   C2A10512  15.291  14.198   7.081  0.0344  0.2323 -0.2080
  678loPI   C3A10513  15.266  14.137   7.488 -0.0190  0.0880  0.0408
  678loPI   C4A10514  15.289  14.213   7.918 -0.0136  0.1667  0.0541
  678loPI   C5A10515  15.326  14.169   8.393  0.0263  0.2545 -0.1007
  678loPI   C6A10516  15.488  14.042   8.768 -0.1328 -0.0712 -0.1854
  678loPI   C1B10517  14.960  13.894   6.770 -0.1793 -0.2235  0.0638
  678loPI   C2B10518  15.005  13.794   7.180  0.1934 -0.3126  0.1009
  678loPI   C3B10519  14.938  13.726   7.532  0.1589 -0.1021  0.0638
  678loPI   C4B10520  14.926  13.821   8.030 -0.2405 -0.0688 -0.0213
  679loPI    C110521   7.228   3.610   5.919  0.1122  0.1039 -0.1589
  679loPI    C210522   7.596   3.484   5.824  0.0288 -0.1009 -0.2162
  679loPI    C310523   7.313   3.508   5.542 -0.0707 -0.1870 -0.1251
  679loPI   PO410524   7.319   3.761   6.125 -0.1198 -0.0042  0.3079
  679loPI   GL110525   7.403   3.748   6.464  0.2282 -0.1798 -0.2505
  679loPI   GL210526   7.415   4.147   6.426  0.2281  0.1687  0.0854
  679loPI   C1A10527   7.494   3.617   6.958 -0.1433  0.0906  0.0445
  679loPI   C2A10528   7.529   3.548   7.373  0.0171 -0.2454  0.1037
  679loPI   C3A10529   7.525   3.552   7.791 -0.3464  0.0035 -0.1807
  679loPI   C4A10530   7.654   3.919   8.068 -0.1766 -0.1873  0.3322
  679loPI   C5A10531   7.435   4.232   8.180 -0.0338  0.0628  0.3959
  679loPI   C6A10532   7.217   4.580   8.113  0.2345 -0.3256 -0.0488
  679loPI   C1B10533   7.387   4.167   6.898  0.1843  0.1119 -0.1596
  679loPI   C2B10534   7.431   4.126   7.290 -0.2881 -0.0055 -0.1976
  679loPI   C3B10535   7.295   3.968   7.668  0.1643  0.1048  0.2260
  679loPI   C4B10536   6.965   3.677   7.705 -0.0512  0.0515  0.0394
  680loPI    C110537   3.339  12.849   5.766  0.0231 -0.1345  0.2543
  680loPI    C210538   3.564  12.924   5.444 -0.1209  0.1835  0.2243
  680loPI    C310539   3.213  12.737   5.403  0.0605 -0.1699  0.2522
  680loPI   PO410540   3.458  12.821   5.928  0.0012  0.2312  0.0653
  680loPI   GL110541   3.497  13.101   6.262  0.4703  0.1392 -0.2842
  680loPI   GL210542   3.566  13.014   6.557 -0.0785  0.0065 -0.0828
  680loPI   C1A10543   3.370  13.492   6.480 -0.0789  0.0786  0.0321
  680loPI   C2A10544   3.375  13.409   6.952  0.0026 -0.3859 -0.1846
  680loPI   C3A10545   3.365  13.400   7.396  0.0287 -0.5157  0.1142
  680loPI   C4A10546   3.370  13.451   7.813  0.0237 -0.2182  0.1083
  680loPI   C5A10547   3.351  13.592   8.226 -0.2550  0.0208 -0.0302
  680loPI   C6A10548   3.161  13.797   8.619  0.0725  0.1615  0.0014
  680loPI   C1B10549   3.549  12.909   6.936 -0.3073  0.0636 -0.0889
  680loPI   C2B10550   3.540  12.925   7.450 -0.3810  0.0411  0.2832
  680loPI   C3B10551   3.473  12.998   7.872 -0.1335 -0.0696  0.0738
  680loPI   C4B10552   3.515  13.065   8.241 -0.1093 -0.0214 -0.0075
  681loPI    C110553   0.380  10.715   5.769 -0.0586  0.1105 -0.1634
  681loPI    C210554   0.401  10.323   5.690  0.2988  0.0533  0.1864
  681loPI    C310555   0.642  10.578   5.499 -0.0924  0.1384 -0.2105
  681loPI   PO410556   0.288  10.628   6.059 -0.3362 -0.2579  0.2796
  681loPI   GL110557   0.530  10.916   6.300 -0.2187  0.0933 -0.2700
  681loPI   GL210558   0.572  10.601   6.442  0.0563  0.1233  0.3018
  681loPI   C1A10559   0.589  11.109   6.673  0.1767 -0.3325 -0.2711
  681loPI   C2A10560   0.433  11.173   7.052  0.1735  0.0112 -0.1327
  681loPI   C3A10561   0.391  11.138   7.395  0.0181  0.1896 -0.0185
  681loPI   C4A10562   0.382  11.135   7.859 -0.3125 -0.2484  0.1989
  681loPI   C5A10563   0.233  11.441   8.207 -0.2088  0.1720 -0.3142
  681loPI   C6A10564   0.436  11.648   8.626 -0.0637 -0.2314 -0.1187
  681loPI   C1B10565   0.593  10.656   6.882 -0.0914 -0.0159  0.0303
  681loPI   C2B10566   0.531  10.674   7.266  0.1099 -0.1531  0.0247
  681loPI   C3B10567   0.521  10.607   7.659  0.1862 -0.0446  0.1470
  681loPI   C4B10568   0.564  10.626   8.118  0.2147 -0.1152  0.0128
  682loPI    C110569   3.868  16.987   5.640  0.1652 -0.0056 -0.1770
  682loPI    C210570   4.074  17.011   5.297 -0.0773 -0.0048 -0.3248
  682loPI    C310571   3.766  16.758   5.328  0.0322 -0.1087 -0.0587
  682loPI   PO410572   3.845  17.235   5.699 -0.1352 -0.1104  0.0084
  682loPI   GL110573   4.081  17.544   5.968 -0.3460 -0.1444  0.2470
  682loPI   GL210574   4.113  17.833   6.132  0.0703  0.1496  0.2633
  682loPI   C1A10575   3.924  17.371   6.396 -0.0060 -0.2868 -0.1753
  682loPI   C2A10576   3.976  17.340   6.818  0.1961  0.0522 -0.1393
  682loPI   C3A10577   3.988  17.304   7.274  0.0895  0.1146  0.1115
  682loPI   C4A10578   3.986  17.344   7.711 -0.0641 -0.0516  0.1922
  682loPI   C5A10579   3.987  17.376   8.171 -0.1937  0.0806 -0.1142
  682loPI   C6A10580   3.742  17.536   8.562  0.1597  0.2371 -0.1223
  682loPI   C1B10581   4.295  17.699   6.550  0.1002 -0.2703 -0.4585
  682loPI   C2B10582   4.343  17.682   6.988 -0.1845 -0.0583 -0.0068
  682loPI   C3B10583   4.326  17.758   7.448 -0.0374  0.1266 -0.0432
  682loPI   C4B10584   4.284  17.744   7.894  0.0974 -0.0739 -0.0293
  683loPI    C110585   7.549  15.872   5.517 -0.0953  0.1304  0.0700
  683loPI    C210586   7.356  15.574   5.333 -0.1127  0.0949  0.1450
  683loPI    C310587   7.383  15.933   5.158 -0.1867  0.0805  0.1035
  683loPI   PO410588   7.383  15.880   5.762  0.1323 -0.0500 -0.0247
  683loPI   GL110589   7.263  15.819   6.200 -0.1106  0.1121 -0.2732
  683loPI   GL210590   7.409  15.609   6.328 -0.0097  0.0924  0.2513
  683loPI   C1A10591   6.912  15.721   6.457  0.2596 -0.1051 -0.0843
  683loPI   C2A10592   6.816  15.810   6.905 -0.2955  0.0448 -0.0288
  683loPI   C3A10593   6.774  15.807   7.382 -0.0994  0.1250 -0.2005
  683loPI   C4A10594   6.837  15.778   7.850  0.3272  0.3244  0.1681
  683loPI   C5A10595   6.810  15.679   8.277  0.1672 -0.3031 -0.1420
  683loPI   C6A10596   6.927  15.418   8.630  0.0743  0.0355  0.3371
  683loPI   C1B10597   7.287  15.662   6.803 -0.1613  0.1643  0.3497
  683loPI   C2B10598   7.336  15.714   7.237  0.0385  0.1172 -0.0668
  683loPI   C3B10599   7.334  15.669   7.629 -0.0960 -0.2348 -0.0187
  683loPI   C4B10600   7.390  15.672   8.042 -0.0317 -0.0298  0.3086
  684loPI    C110601  13.479  16.179   5.927 -0.1149 -0.2357 -0.3459
  684loPI    C210602  13.475  15.821   6.106 -0.0389 -0.1443 -0.1581
  684loPI    C310603  13.794  16.059   6.143 -0.2229  0.0830  0.0009
  684loPI   PO410604  13.226  16.258   5.997 -0.0743 -0.1879 -0.1127
  684loPI   GL110605  13.207  16.339   6.407  0.1301 -0.2210 -0.0837
  684loPI   GL210606  13.358  16.054   6.526  0.1046 -0.1247 -0.0120
  684loPI   C1A10607  13.139  16.464   6.918  0.2376  0.1081 -0.0967
  684loPI   C2A10608  13.176  16.491   7.353  0.1064 -0.0012  0.0213
  684loPI   C3A10609  13.191  16.599   7.757 -0.2955 -0.1144 -0.0889
  684loPI   C4A10610  13.141  16.600   8.287  0.2026 -0.0852  0.1778
  684loPI   C5A10611  12.994  16.812   8.598  0.0841 -0.0715 -0.0206
  684loPI   C6A10612  12.897  16.940   8.989 -0.0724  0.0384  0.2646
  684loPI   C1B10613  13.331  16.072   7.066  0.1967  0.1247  0.0544
  684loPI   C2B10614  13.370  16.012   7.580  0.0101  0.2028  0.0318
  684loPI   C3B10615  13.251  16.149   7.965 -0.3716  0.1227  0.2286
  684loPI   C4B10616  13.257  16.074   8.349 -0.0583  0.1076 -0.0180
  685loPI    C110617   1.647  15.464   5.530 -0.0853 -0.1436 -0.1872
  685loPI    C210618   1.724  15.503   5.140 -0.0469 -0.1096 -0.1763
  685loPI    C310619   1.482  15.763   5.323  0.1235  0.0160 -0.1271
  685loPI   PO410620   1.593  15.246   5.567  0.0429  0.1689 -0.0412
  685loPI   GL110621   1.518  15.070   5.993 -0.0175  0.0679  0.0957
  685loPI   GL210622   1.191  15.128   6.231 -0.0517  0.2565 -0.0494
  685loPI   C1A10623   1.722  15.077   6.385 -0.0803  0.2127 -0.1054
  685loPI   C2A10624   1.754  15.016   6.859  0.0990 -0.0461 -0.1049
  685loPI   C3A10625   1.763  15.035   7.380 -0.0541 -0.0340 -0.1324
  685loPI   C4A10626   1.670  14.958   7.757 -0.0033  0.0505 -0.1201
  685loPI   C5A10627   1.809  14.867   8.148  0.2091 -0.4342 -0.1773
  685loPI   C6A10628   2.121  14.650   8.381  0.1496  0.2859  0.2454
  685loPI   C1B10629   1.283  15.127   6.623 -0.0510 -0.1326 -0.1884
  685loPI   C2B10630   1.267  15.109   7.035  0.1634  0.2130  0.0910
  685loPI   C3B10631   1.234  15.165   7.530  0.4543 -0.1924  0.1199
  685loPI   C4B10632   1.288  15.141   7.966 -0.2290 -0.1120  0.2275
  686loPI    C110633  12.604   7.327   5.829  0.1824 -0.2037  0.2445
  686loPI    C210634  12.893   7.296   5.554 -0.1755 -0.0098 -0.1642
  686loPI    C310635  12.531   7.140   5.484 -0.2821  0.0700  0.1862
  686loPI   PO410636  12.656   7.332   6.090 -0.0092 -0.1851  0.1151
  686loPI   GL110637  12.609   7.561   6.439 -0.0097  0.0446  0.0495
  686loPI   GL210638  12.799   7.752   6.565 -0.0992  0.0227  0.1217
  686loPI   C1A10639  12.497   7.387   6.776  0.2587 -0.1812 -0.0695
  686loPI   C2A10640  12.481   7.356   7.297 -0.0088 -0.0067  0.0500
  686loPI   C3A10641  12.480   7.405   7.744  0.0744  0.0284 -0.2083
  686loPI   C4A10642  12.401   7.482   8.155  0.0277  0.1550  0.0617
  686loPI   C5A10643  12.479   7.521   8.544 -0.2922  0.0692 -0.1274
  686loPI   C6A10644  12.811   7.436   8.842 -0.1676  0.1125 -0.1610
  686loPI   C1B10645  12.812   7.782   7.015  0.1506 -0.0956 -0.1751
  686loPI   C2B10646  12.871   7.809   7.471  0.2533  0.0681 -0.1077
  686loPI   C3B10647  12.805   7.784   7.942  0.3642  0.0646 -0.2921
  686loPI   C4B10648  12.764   7.918   8.367  0.0434 -0.1644 -0.0539
  687loPI    C110649   6.419  10.347   5.735 -0.1299  0.0406 -0.0549
  687loPI    C210650   6.204  10.148   5.463 -0.2899  0.2729 -0.1019
  687loPI    C310651   6.337  10.516   5.382  0.0107  0.1856 -0.0196
  687loPI   PO410652   6.313  10.438   5.949 -0.2360  0.0301 -0.0113
  687loPI   GL110653   6.337  10.224   6.324 -0.3406 -0.1227  0.0486
  687loPI   GL210654   6.080  10.003   6.388  0.0026 -0.3277 -0.0851
  687loPI   C1A10655   6.526  10.312   6.805  0.2224 -0.3481 -0.0367
  687loPI   C2A10656   6.573  10.305   7.297  0.0874 -0.0862 -0.1511
  687loPI   C3A10657   6.538  10.369   7.698  0.1501  0.1084  0.3283
  687loPI   C4A10658   6.517  10.289   8.072 -0.0926 -0.0131  0.1549
  687loPI   C5A10659   6.678  10.253   8.491  0.2418 -0.2274  0.1899
  687loPI   C6A10660   6.656  10.083   8.852 -0.2477 -0.1011  0.0373
  687loPI   C1B10661   6.219   9.939   6.846 -0.1824 -0.0925  0.1336
  687loPI   C2B10662   6.148   9.945   7.277  0.0436 -0.1033 -0.1601
  687loPI   C3B10663   6.297   9.944   7.768  0.0614 -0.0728 -0.3719
  687loPI   C4B10664   6.192   9.927   8.114  0.0382 -0.0944 -0.0416
  688loPI    C110665  11.826   5.816   5.398  0.0914 -0.2273 -0.0592
  688loPI    C210666  11.762   5.986   5.042  0.3088  0.0553  0.0326
  688loPI    C310667  11.681   5.598   5.096  0.0775  0.0585 -0.2631
  688loPI   PO410668  11.753   5.892   5.604 -0.0711  0.0835  0.1105
  688loPI   GL110669  11.636   6.022   6.005  0.2079 -0.0369 -0.3870
  688loPI   GL210670  11.821   6.153   6.161  0.1798 -0.0613 -0.3325
  688loPI   C1A10671  11.509   5.859   6.405  0.0544  0.0744  0.1936
  688loPI   C2A10672  11.548   5.787   6.838  0.0456  0.0419  0.1152
  688loPI   C3A10673  11.504   5.807   7.262 -0.2256 -0.3417 -0.1469
  688loPI   C4A10674  11.565   5.826   7.721 -0.0273  0.0211 -0.1318
  688loPI   C5A10675  11.546   5.862   8.173 -0.3320  0.0234  0.1460
  688loPI   C6A10676  11.616   6.184   8.456 -0.0551  0.0426  0.0347
  688loPI   C1B10677  11.878   6.113   6.664 -0.1552  0.1040  0.0091
  688loPI   C2B10678  11.870   6.122   7.151  0.1938 -0.1827 -0.0045
  688loPI   C3B10679  11.887   6.179   7.599  0.0305  0.0410  0.1475
  688loPI   C4B10680  11.935   6.234   8.063  0.2984  0.1501 -0.3455
  689loPI    C110681   3.639   3.812   5.826  0.0073 -0.0720  0.1823
  689loPI    C210682   3.287   4.002   5.810 -0.0353 -0.1615  0.0389
  689loPI    C310683   3.487   3.922   5.472  0.1145 -0.1267  0.1186
  689loPI   PO410684   3.593   3.622   6.024 -0.0053 -0.2815  0.0436
  689loPI   GL110685   3.799   3.504   6.426 -0.1381  0.2669 -0.1723
  689loPI   GL210686   3.922   3.210   6.288 -0.0485  0.2083 -0.1338
  689loPI   C1A10687   3.662   3.526   6.831 -0.1604  0.0172  0.1994
  689loPI   C2A10688   3.743   3.569   7.209 -0.0253  0.2508 -0.0880
  689loPI   C3A10689   3.712   3.631   7.731  0.2450  0.2809 -0.0983
  689loPI   C4A10690   3.757   3.512   8.128 -0.0977 -0.1609  0.0346
  689loPI   C5A10691   3.790   3.111   8.272 -0.1487 -0.0491 -0.0413
  689loPI   C6A10692   3.835   2.729   8.356  0.0582 -0.0353 -0.0055
  689loPI   C1B10693   3.849   3.067   6.592 -0.1869 -0.5035  0.1801
  689loPI   C2B10694   3.883   3.010   6.996  0.1797  0.1827  0.2089
  689loPI   C3B10695   3.824   3.035   7.336 -0.0233 -0.2904  0.3048
  689loPI   C4B10696   3.829   3.090   7.725  0.1138  0.0712  0.1516
  690loPI    C110697   7.744  11.157   5.654 -0.1427  0.0943 -0.0413
  690loPI    C210698   8.003  11.071   5.362  0.2149  0.1864  0.2409
  690loPI    C310699   7.666  10.860   5.398  0.3459 -0.0725 -0.0087
  690loPI   PO410700   7.937  11.220   5.852 -0.2807  0.2615  0.2344
  690loPI   GL110701   7.881  11.432   6.196 -0.0727  0.1911 -0.1933
  690loPI   GL210702   7.672  11.324   6.431 -0.1534 -0.0769  0.3190
  690loPI   C1A10703   7.961  11.673   6.670  0.0710 -0.3152 -0.4647
  690loPI   C2A10704   7.901  11.831   7.121  0.0699  0.1824  0.0787
  690loPI   C3A10705   7.961  11.912   7.514 -0.0259  0.2207  0.2435
  690loPI   C4A10706   7.982  11.804   7.867  0.1897 -0.1454  0.0020
  690loPI   C5A10707   7.973  11.954   8.239  0.1625  0.1008 -0.1338
  690loPI   C6A10708   8.296  11.874   8.490 -0.0091 -0.0541  0.0192
  690loPI   C1B10709   7.585  11.461   6.797  0.2423  0.4254 -0.0968
  690loPI   C2B10710   7.578  11.512   7.269  0.0346 -0.1033  0.1537
  690loPI   C3B10711   7.614  11.558   7.568 -0.0993 -0.1328  0.0160
  690loPI   C4B10712   7.551  11.421   7.912 -0.0254 -0.0060 -0.2702
  691loPI    C110713   2.229  12.008   5.707  0.1759 -0.0454 -0.1232
  691loPI    C210714   2.104  11.778   5.404 -0.1041 -0.0217 -0.0291
  691loPI    C310715   2.064  12.176   5.383 -0.0501 -0.0141  0.0061
  691loPI   PO410716   2.102  11.950   5.889 -0.2906  0.1290  0.2011
  691loPI   GL110717   1.878  11.826   6.176  0.2490  0.0351  0.0755
  691loPI   GL210718   2.108  11.728   6.338 -0.3267 -0.3177 -0.0450
  691loPI   C1A10719   1.610  11.691   6.554 -0.2135  0.0220  0.1203
  691loPI   C2A10720   1.571  11.654   6.942 -0.0375 -0.0571 -0.0394
  691loPI   C3A10721   1.564  11.688   7.363 -0.0554 -0.0529 -0.1685
  691loPI   C4A10722   1.551  11.707   7.838 -0.0600  0.0546 -0.0176
  691loPI   C5A10723   1.708  11.733   8.209  0.0678 -0.2401 -0.0401
  691loPI   C6A10724   1.436  11.361   8.347 -0.0978 -0.0346  0.0056
  691loPI   C1B10725   2.131  11.528   6.704 -0.1695 -0.0990  0.1591
  691loPI   C2B10726   2.056  11.435   7.089  0.1424 -0.2130 -0.3880
  691loPI   C3B10727   2.129  11.565   7.489  0.2610 -0.1752 -0.1097
  691loPI   C4B10728   2.036  11.593   7.889  0.2330 -0.3591  0.2747
  692loPI    C110729  14.063   8.274   5.584 -0.0554  0.1267  0.1250
  692loPI    C210730  14.433   8.320   5.439 -0.0746  0.0409  0.0474
  692loPI    C310731  14.116   8.373   5.200 -0.1100  0.0199  0.0894
  692loPI   PO410732  14.086   8.369   5.809 -0.0262 -0.2165  0.2389
  692loPI   GL110733  14.197   8.346   6.204 -0.1474 -0.1797  0.1185
  692loPI   GL210734  14.242   8.650   6.270  0.1484  0.0180  0.1808
  692loPI   C1A10735  14.149   8.018   6.489 -0.0302  0.4011 -0.0600
  692loPI   C2A10736  14.160   7.945   6.914  0.0897  0.1594 -0.0346
  692loPI   C3A10737  14.169   7.914   7.337 -0.2489 -0.3595 -0.2669
  692loPI   C4A10738  14.124   7.991   7.840 -0.4578  0.1495  0.0421
  692loPI   C5A10739  14.072   7.799   8.200  0.1491 -0.0208  0.0819
  692loPI   C6A10740  13.886   7.416   8.430 -0.1163  0.1379 -0.2762
  692loPI   C1B10741  14.298   8.816   6.618 -0.4348  0.1838  0.0857
  692loPI   C2B10742  14.385   8.888   6.934 -0.2088 -0.0191 -0.3238
  692loPI   C3B10743  14.389   8.830   7.416  0.0970  0.1622 -0.1488
  692loPI   C4B10744  14.285   8.910   7.912 -0.3917  0.1084 -0.3779
  693loPI    C110745   1.859   9.862   5.806 -0.0943 -0.0690 -0.0548
  693loPI    C210746   2.044   9.645   5.526 -0.0098  0.1451 -0.1666
  693loPI    C310747   1.712   9.849   5.435 -0.1650 -0.0422 -0.0278
  693loPI   PO410748   1.860   9.765   5.967  0.0448 -0.1009  0.1380
  693loPI   GL110749   1.923   9.443   6.382 -0.0560  0.0245  0.2282
  693loPI   GL210750   2.153   9.694   6.418 -0.1621 -0.2027  0.1447
  693loPI   C1A10751   1.815   9.319   6.829  0.1785 -0.2554  0.1898
  693loPI   C2A10752   1.773   9.364   7.193 -0.3465  0.0774 -0.0755
  693loPI   C3A10753   1.733   9.339   7.603 -0.0864 -0.0853 -0.1437
  693loPI   C4A10754   1.734   9.252   8.030 -0.2867 -0.4840  0.2655
  693loPI   C5A10755   1.816   9.244   8.428  0.1765  0.1327  0.4449
  693loPI   C6A10756   1.846   9.398   8.797 -0.0076  0.1681 -0.1228
  693loPI   C1B10757   2.168   9.642   6.863  0.0668 -0.1521  0.1279
  693loPI   C2B10758   2.140   9.701   7.317 -0.0018  0.0863  0.0827
  693loPI   C3B10759   2.105   9.698   7.763 -0.0328  0.2011 -0.2241
  693loPI   C4B10760   2.093   9.644   8.219  0.0809 -0.2698  0.2147
  694loPI    C110761   0.266   6.592   5.793 -0.2740 -0.0010  0.0801
  694loPI    C210762   0.206   6.466   5.418 -0.2029 -0.0592  0.0882
  694loPI    C310763   0.532   6.680   5.507 -0.2352 -0.0193  0.1107
  694loPI   PO410764   0.013   6.745   5.888 -0.0844  0.3125 -0.1864
  694loPI   GL110765  -0.257   6.600   6.160 -0.0736  0.0413 -0.1228
  694loPI   GL210766  -0.054   6.347   6.245 -0.1511  0.4493  0.0156
  694loPI   C1A10767  -0.112   6.755   6.531 -0.2514  0.0458 -0.0489
  694loPI   C2A10768  -0.150   6.683   6.944  0.0088 -0.5355 -0.1336
  694loPI   C3A10769  -0.170   6.753   7.323  0.0266  0.1291  0.0881
  694loPI   C4A10770  -0.247   6.790   7.788  0.1874  0.2784  0.1246
  694loPI   C5A10771  -0.297   6.736   8.220 -0.0677  0.0910 -0.0015
  694loPI   C6A10772  -0.700   6.343   8.281 -0.0660  0.0424 -0.2402
  694loPI   C1B10773   0.097   6.283   6.723  0.2496  0.0204  0.0102
  694loPI   C2B10774  -0.023   6.225   7.136 -0.1286  0.1382  0.1452
  694loPI   C3B10775  -0.025   6.288   7.611  0.0095 -0.0528 -0.1539
  694loPI   C4B10776  -0.112   6.331   8.009 -0.0575  0.1606  0.0080
  695loPI    C110777   9.690  16.518   5.715  0.0797 -0.0976 -0.1529
  695loPI    C210778   9.492  16.207   5.558 -0.2931  0.1005 -0.0873
  695loPI    C310779   9.591  16.519   5.328 -0.0315 -0.0071 -0.1247
  695loPI   PO410780   9.627  16.439   6.053  0.1500  0.1984  0.0629
  695loPI   GL110781   9.684  16.057   6.361 -0.2676  0.2140 -0.1322
  695loPI   GL210782   9.979  15.857   6.533 -0.0899 -0.1252  0.1293
  695loPI   C1A10783   9.522  15.982   6.679  0.2951  0.2184  0.3099
  695loPI   C2A10784   9.631  16.025   7.061 -0.1567  0.2194  0.0198
  695loPI   C3A10785   9.595  16.001   7.522 -0.0930  0.0532 -0.0326
  695loPI   C4A10786   9.566  15.961   8.077  0.1300  0.0350  0.0673
  695loPI   C5A10787   9.409  16.155   8.528 -0.2645  0.3345  0.0082
  695loPI   C6A10788   9.128  16.101   8.771 -0.0682  0.3297 -0.3672
  695loPI   C1B10789  10.098  15.886   6.885  0.3111 -0.0725 -0.2169
  695loPI   C2B10790  10.050  15.895   7.358  0.0193 -0.0098 -0.1813
  695loPI   C3B10791  10.052  15.850   7.854  0.2870 -0.0791 -0.0981
  695loPI   C4B10792  10.119  15.744   8.301  0.0981 -0.0252  0.0997
  696loPI    C110793  15.334  12.279   5.749  0.3563 -0.0550 -0.0261
  696loPI    C210794  15.236  12.289   5.362 -0.1272 -0.1570  0.0863
  696loPI    C310795  15.434  12.596   5.526 -0.0674 -0.0378 -0.2008
  696loPI   PO410796  15.372  12.063   5.863  0.0417 -0.0169 -0.0916
  696loPI   GL110797  15.312  11.840   6.277  0.2044 -0.3456 -0.3074
  696loPI   GL210798  14.970  11.833   6.392  0.0122 -0.2194  0.0649
  696loPI   C1A10799  15.334  11.763   6.680 -0.0780  0.1386  0.2300
  696loPI   C2A10800  15.412  11.781   7.140 -0.0150  0.1595  0.1237
  696loPI   C3A10801  15.432  11.766   7.571 -0.1557 -0.0143 -0.3391
  696loPI   C4A10802  15.406  11.728   7.994  0.1559 -0.0339  0.0077
  696loPI   C5A10803  15.518  11.814   8.469 -0.1837  0.0309  0.0351
  696loPI   C6A10804  15.685  11.676   8.768 -0.0066  0.1093 -0.1489
  696loPI   C1B10805  14.816  11.934   6.731  0.2454 -0.3239 -0.0059
  696loPI   C2B10806  14.931  11.904   7.118  0.0955  0.1695 -0.0728
  696loPI   C3B10807  14.950  11.878   7.586 -0.1441 -0.0150  0.0300
  696loPI   C4B10808  14.920  11.897   8.058  0.2333 -0.4417  0.0241
  697loPI    C110809  12.564   3.022   5.674 -0.0160  0.0220  0.1744
  697loPI    C210810  12.218   3.019   5.474  0.2088  0.2534 -0.2319
  697loPI    C310811  12.455   2.697   5.468 -0.0965  0.0086  0.2377
  697loPI   PO410812  12.519   3.084   5.903  0.0561  0.0250  0.3333
  697loPI   GL110813  12.638   2.930   6.255  0.0404  0.1775  0.1746
  697loPI   GL210814  12.747   3.225   6.466 -0.1933 -0.1987  0.1087
  697loPI   C1A10815  12.425   2.875   6.599 -0.0570 -0.0864  0.3929
  697loPI   C2A10816  12.466   2.779   6.996 -0.1372  0.2015  0.2665
  697loPI   C3A10817  12.391   2.839   7.502  0.3057  0.1376 -0.4959
  697loPI   C4A10818  12.423   2.882   7.917 -0.0781  0.0025 -0.1935
  697loPI   C5A10819  12.611   2.934   8.394 -0.0236 -0.0488 -0.0231
  697loPI   C6A10820  12.621   3.145   8.824  0.0606 -0.1251  0.2390
  697loPI   C1B10821  12.815   3.179   6.877  0.0600 -0.2291  0.1254
  697loPI   C2B10822  12.656   3.180   7.225 -0.0293  0.1263 -0.0654
  697loPI   C3B10823  12.749   3.162   7.636 -0.1052  0.0715 -0.0382
  697loPI   C4B10824  12.846   3.259   8.005 -0.0951  0.1753  0.1883
  698loPI    C110825  12.403   9.782   5.763 -0.1343  0.0310 -0.0793
  698loPI    C210826  12.116   9.862   5.496 -0.0996 -0.0307 -0.1356
  698loPI    C310827  12.477   9.744   5.372 -0.0383  0.0823 -0.0663
  698loPI   PO410828  12.419   9.973   5.935 -0.0479  0.1112 -0.1723
  698loPI   GL110829  12.261   9.993   6.298 -0.1939  0.2670  0.2433
  698loPI   GL210830  12.291   9.644   6.313 -0.0670  0.0686  0.0350
  698loPI   C1A10831  12.103  10.203   6.707  0.1020  0.0013  0.1067
  698loPI   C2A10832  12.101  10.258   7.201  0.0147  0.0886 -0.1045
  698loPI   C3A10833  12.009  10.305   7.626 -0.1140 -0.2783 -0.1014
  698loPI   C4A10834  12.099  10.403   8.091  0.1042 -0.1315  0.0004
  698loPI   C5A10835  12.411  10.275   8.366 -0.4735  0.1045 -0.2616
  698loPI   C6A10836  12.583  10.013   8.762 -0.0450 -0.0032  0.0633
  698loPI   C1B10837  12.253   9.744   6.721  0.1517  0.1361 -0.0784
  698loPI   C2B10838  12.251   9.780   7.125  0.3559  0.1786 -0.0010
  698loPI   C3B10839  12.234   9.768   7.522 -0.0457  0.1893  0.0612
  698loPI   C4B10840  12.190   9.928   7.947 -0.2278  0.1200  0.0693
  699loPI    C110841   9.529   3.900   5.708 -0.1048 -0.0632 -0.0592
  699loPI    C210842   9.160   3.846   5.563 -0.0796 -0.1335 -0.0976
  699loPI    C310843   9.470   3.878   5.313 -0.0637 -0.0427 -0.0665
  699loPI   PO410844   9.531   4.076   5.958 -0.3061  0.1608  0.0221
  699loPI   GL110845   9.685   4.239   6.344  0.0951  0.1299  0.3322
  699loPI   GL210846   9.535   3.946   6.455 -0.0899  0.1956  0.2770
  699loPI   C1A10847   9.531   4.395   6.711  0.0505 -0.0153  0.1149
  699loPI   C2A10848   9.526   4.409   7.115  0.1115 -0.2562 -0.0536
  699loPI   C3A10849   9.626   4.455   7.635  0.2254  0.0853 -0.1967
  699loPI   C4A10850   9.701   4.468   8.082  0.3860 -0.0749  0.0348
  699loPI   C5A10851   9.631   4.293   8.470  0.2698 -0.0402  0.1039
  699loPI   C6A10852   9.657   4.620   8.830  0.1127 -0.0222 -0.2521
  699loPI   C1B10853   9.784   3.955   6.773 -0.0222 -0.0426 -0.0076
  699loPI   C2B10854   9.755   3.906   7.264  0.0426 -0.1953 -0.0427
  699loPI   C3B10855   9.748   4.026   7.680  0.0789  0.2392  0.0611
  699loPI   C4B10856   9.634   3.896   8.147  0.2806 -0.0224  0.2025
  700loPI    C110857  12.999  13.510   5.764  0.0630 -0.0634  0.1371
  700loPI    C210858  13.324  13.503   5.532 -0.1228  0.0300 -0.1315
  700loPI    C310859  13.172  13.161   5.672  0.0394 -0.0204 -0.0758
  700loPI   PO410860  13.032  13.645   5.974  0.0883 -0.0070 -0.1447
  700loPI   GL110861  13.094  13.709   6.436  0.1703 -0.1541  0.2762
  700loPI   GL210862  13.332  13.652   6.419  0.1752  0.3191 -0.0677
  700loPI   C1A10863  12.975  13.782   6.738 -0.0497 -0.1417  0.0857
  700loPI   C2A10864  13.059  13.836   7.169  0.0837 -0.1286  0.2482
  700loPI   C3A10865  13.006  13.858   7.628 -0.1608 -0.0849  0.1014
  700loPI   C4A10866  13.044  13.786   7.959  0.0289  0.4678 -0.0679
  700loPI   C5A10867  12.871  13.922   8.321 -0.0854  0.2602  0.0814
  700loPI   C6A10868  12.507  14.057   8.565  0.2053 -0.1369 -0.0494
  700loPI   C1B10869  13.526  13.675   6.834 -0.1076 -0.0696  0.4344
  700loPI   C2B10870  13.548  13.683   7.303  0.3032 -0.3053  0.0228
  700loPI   C3B10871  13.496  13.683   7.726 -0.0216  0.1471 -0.0908
  700loPI   C4B10872  13.559  13.670   8.040  0.2033  0.1368 -0.1153
  701loPI    C110873  15.317   3.592   5.638 -0.0279  0.1047  0.0684
  701loPI    C210874  15.165   3.347   5.360 -0.0061  0.1057  0.0555
  701loPI    C310875  15.545   3.470   5.333 -0.0138  0.1324  0.0678
  701loPI   PO410876  15.246   3.507   5.855 -0.0988  0.1367 -0.2540
  701loPI   GL110877  15.272   3.481   6.280 -0.1363  0.1541  0.0722
  701loPI   GL210878  15.399   3.258   6.528 -0.0908 -0.1386 -0.0024
  701loPI   C1A10879  15.326   3.744   6.676 -0.2991 -0.1046 -0.0123
  701loPI   C2A10880  15.385   3.946   7.103 -0.0940  0.3728 -0.0997
  701loPI   C3A10881  15.417   3.922   7.566  0.4037  0.1335 -0.1371
  701loPI   C4A10882  15.562   3.879   7.998  0.2863  0.0170 -0.2596
  701loPI   C5A10883  15.612   4.063   8.391  0.2848  0.0651  0.0385
  701loPI   C6A10884  15.631   4.179   8.795  0.0122  0.0446 -0.0719
  701loPI   C1B10885  15.468   3.389   6.916 -0.3434  0.1345 -0.2314
  701loPI   C2B10886  15.485   3.451   7.251 -0.1198 -0.3163 -0.0840
  701loPI   C3B10887  15.569   3.464   7.679  0.0714 -0.2553  0.2001
  701loPI   C4B10888  15.449   3.379   8.138 -0.0973  0.2511  0.0863
  702loPI    C110889   1.863   1.908   5.514 -0.3199 -0.0083 -0.1461
  702loPI    C210890   1.675   1.922   5.161  0.0539  0.0428 -0.3484
  702loPI    C310891   2.048   1.778   5.184  0.0958  0.1959 -0.0009
  702loPI   PO410892   1.689   1.812   5.733  0.1996  0.2136  0.3513
  702loPI   GL110893   1.774   1.780   6.149 -0.2827 -0.0466  0.0675
  702loPI   GL210894   1.774   1.420   6.225 -0.0609  0.0146  0.0079
  702loPI   C1A10895   1.888   1.737   6.611 -0.2117 -0.0258  0.1132
  702loPI   C2A10896   1.949   1.613   6.995 -0.0317  0.1720  0.0383
  702loPI   C3A10897   1.966   1.679   7.434  0.0725  0.0684 -0.1466
  702loPI   C4A10898   2.054   1.600   7.916  0.0023  0.1162 -0.0507
  702loPI   C5A10899   1.949   1.402   8.361 -0.1164  0.3268  0.0220
  702loPI   C6A10900   1.671   1.124   8.523  0.0122  0.3375  0.0612
  702loPI   C1B10901   1.588   1.296   6.606  0.2611  0.0906  0.0297
  702loPI   C2B10902   1.584   1.275   7.132 -0.1545 -0.4275 -0.1519
  702loPI   C3B10903   1.656   1.369   7.598 -0.2103 -0.0047  0.0769
  702loPI   C4B10904   1.549   1.359   8.060  0.1252 -0.2193 -0.2546
  703loPI    C110905  16.740   1.592   5.699  0.0720  0.0329  0.0524
  703loPI    C210906  16.991   1.617   5.389 -0.0705 -0.0769 -0.0730
  703loPI    C310907  16.855   1.261   5.508 -0.1884 -0.0158 -0.0230
  703loPI   PO410908  16.862   1.817   5.861  0.2104  0.0041  0.0033
  703loPI   GL110909  16.799   1.944   6.288  0.0180 -0.1236 -0.1189
  703loPI   GL210910  16.662   1.602   6.322  0.1517  0.1943  0.0984
  703loPI   C1A10911  16.842   2.182   6.679  0.2894 -0.0785  0.0528
  703loPI   C2A10912  16.921   2.152   7.109  0.2749  0.1552  0.1597
  703loPI   C3A10913  16.919   2.231   7.557  0.0070  0.1315  0.3613
  703loPI   C4A10914  16.908   2.237   7.977 -0.2064 -0.1687  0.1834
  703loPI   C5A10915  17.127   2.028   8.349 -0.0790 -0.0190  0.0683
  703loPI   C6A10916  17.125   1.578   8.474  0.0048  0.1870 -0.0498
  703loPI   C1B10917  16.686   1.421   6.751 -0.1650 -0.1150  0.3330
  703loPI   C2B10918  16.702   1.328   7.135 -0.2037 -0.2765 -0.2854
  703loPI   C3B10919  16.784   1.448   7.659  0.0489  0.6858  0.0334
  703loPI   C4B10920  16.761   1.322   8.154 -0.1427  0.1258  0.1161
  704loPI    C110921  13.754   9.226   5.795 -0.0679  0.2300  0.0568
  704loPI    C210922  13.485   9.250   5.500 -0.0871  0.3230  0.0815
  704loPI    C310923  13.790   9.508   5.514 -0.0137  0.2374  0.0712
  704loPI   PO410924  13.644   9.274   6.062 -0.3036  0.1943  0.0550
  704loPI   GL110925  13.706   9.542   6.512 -0.0929  0.1119  0.2482
  704loPI   GL210926  13.590   9.897   6.418 -0.1456 -0.1611  0.1827
  704loPI   C1A10927  13.798   9.489   6.930  0.0956 -0.3692 -0.1683
  704loPI   C2A10928  13.809   9.448   7.359 -0.1247  0.0214 -0.1497
  704loPI   C3A10929  13.584   9.440   7.740 -0.1331  0.0627  0.3253
  704loPI   C4A10930  13.694   9.438   8.168  0.0003 -0.0985 -0.1543
  704loPI   C5A10931  13.655   9.616   8.541  0.0418 -0.0175  0.3022
  704loPI   C6A10932  13.435   9.721   8.761  0.0855  0.1969 -0.0858
  704loPI   C1B10933  13.629   9.955   6.827  0.2883 -0.0543 -0.2241
  704loPI   C2B10934  13.631   9.896   7.272  0.0873 -0.3022 -0.0794
  704loPI   C3B10935  13.585  10.054   7.807  0.1876 -0.0051 -0.1238
  704loPI   C4B10936  13.482   9.973   8.206 -0.0455 -0.0978  0.0283
  705loPI    C110937  12.978   2.804   5.664 -0.0320  0.0934 -0.1332
  705loPI    C210938  13.310   2.668   5.488 -0.1225 -0.1896 -0.0902
  705loPI    C310939  13.094   2.955   5.312  0.2061  0.0825 -0.0607
  705loPI   PO410940  12.996   2.851   5.909 -0.0155 -0.0420  0.3869
  705loPI   GL110941  13.010   2.577   6.224 -0.0094  0.0883  0.0394
  705loPI   GL210942  13.122   2.343   6.291  0.0743 -0.0042 -0.0999
  705loPI   C1A10943  12.933   2.737   6.593  0.3312 -0.2305 -0.5052
  705loPI   C2A10944  12.944   2.709   7.013  0.1849 -0.0914  0.0168
  705loPI   C3A10945  12.883   2.696   7.453 -0.0271  0.1905  0.1063
  705loPI   C4A10946  12.913   2.741   7.916  0.0640 -0.2095 -0.1874
  705loPI   C5A10947  13.005   2.599   8.314  0.1235  0.2007 -0.0856
  705loPI   C6A10948  12.881   2.594   8.684  0.4896 -0.0404  0.1602
  705loPI   C1B10949  13.081   2.285   6.705 -0.1554 -0.2222 -0.0481
  705loPI   C2B10950  13.096   2.191   7.132  0.0431 -0.0116 -0.1467
  705loPI   C3B10951  13.047   2.206   7.547  0.0058  0.3045 -0.0475
  705loPI   C4B10952  13.104   2.212   7.993 -0.0519  0.1477  0.2102
  706loPI    C110953   3.420   6.495   5.510 -0.1460 -0.2198 -0.3116
  706loPI    C210954   3.754   6.529   5.292  0.1442 -0.3133  0.1071
  706loPI    C310955   3.516   6.846   5.344  0.2912 -0.1842  0.0010
  706loPI   PO410956   3.398   6.424   5.760 -0.1662 -0.0554 -0.0019
  706loPI   GL110957   3.422   6.482   6.234 -0.1186 -0.0937  0.0683
  706loPI   GL210958   3.530   6.173   6.323  0.1825 -0.0406 -0.2617
  706loPI   C1A10959   3.414   6.502   6.692 -0.2484 -0.3726  0.0796
  706loPI   C2A10960   3.398   6.404   7.105 -0.0547 -0.2687 -0.0943
  706loPI   C3A10961   3.393   6.458   7.487  0.2793  0.3417 -0.1863
  706loPI   C4A10962   3.338   6.477   7.857 -0.4586 -0.1108 -0.1076
  706loPI   C5A10963   3.335   6.414   8.242  0.2055 -0.1364 -0.2755
  706loPI   C6A10964   3.213   6.156   8.601 -0.1017 -0.0021 -0.0890
  706loPI   C1B10965   3.538   6.037   6.835 -0.0251  0.2571  0.2163
  706loPI   C2B10966   3.489   5.907   7.194  0.0323 -0.0171  0.1700
  706loPI   C3B10967   3.527   5.934   7.592 -0.0762  0.0945 -0.0240
  706loPI   C4B10968   3.507   5.958   8.038  0.3431  0.0647  0.0984
  707loPI    C110969   5.958  10.866   6.027  0.1469 -0.0318 -0.1997
  707loPI    C210970   5.879  11.049   5.679 -0.0637  0.1132 -0.0779
  707loPI    C310971   5.953  10.656   5.686 -0.0447  0.1120 -0.2879
  707loPI   PO410972   6.061  10.938   6.138 -0.1013 -0.3079 -0.0200
  707loPI   GL110973   6.207  10.774   6.490 -0.0630  0.0622  0.1098
  707loPI   GL210974   6.050  10.501   6.611  0.2257 -0.1038  0.0975
  707loPI   C1A10975   6.451  10.820   6.806  0.1516 -0.0370  0.0403
  707loPI   C2A10976   6.448  10.841   7.261 -0.2557 -0.4206  0.2965
  707loPI   C3A10977   6.406  10.835   7.735 -0.0007  0.1040 -0.0516
  707loPI   C4A10978   6.433  10.812   8.180 -0.1843  0.0810 -0.0212
  707loPI   C5A10979   6.289  10.767   8.589 -0.0204 -0.2361  0.1382
  707loPI   C6A10980   6.495  10.693   9.018  0.1103 -0.0438  0.0678
  707loPI   C1B10981   6.079  10.435   7.094  0.0954 -0.0965 -0.1739
  707loPI   C2B10982   6.106  10.446   7.476  0.2552  0.1226 -0.3629
  707loPI   C3B10983   6.080  10.531   7.907 -0.2131  0.0333  0.0501
  707loPI   C4B10984   6.098  10.426   8.282 -0.1331 -0.2168 -0.1977
  708loPI    C110985  12.861  10.082   5.678 -0.1069 -0.0630  0.0647
  708loPI    C210986  12.653  10.410   5.773  0.1495  0.1425 -0.0738
  708loPI    C310987  12.569  10.210   5.437 -0.1794 -0.0870  0.1390
  708loPI   PO410988  13.035  10.137   5.749  0.2210  0.1245  0.0136
  708loPI   GL110989  13.078  10.105   6.180 -0.0647 -0.0965  0.0035
  708loPI   GL210990  12.757  10.168   6.240 -0.0109  0.1654 -0.0681
  708loPI   C1A10991  13.160  10.054   6.637 -0.2335  0.0103  0.0343
  708loPI   C2A10992  13.144  10.039   7.081  0.5193  0.0069 -0.3125
  708loPI   C3A10993  13.059  10.076   7.551 -0.3166 -0.1969  0.0617
  708loPI   C4A10994  13.016  10.118   7.982  0.2928  0.0952 -0.3255
  708loPI   C5A10995  12.917  10.263   8.411  0.0768  0.1022  0.0776
  708loPI   C6A10996  12.826  10.478   8.750  0.1359 -0.0677  0.2133
  708loPI   C1B10997  12.700  10.158   6.623  0.1246  0.3700  0.1568
  708loPI   C2B10998  12.621  10.135   7.084 -0.1014 -0.1597  0.1006
  708loPI   C3B10999  12.503  10.152   7.476 -0.2375 -0.1655 -0.1170
  708loPI   C4B11000  12.528  10.306   7.881 -0.0240  0.1185 -0.0413
  709loPI    C111001   3.370   9.415   5.405 -0.1839  0.1849  0.1935
  709loPI    C211002   2.985   9.479   5.313 -0.1117  0.1059 -0.1813
  709loPI    C311003   3.177   9.163   5.161 -0.0497 -0.1777  0.4541
  709loPI   PO411004   3.406   9.407   5.747 -0.0615 -0.0148  0.0856
  709loPI   GL111005   3.255   9.376   6.125 -0.0828  0.0828  0.0539
  709loPI   GL211006   3.521   9.519   6.308  0.1133  0.3542 -0.1309
  709loPI   C1A11007   3.232   9.299   6.602 -0.0371  0.0670  0.0062
  709loPI   C2A11008   3.149   9.405   7.035 -0.1284 -0.2442  0.0440
  709loPI   C3A11009   3.264   9.448   7.435 -0.0705 -0.2749  0.0270
  709loPI   C4A11010   3.141   9.385   7.889  0.1986  0.0119  0.2352
  709loPI   C5A11011   3.227   9.380   8.345  0.0525 -0.3797 -0.1219
  709loPI   C6A11012   3.516   9.288   8.697  0.0355  0.2737  0.0390
  709loPI   C1B11013   3.539   9.720   6.683  0.1904 -0.0799 -0.1108
  709loPI   C2B11014   3.501   9.785   7.095  0.0297  0.2480  0.0873
  709loPI   C3B11015   3.606   9.723   7.595 -0.0482  0.1965  0.3059
  709loPI   C4B11016   3.600   9.713   8.037 -0.2987  0.1973 -0.0126
  710loPI    C111017  14.717  12.274   5.529  0.2625  0.2095 -0.0568
  710loPI    C211018  14.321  12.228   5.505  0.2806 -0.0701  0.1244
  710loPI    C311019  14.493  12.562   5.366 -0.0061  0.0124 -0.0413
  710loPI   PO411020  14.802  12.189   5.859  0.1823 -0.2750 -0.1983
  710loPI   GL111021  14.609  12.226   6.232 -0.0930  0.2504 -0.1882
  710loPI   GL211022  14.645  12.555   6.357 -0.1119  0.0342 -0.2591
  710loPI   C1A11023  14.374  12.133   6.623  0.2251 -0.2795  0.2550
  710loPI   C2A11024  14.432  12.003   7.017  0.4517 -0.1728 -0.0418
  710loPI   C3A11025  14.502  12.070   7.456  0.0192 -0.1303  0.1651
  710loPI   C4A11026  14.513  12.053   7.849 -0.1869  0.1806  0.1409
  710loPI   C5A11027  14.459  12.027   8.244 -0.2823  0.1194 -0.0897
  710loPI   C6A11028  14.586  12.186   8.627  0.3138  0.1410  0.0825
  710loPI   C1B11029  14.701  12.446   6.819  0.0368  0.3200  0.0569
  710loPI   C2B11030  14.773  12.408   7.214 -0.2078  0.1292 -0.3642
  710loPI   C3B11031  14.856  12.436   7.609  0.1281 -0.0690  0.0178
  710loPI   C4B11032  14.809  12.358   8.076 -0.2938 -0.2662 -0.2769
  711loPI    C111033  12.994  11.609   5.764  0.0172  0.2091  0.0207
  711loPI    C211034  13.362  11.624   5.607  0.0654 -0.1672  0.0899
  711loPI    C311035  13.056  11.490   5.387 -0.0221  0.0929  0.0506
  711loPI   PO411036  13.014  11.580   6.073 -0.2580  0.0142  0.2753
  711loPI   GL111037  13.151  11.435   6.372 -0.0935  0.1679 -0.1984
  711loPI   GL211038  12.995  11.479   6.598 -0.0599 -0.0811 -0.0505
  711loPI   C1A11039  13.451  11.618   6.497  0.1217 -0.1224  0.3530
  711loPI   C2A11040  13.607  11.778   6.807 -0.2807  0.0478 -0.2230
  711loPI   C3A11041  13.515  11.762   7.137 -0.1469 -0.0944  0.0844
  711loPI   C4A11042  13.575  11.797   7.634  0.0774 -0.2249 -0.5546
  711loPI   C5A11043  13.529  11.813   8.080 -0.0990  0.1251  0.0981
  711loPI   C6A11044  13.623  11.746   8.508  0.3264  0.1448 -0.4190
  711loPI   C1B11045  13.256  11.385   6.901  0.3555 -0.1355 -0.2729
  711loPI   C2B11046  13.162  11.408   7.366 -0.0083 -0.2916  0.0851
  711loPI   C3B11047  13.158  11.532   7.834 -0.3369 -0.0562 -0.0042
  711loPI   C4B11048  13.182  11.494   8.304 -0.0423  0.0570 -0.0271
  712loPI    C111049   9.226   0.226   5.884 -0.1899 -0.0920 -0.0726
  712loPI    C211050   9.023   0.519   5.703  0.1943  0.2368  0.0140
  712loPI    C311051   9.237   0.260   5.486 -0.0748  0.0690 -0.0566
  712loPI   PO411052   9.166   0.289   6.115 -0.0513  0.0668 -0.2108
  712loPI   GL111053   8.868   0.263   6.387  0.1559 -0.0514  0.2271
  712loPI   GL211054   8.560   0.135   6.456  0.0679 -0.1086 -0.2835
  712loPI   C1A11055   9.004   0.459   6.774 -0.0912 -0.0375  0.0367
  712loPI   C2A11056   8.975   0.579   7.185  0.3596 -0.0824 -0.0411
  712loPI   C3A11057   9.008   0.555   7.634 -0.1498 -0.1069 -0.0215
  712loPI   C4A11058   9.011   0.457   8.080  0.0235  0.0881 -0.0928
  712loPI   C5A11059   9.059   0.582   8.543  0.1939 -0.2458 -0.0572
  712loPI   C6A11060   9.088   1.023   8.698 -0.0048 -0.1015  0.1845
  712loPI   C1B11061   8.544   0.121   6.829 -0.0781 -0.3372  0.0403
  712loPI   C2B11062   8.534   0.141   7.206  0.0242  0.4116 -0.3575
  712loPI   C3B11063   8.683   0.122   7.533 -0.0001  0.6054  0.0133
  712loPI   C4B11064   8.650   0.067   7.974  0.1557  0.0576  0.2262
  713loPI    C111065   0.031   6.045   5.563 -0.0359  0.0761 -0.1251
  713loPI    C211066   0.109   5.669   5.452 -0.2221 -0.0036  0.0086
  713loPI    C311067   0.158   5.968   5.191  0.1790 -0.0883 -0.0205
  713loPI   PO411068   0.083   6.100   5.799  0.0334 -0.4180  0.0790
  713loPI   GL111069  -0.047   5.856   6.137  0.3272  0.0561  0.2586
  713loPI   GL211070   0.220   5.840   6.259  0.0507 -0.1108  0.1893
  713loPI   C1A11071  -0.224   5.909   6.482 -0.2440  0.1141  0.0778
  713loPI   C2A11072  -0.283   5.936   6.826 -0.0369 -0.0544 -0.1091
  713loPI   C3A11073  -0.387   5.906   7.239  0.1952  0.3243 -0.0622
  713loPI   C4A11074  -0.273   5.856   7.596 -0.1310 -0.0038  0.0273
  713loPI   C5A11075  -0.413   5.945   7.977 -0.0434 -0.1171  0.2642
  713loPI   C6A11076  -0.580   5.801   8.379  0.0664 -0.0896  0.3955
  713loPI   C1B11077   0.173   5.776   6.780  0.2850 -0.0317 -0.2148
  713loPI   C2B11078   0.191   5.704   7.173  0.1049 -0.1505  0.0158
  713loPI   C3B11079   0.219   5.718   7.583  0.0651  0.0230 -0.1077
  713loPI   C4B11080   0.131   5.865   8.014 -0.1320  0.0603 -0.1248
  714loPI    C111081   9.913  11.571   5.541 -0.1354 -0.0856 -0.1691
  714loPI    C211082   9.541  11.492   5.416 -0.0743 -0.1394 -0.3196
  714loPI    C311083   9.767  11.756   5.217 -0.1933  0.2459  0.0411
  714loPI   PO411084   9.877  11.513   5.856 -0.2061 -0.0397  0.0984
  714loPI   GL111085   9.851  11.331   6.268  0.2326 -0.0404 -0.2815
  714loPI   GL211086   9.522  11.323   6.320 -0.1070  0.0053 -0.0514
  714loPI   C1A11087   9.992  11.269   6.609 -0.6227 -0.0427 -0.1186
  714loPI   C2A11088   9.939  11.266   7.018 -0.0346  0.2713 -0.0936
  714loPI   C3A11089   9.943  11.309   7.495 -0.1736  0.0433  0.0080
  714loPI   C4A11090   9.985  11.408   7.921  0.0559 -0.0444 -0.1673
  714loPI   C5A11091   9.903  11.699   8.239 -0.0063 -0.2034  0.1783
  714loPI   C6A11092   9.894  11.942   8.606  0.3412 -0.1303 -0.0892
  714loPI   C1B11093   9.559  11.430   6.708  0.0995 -0.1358 -0.0518
  714loPI   C2B11094   9.469  11.433   7.186  0.1718  0.1841 -0.0369
  714loPI   C3B11095   9.411  11.491   7.642  0.0215 -0.0145  0.0378
  714loPI   C4B11096   9.437  11.504   8.101  0.1349  0.0167 -0.2138
  715loPI    C111097   3.984  12.066   5.659 -0.1615 -0.0637 -0.0759
  715loPI    C211098   4.313  12.229   5.500 -0.1107 -0.1157 -0.0245
  715loPI    C311099   4.019  12.099   5.261 -0.2247  0.2009 -0.0608
  715loPI   PO411100   4.026  12.110   5.909  0.2062  0.2804  0.3037
  715loPI   GL111101   3.874  12.204   6.326  0.4051  0.0136  0.0978
  715loPI   GL211102   3.806  12.005   6.609  0.0080 -0.1598 -0.0740
  715loPI   C1A11103   4.158  12.316   6.748 -0.0812  0.1737 -0.3138
  715loPI   C2A11104   4.172  12.381   7.238  0.3275 -0.2078  0.0406
  715loPI   C3A11105   4.150  12.284   7.666 -0.2009  0.1736 -0.0231
  715loPI   C4A11106   4.166  12.437   8.091  0.1410  0.2538  0.0787
  715loPI   C5A11107   4.164  12.394   8.438  0.1894  0.1056  0.3121
  715loPI   C6A11108   4.093  12.574   8.829 -0.0646  0.1007  0.0342
  715loPI   C1B11109   3.853  11.911   7.047 -0.3100  0.2237  0.1702
  715loPI   C2B11110   3.837  11.955   7.480  0.2832 -0.1098  0.0064
  715loPI   C3B11111   3.870  11.924   7.875 -0.0633 -0.1575  0.0367
  715loPI   C4B11112   3.824  11.996   8.280 -0.1634 -0.2728  0.1686
  716loPI    C111113   8.245  16.161   5.623 -0.0685 -0.2091 -0.1921
  716loPI    C211114   8.077  15.801   5.672  0.0308 -0.2353 -0.0400
  716loPI    C311115   8.369  15.851   5.403 -0.0798 -0.2357 -0.1609
  716loPI   PO411116   8.162  16.251   5.907  0.0991  0.1036  0.0745
  716loPI   GL111117   7.887  16.223   6.361 -0.2974  0.1681 -0.0001
  716loPI   GL211118   7.614  16.057   6.467 -0.2260 -0.0648 -0.2034
  716loPI   C1A11119   8.007  16.349   6.748 -0.0685  0.0282 -0.0291
  716loPI   C2A11120   7.946  16.384   7.180  0.0537  0.0242  0.0115
  716loPI   C3A11121   8.033  16.385   7.602 -0.0089  0.1459 -0.0679
  716loPI   C4A11122   8.059  16.372   8.014  0.2178 -0.3261  0.0233
  716loPI   C5A11123   8.224  16.264   8.465 -0.1716  0.1103 -0.1653
  716loPI   C6A11124   8.110  15.885   8.702  0.4098 -0.0561  0.0899
  716loPI   C1B11125   7.598  16.086   6.918 -0.0100  0.1735  0.4336
  716loPI   C2B11126   7.629  16.098   7.422  0.1292  0.0286  0.0072
  716loPI   C3B11127   7.702  16.011   7.874  0.0420 -0.3659  0.0948
  716loPI   C4B11128   7.830  15.940   8.316 -0.1713 -0.1795 -0.2619
  717loPI    C111129  14.231  10.932   5.712  0.1406  0.0628 -0.1242
  717loPI    C211130  13.933  10.849   5.458 -0.0641  0.0825  0.1063
  717loPI    C311131  14.258  10.615   5.468 -0.1281 -0.0152 -0.0553
  717loPI   PO411132  14.116  11.046   5.940  0.0321 -0.2055  0.0882
  717loPI   GL111133  14.114  11.174   6.281 -0.3376 -0.2339 -0.2212
  717loPI   GL211134  13.797  11.308   6.362  0.1473  0.0696 -0.1120
  717loPI   C1A11135  14.269  11.190   6.620 -0.2207  0.0437 -0.0190
  717loPI   C2A11136  14.166  11.131   7.076  0.4902  0.0067  0.0432
  717loPI   C3A11137  14.222  11.194   7.408  0.2499  0.2219  0.0462
  717loPI   C4A11138  14.128  11.240   7.829  0.0967  0.0182 -0.2457
  717loPI   C5A11139  14.059  11.016   8.167  0.0220 -0.0352  0.0299
  717loPI   C6A11140  13.737  10.747   8.312 -0.1765  0.0156 -0.1336
  717loPI   C1B11141  13.761  11.319   6.767  0.0613  0.1050  0.0949
  717loPI   C2B11142  13.685  11.241   7.216 -0.0946 -0.1558 -0.0606
  717loPI   C3B11143  13.646  11.269   7.595 -0.0790 -0.1358 -0.0190
  717loPI   C4B11144  13.654  11.365   8.012 -0.1873 -0.0689  0.0022
  718loPI    C111145  16.234   3.396   5.574  0.0688  0.2111 -0.2270
  718loPI    C211146  16.015   3.595   5.305 -0.2162  0.1228 -0.0646
  718loPI    C311147  16.007   3.196   5.312  0.1422  0.1095 -0.2138
  718loPI   PO411148  16.184   3.593   5.783 -0.1801  0.3773 -0.0420
  718loPI   GL111149  16.178   3.695   6.208 -0.2244 -0.2614  0.1616
  718loPI   GL211150  16.311   3.495   6.287 -0.0067 -0.0592  0.0045
  718loPI   C1A11151  15.877   3.788   6.557 -0.0555  0.0921 -0.3040
  718loPI   C2A11152  15.817   3.795   6.966 -0.0161 -0.1461 -0.1841
  718loPI   C3A11153  15.904   3.810   7.373  0.1163 -0.0225  0.3099
  718loPI   C4A11154  15.994   3.863   7.814 -0.3470  0.2146 -0.2487
  718loPI   C5A11155  16.051   3.856   8.214 -0.1944 -0.0429  0.2094
  718loPI   C6A11156  16.307   3.624   8.449 -0.0237  0.0772 -0.1182
  718loPI   C1B11157  16.382   3.755   6.686 -0.0076  0.3341  0.0012
  718loPI   C2B11158  16.467   3.789   7.081  0.0527  0.3828  0.0938
  718loPI   C3B11159  16.464   3.774   7.493 -0.1191 -0.0141 -0.1144
  718loPI   C4B11160  16.488   3.891   7.888 -0.0269 -0.2837 -0.0259
  719loPI    C111161  14.893  14.522   5.305 -0.1621 -0.2764  0.0745
  719loPI    C211162  14.839  14.806   5.029 -0.2295 -0.2794  0.0844
  719loPI    C311163  15.118  14.525   4.974  0.0596 -0.0260  0.2237
  719loPI   PO411164  14.928  14.690   5.583  0.0800 -0.1307  0.0893
  719loPI   GL111165  15.167  14.742   5.996 -0.0501  0.2086 -0.0312
  719loPI   GL211166  15.526  14.581   6.062  0.1418  0.2687  0.2910
  719loPI   C1A11167  15.123  14.671   6.378  0.1841  0.1325 -0.2945
  719loPI   C2A11168  15.122  14.700   6.871  0.0418  0.1600 -0.1981
  719loPI   C3A11169  15.113  14.638   7.283  0.0168  0.2272  0.1003
  719loPI   C4A11170  15.094  14.655   7.672 -0.0199 -0.2698  0.1145
  719loPI   C5A11171  15.244  14.718   8.081  0.0083  0.2086 -0.0171
  719loPI   C6A11172  15.366  14.640   8.549  0.0428  0.1698 -0.1125
  719loPI   C1B11173  15.662  14.590   6.443  0.0731 -0.3104  0.0250
  719loPI   C2B11174  15.657  14.612   6.877 -0.1800 -0.0017 -0.0263
  719loPI   C3B11175  15.659  14.525   7.298  0.2616  0.2771  0.0514
  719loPI   C4B11176  15.591  14.521   7.682 -0.3231 -0.0344 -0.0553
  720loPI    C111177  11.183  16.181   5.703  0.1976 -0.0796  0.1754
  720loPI    C211178  11.546  16.236   5.543  0.1815  0.1362  0.2088
  720loPI    C311179  11.218  16.325   5.331  0.1514  0.0987  0.2391
  720loPI   PO411180  11.260  16.110   5.924 -0.3940 -0.5890  0.0796
  720loPI   GL111181  11.220  16.277   6.301  0.1341 -0.1208  0.0431
  720loPI   GL211182  11.276  16.532   6.334 -0.1131 -0.2544 -0.1893
  720loPI   C1A11183  10.924  16.179   6.591  0.2002  0.1427  0.0585
  720loPI   C2A11184  10.908  16.179   7.060 -0.1690  0.0103 -0.0853
  720loPI   C3A11185  10.929  16.128   7.534  0.1242  0.2417  0.0782
  720loPI   C4A11186  10.936  16.190   7.897  0.1171  0.1392 -0.1088
  720loPI   C5A11187  11.023  16.139   8.331 -0.0609  0.1207  0.0510
  720loPI   C6A11188  10.975  15.924   8.825 -0.0086  0.4265  0.4079
  720loPI   C1B11189  11.230  16.497   6.758 -0.0701 -0.1329 -0.1550
  720loPI   C2B11190  11.279  16.517   7.172  0.1715  0.0237  0.2120
  720loPI   C3B11191  11.273  16.509   7.649  0.0375 -0.1256  0.0345
  720loPI   C4B11192  11.193  16.568   8.068 -0.1169 -0.0166 -0.0457
  721loPI    C111193  15.067   4.053   5.637  0.0977  0.0246  0.0611
  721loPI    C211194  14.864   3.723   5.537  0.0332  0.0007  0.2677
  721loPI    C311195  14.834   4.051   5.311  0.1210 -0.1429  0.0441
  721loPI   PO411196  15.007   4.096   5.889  0.1159  0.1030 -0.2923
  721loPI   GL111197  14.995   3.996   6.383 -0.0721  0.0687 -0.1689
  721loPI   GL211198  15.176   4.228   6.412 -0.0002 -0.1878 -0.1256
  721loPI   C1A11199  14.877   4.036   6.835  0.1005 -0.0695  0.3610
  721loPI   C2A11200  14.862   4.094   7.289 -0.0639 -0.1421  0.0950
  721loPI   C3A11201  14.824   4.051   7.737 -0.2393  0.0562  0.1624
  721loPI   C4A11202  14.865   4.068   8.121 -0.0179 -0.1059  0.1189
  721loPI   C5A11203  15.110   3.924   8.390  0.0121 -0.0359  0.0801
  721loPI   C6A11204  15.408   3.699   8.663  0.4306  0.1730 -0.2003
  721loPI   C1B11205  15.186   4.429   6.833 -0.3899 -0.0820 -0.0544
  721loPI   C2B11206  15.280   4.483   7.349 -0.1065  0.0017 -0.2378
  721loPI   C3B11207  15.328   4.416   7.758  0.0660 -0.2066 -0.2491
  721loPI   C4B11208  15.276   4.435   8.184 -0.0962 -0.1002 -0.0212
  722loPI    C111209   1.036   0.815   5.574  0.0530  0.0915 -0.0417
  722loPI    C211210   1.073   0.770   5.178  0.0105  0.0125 -0.0370
  722loPI    C311211   0.711   0.823   5.341  0.0053 -0.1674  0.0123
  722loPI   PO411212   1.197   1.006   5.687  0.3304 -0.3763 -0.1033
  722loPI   GL111213   1.449   0.913   5.964 -0.0062  0.1472  0.2241
  722loPI   GL211214   1.183   0.953   6.256 -0.0902  0.0894  0.0435
  722loPI   C1A11215   1.645   0.883   6.273  0.0487  0.0999  0.0946
  722loPI   C2A11216   1.723   0.848   6.735 -0.3190 -0.0581 -0.0438
  722loPI   C3A11217   1.805   0.792   7.166 -0.0308 -0.0355 -0.2564
  722loPI   C4A11218   1.811   0.696   7.616 -0.1881  0.1883 -0.0594
  722loPI   C5A11219   1.769   0.750   8.009  0.1712  0.0937 -0.1806
  722loPI   C6A11220   1.605   0.551   8.416  0.2002 -0.1288 -0.1646
  722loPI   C1B11221   1.219   0.911   6.698 -0.2151  0.5787  0.1377
  722loPI   C2B11222   1.271   0.913   7.056 -0.1705  0.3447  0.0602
  722loPI   C3B11223   1.354   0.881   7.408  0.0519 -0.2437  0.1681
  722loPI   C4B11224   1.297   0.976   7.842 -0.2898  0.0320 -0.0076
  723loPI    C111225   5.561   8.046   5.865 -0.1354  0.1173 -0.1528
  723loPI    C211226   5.696   7.827   5.560 -0.2659  0.0826 -0.1863
  723loPI    C311227   5.729   8.225   5.550  0.1177  0.0581 -0.0535
  723loPI   PO411228   5.674   7.935   6.044  0.1234 -0.0499  0.1564
  723loPI   GL111229   5.622   7.745   6.323  0.3478  0.3686 -0.1195
  723loPI   GL211230   5.335   7.896   6.581  0.0422  0.0129 -0.1670
  723loPI   C1A11231   5.801   7.681   6.722 -0.0248 -0.1148  0.0104
  723loPI   C2A11232   5.862   7.680   7.080 -0.0351 -0.2186 -0.1277
  723loPI   C3A11233   5.807   7.699   7.573 -0.2026 -0.2187 -0.0460
  723loPI   C4A11234   5.908   7.751   7.955  0.2022 -0.4997 -0.3367
  723loPI   C5A11235   5.834   7.843   8.341  0.5059  0.0444  0.1303
  723loPI   C6A11236   5.814   8.282   8.527  0.5614  0.1106 -0.3026
  723loPI   C1B11237   5.365   7.790   7.004 -0.1122 -0.0226  0.1190
  723loPI   C2B11238   5.298   7.804   7.402 -0.1821  0.3633 -0.0535
  723loPI   C3B11239   5.306   7.836   7.883 -0.1480 -0.0861 -0.0956
  723loPI   C4B11240   5.314   7.786   8.354  0.2313 -0.0977 -0.1887
  724loPI    C111241   1.302   6.662   5.906 -0.2630 -0.0993 -0.0136
  724loPI    C211242   1.033   6.590   5.619 -0.1251  0.0272 -0.1765
  724loPI    C311243   1.389   6.409   5.609 -0.1438 -0.0176 -0.0490
  724loPI   PO411244   1.172   6.577   6.107 -0.2073  0.0694  0.0103
  724loPI   GL111245   1.014   6.717   6.375  0.0011  0.0727 -0.3462
  724loPI   GL211246   1.238   7.009   6.556  0.1791 -0.2456  0.0171
  724loPI   C1A11247   0.918   6.483   6.773  0.2020  0.0416  0.2085
  724loPI   C2A11248   0.746   6.515   7.301 -0.0671  0.1202 -0.0810
  724loPI   C3A11249   1.081   6.646   7.754  0.0343  0.0837 -0.1326
  724loPI   C4A11250   1.109   6.696   8.180 -0.0935  0.1129  0.0269
  724loPI   C5A11251   1.400   6.787   8.335  0.3843 -0.0937  0.2253
  724loPI   C6A11252   1.557   6.833   8.742 -0.3398 -0.2447 -0.0656
  724loPI   C1B11253   1.232   7.020   7.007 -0.2211  0.2206 -0.2406
  724loPI   C2B11254   1.367   7.050   7.508 -0.2966 -0.1108 -0.0123
  724loPI   C3B11255   1.438   7.058   7.865 -0.0307 -0.1238 -0.2560
  724loPI   C4B11256   1.577   7.251   8.340 -0.2536 -0.1882 -0.2148
  725loPI    C111257  13.333  10.735   5.546  0.1024 -0.0674  0.2341
  725loPI    C211258  13.337  10.364   5.397 -0.1450  0.0019  0.0498
  725loPI    C311259  12.989  10.556   5.447 -0.0101  0.2572  0.0226
  725loPI   PO411260  13.519  10.712   5.778 -0.1460  0.0885  0.0328
  725loPI   GL111261  13.470  10.940   6.205 -0.1479  0.0498 -0.2069
  725loPI   GL211262  13.763  10.821   6.214  0.1116 -0.1217  0.0983
  725loPI   C1A11263  13.422  10.989   6.570  0.0162 -0.2468  0.1358
  725loPI   C2A11264  13.366  10.908   7.017  0.1025  0.1985 -0.0502
  725loPI   C3A11265  13.331  10.939   7.407  0.0811  0.3806  0.1719
  725loPI   C4A11266  13.284  11.047   7.850 -0.3366  0.2036  0.1332
  725loPI   C5A11267  13.386  11.036   8.245  0.0094 -0.3769 -0.2850
  725loPI   C6A11268  13.584  11.098   8.645  0.0893 -0.3719 -0.2519
  725loPI   C1B11269  13.930  10.813   6.647 -0.1263  0.0025 -0.0353
  725loPI   C2B11270  13.828  10.768   7.016 -0.1407 -0.0482 -0.1234
  725loPI   C3B11271  13.885  10.864   7.492  0.2613  0.1416 -0.0869
  725loPI   C4B11272  13.722  10.782   7.837 -0.2008 -0.1483  0.1289
  726loPI    C111273   6.809   4.376   5.612  0.0032 -0.0202  0.1782
  726loPI    C211274   6.510   4.121   5.685 -0.0044  0.0046  0.2344
  726loPI    C311275   6.516   4.331   5.344 -0.0593  0.0157  0.2401
  726loPI   PO411276   6.806   4.495   5.847 -0.2117 -0.1416  0.0102
  726loPI   GL111277   6.666   4.626   6.252 -0.1153 -0.0258 -0.2737
  726loPI   GL211278   6.959   4.429   6.331  0.1416 -0.2152 -0.0813
  726loPI   C1A11279   6.416   4.327   6.518 -0.0412 -0.1288  0.3490
  726loPI   C2A11280   6.335   4.364   6.933 -0.1077  0.1123 -0.2127
  726loPI   C3A11281   6.467   4.237   7.417 -0.1948  0.2413  0.1628
  726loPI   C4A11282   6.247   4.365   7.861 -0.0141  0.1039 -0.3075
  726loPI   C5A11283   6.507   4.326   8.238 -0.1393 -0.0272  0.0050
  726loPI   C6A11284   6.910   4.514   8.457  0.0253 -0.4342 -0.3058
  726loPI   C1B11285   6.902   4.147   6.681  0.1478 -0.0106  0.1378
  726loPI   C2B11286   6.539   3.870   6.931 -0.0259  0.1360  0.1236
  726loPI   C3B11287   6.460   3.751   7.279  0.1907 -0.1473  0.0281
  726loPI   C4B11288   6.443   3.775   7.703  0.0030 -0.1455  0.0137
  727loPI    C111289  17.324  15.483   5.650  0.1289  0.0156 -0.0998
  727loPI    C211290  17.564  15.611   5.356  0.0212 -0.0849 -0.2329
  727loPI    C311291  17.318  15.301   5.294  0.0682 -0.1702 -0.0056
  727loPI   PO411292  17.455  15.432   5.841  0.0736 -0.0236  0.0562
  727loPI   GL111293  17.479  15.490   6.274 -0.0033 -0.1458 -0.0166
  727loPI   GL211294  17.729  15.466   6.300 -0.0952 -0.2540  0.0920
  727loPI   C1A11295  17.276  15.438   6.580 -0.2908  0.2243 -0.2588
  727loPI   C2A11296  17.280  15.434   6.964  0.1537  0.0176 -0.1985
  727loPI   C3A11297  17.299  15.557   7.351 -0.0332 -0.0853 -0.1081
  727loPI   C4A11298  17.140  15.598   7.833  0.1414 -0.0250 -0.0717
  727loPI   C5A11299  16.896  15.662   8.186  0.2149  0.1255  0.0312
  727loPI   C6A11300  16.836  15.943   8.584  0.0971  0.0389 -0.0596
  727loPI   C1B11301  17.752  15.355   6.735 -0.0555  0.0878  0.3236
  727loPI   C2B11302  17.721  15.333   7.144  0.2272 -0.1317  0.1360
  727loPI   C3B11303  17.688  15.408   7.612  0.1294 -0.1305 -0.0561
  727loPI   C4B11304  17.842  15.499   8.050 -0.0026 -0.1059  0.0632
  728loPI    C111305  12.446   9.297   5.702 -0.1586  0.1154  0.1503
  728loPI    C211306  12.447   8.928   5.547  0.2995  0.0549  0.2830
  728loPI    C311307  12.501   9.245   5.309 -0.0393  0.0362  0.1767
  728loPI   PO411308  12.591   9.315   5.828 -0.0186 -0.1015  0.0636
  728loPI   GL111309  12.632   9.274   6.294 -0.2336  0.0115 -0.2020
  728loPI   GL211310  12.768   9.036   6.351 -0.0986  0.1272  0.0187
  728loPI   C1A11311  12.474   9.298   6.701  0.0858  0.2278  0.1790
  728loPI   C2A11312  12.381   9.266   7.131  0.2829  0.2779 -0.0214
  728loPI   C3A11313  12.354   9.258   7.553  0.0456 -0.0720  0.2296
  728loPI   C4A11314  12.283   9.330   7.954 -0.2499  0.0532 -0.0777
  728loPI   C5A11315  12.327   9.434   8.390  0.1289  0.1474 -0.0416
  728loPI   C6A11316  12.322   9.528   8.793  0.0365 -0.3149  0.2003
  728loPI   C1B11317  12.948   9.171   6.795 -0.2075  0.2693 -0.0623
  728loPI   C2B11318  12.888   9.113   7.285 -0.0327  0.1738  0.1374
  728loPI   C3B11319  12.811   9.171   7.787  0.1094 -0.0428  0.0498
  728loPI   C4B11320  12.804   9.327   8.244  0.3720  0.1304 -0.0709
  729loPI    C111321   8.057  14.979   5.499 -0.0822 -0.0366 -0.0776
  729loPI    C211322   8.269  15.318   5.481 -0.0279 -0.0703 -0.0719
  729loPI    C311323   8.270  15.065   5.171  0.0505 -0.1362 -0.0181
  729loPI   PO411324   8.119  14.815   5.760  0.1395 -0.1233 -0.0326
  729loPI   GL111325   8.131  14.722   6.198 -0.2063  0.2404  0.2184
  729loPI   GL211326   8.018  14.970   6.222  0.1047 -0.0310 -0.2526
  729loPI   C1A11327   8.168  14.542   6.589  0.1342  0.1813  0.0995
  729loPI   C2A11328   8.100  14.578   6.928  0.1939  0.0304  0.0155
  729loPI   C3A11329   8.119  14.653   7.391 -0.0179  0.1294 -0.1574
  729loPI   C4A11330   8.122  14.591   7.809 -0.0401 -0.1090  0.0618
  729loPI   C5A11331   8.037  14.566   8.223  0.2656  0.0010  0.1168
  729loPI   C6A11332   7.736  14.513   8.465 -0.0991 -0.0721  0.0491
  729loPI   C1B11333   7.965  14.993   6.647  0.1505  0.0033  0.0175
  729loPI   C2B11334   7.895  15.063   7.133 -0.1704 -0.3230  0.0960
  729loPI   C3B11335   7.896  15.070   7.615  0.0615  0.0825 -0.0196
  729loPI   C4B11336   8.060  15.089   7.951 -0.0786  0.5103 -0.0052
  730loPI    C111337   4.129   9.947   5.708  0.0983 -0.2495  0.2040
  730loPI    C211338   4.519   9.970   5.622  0.0648 -0.2306  0.0541
  730loPI    C311339   4.249   9.956   5.327 -0.0743  0.1991  0.1532
  730loPI   PO411340   4.168   9.895   5.996 -0.0959  0.0878 -0.0599
  730loPI   GL111341   4.298  10.014   6.429 -0.2068 -0.0359  0.2285
  730loPI   GL211342   4.120   9.640   6.410  0.1115  0.1627 -0.0945
  730loPI   C1A11343   4.418   9.932   6.791 -0.3766 -0.2372 -0.1960
  730loPI   C2A11344   4.447   9.899   7.276  0.4246 -0.3023 -0.3235
  730loPI   C3A11345   4.469   9.960   7.719  0.1797  0.0273 -0.0620
  730loPI   C4A11346   4.457   9.998   8.132 -0.1759 -0.2405 -0.0149
  730loPI   C5A11347   4.280   9.884   8.458  0.1984  0.1763  0.1961
  730loPI   C6A11348   3.932   9.619   8.630 -0.1908  0.1786 -0.1786
  730loPI   C1B11349   4.023   9.565   6.868  0.0567 -0.1169  0.2997
  730loPI   C2B11350   3.987   9.614   7.257  0.0414  0.1433 -0.0890
  730loPI   C3B11351   4.102   9.636   7.679 -0.0448 -0.0857 -0.1537
  730loPI   C4B11352   4.059   9.522   8.115 -0.0740  0.2987 -0.1613
  731loPI    C111353  16.460  16.210   5.668 -0.2143 -0.1458  0.2028
  731loPI    C211354  16.096  16.191   5.504 -0.1308  0.1094 -0.0181
  731loPI    C311355  16.412  16.290   5.279  0.0430  0.0988  0.2182
  731loPI   PO411356  16.431  16.306   5.941 -0.1469 -0.3954  0.0229
  731loPI   GL111357  16.175  16.304   6.353 -0.3913  0.0620 -0.0876
  731loPI   GL211358  16.038  16.104   6.230 -0.2426  0.0849  0.2159
  731loPI   C1A11359  16.098  16.174   6.879  0.1073 -0.0677 -0.0442
  731loPI   C2A11360  16.064  16.155   7.192  0.2997  0.0222 -0.1614
  731loPI   C3A11361  16.074  16.337   7.599 -0.1555  0.3637  0.2061
  731loPI   C4A11362  16.054  16.337   8.048 -0.4100  0.1640  0.1626
  731loPI   C5A11363  16.382  16.242   8.452  0.0281 -0.0331  0.2976
  731loPI   C6A11364  16.650  16.343   8.840 -0.0438  0.0752  0.2785
  731loPI   C1B11365  16.214  15.780   6.528 -0.0514  0.1180 -0.1002
  731loPI   C2B11366  16.249  15.682   6.934 -0.1011 -0.0352  0.1471
  731loPI   C3B11367  16.271  15.733   7.396 -0.1061 -0.0141  0.1514
  731loPI   C4B11368  16.122  15.829   7.824  0.0815 -0.0493 -0.0128
  732loPI    C111369  12.724   2.084   5.873  0.0792  0.0951 -0.1273
  732loPI    C211370  13.028   2.324   5.775  0.1760 -0.0329 -0.1436
  732loPI    C311371  12.707   2.301   5.538  0.0786  0.2293 -0.0409
  732loPI   PO411372  12.764   2.061   6.129 -0.1008 -0.2058 -0.1077
  732loPI   GL111373  12.553   1.896   6.407 -0.1522 -0.0526 -0.1167
  732loPI   GL211374  12.269   2.031   6.555  0.0098 -0.0055 -0.2000
  732loPI   C1A11375  12.719   1.802   6.944  0.0683 -0.3906  0.1525
  732loPI   C2A11376  12.751   1.822   7.337  0.3857  0.2087 -0.0105
  732loPI   C3A11377  12.704   1.878   7.722 -0.0153 -0.1258 -0.1709
  732loPI   C4A11378  12.772   1.948   8.167 -0.0793 -0.1087  0.1329
  732loPI   C5A11379  12.670   2.144   8.461  0.0474  0.0138 -0.0693
  732loPI   C6A11380  12.729   2.124   8.877  0.1607  0.0274 -0.0007
  732loPI   C1B11381  12.243   1.925   6.993  0.0975 -0.1717  0.2027
  732loPI   C2B11382  12.251   1.990   7.447  0.1707 -0.0970  0.2017
  732loPI   C3B11383  12.217   2.000   7.897  0.1328  0.0370 -0.0660
  732loPI   C4B11384  12.234   1.966   8.392  0.0922 -0.4426 -0.2009
  733loPI    C111385  16.239   6.283   5.729 -0.0596 -0.1970  0.0656
  733loPI    C211386  16.223   6.646   5.562  0.0396 -0.2194  0.0068
  733loPI    C311387  16.235   6.319   5.331  0.1652 -0.2508  0.0566
  733loPI   PO411388  16.183   6.341   5.966  0.1098 -0.0281  0.0608
  733loPI   GL111389  16.048   6.517   6.332 -0.2003  0.2115  0.1227
  733loPI   GL211390  16.132   6.884   6.257 -0.0980  0.5227  0.0813
  733loPI   C1A11391  15.962   6.608   6.766 -0.0265  0.2013  0.3536
  733loPI   C2A11392  15.941   6.605   7.195 -0.3526 -0.0011  0.1540
  733loPI   C3A11393  15.960   6.625   7.707  0.2509 -0.1691  0.4141
  733loPI   C4A11394  15.972   6.685   8.129  0.1436  0.0600 -0.2440
  733loPI   C5A11395  16.296   6.905   8.387 -0.0333 -0.2226 -0.1998
  733loPI   C6A11396  16.400   6.981   8.810  0.0520 -0.0258 -0.0591
  733loPI   C1B11397  16.325   6.922   6.576 -0.1452  0.0524 -0.2035
  733loPI   C2B11398  16.243   6.951   6.982 -0.1970  0.1108 -0.2041
  733loPI   C3B11399  16.283   6.990   7.469  0.1733  0.3400 -0.1953
  733loPI   C4B11400  16.215   7.026   7.878 -0.0162 -0.2666 -0.1424
  734loPI    C111401  14.346  16.537   5.571 -0.2833  0.1745 -0.0158
  734loPI    C211402  14.514  16.411   5.230 -0.0379  0.0673  0.1419
  734loPI    C311403  14.120  16.368   5.287 -0.0420 -0.1387 -0.0275
  734loPI   PO411404  14.498  16.441   5.779 -0.0045 -0.2833 -0.0206
  734loPI   GL111405  14.555  16.473   6.209 -0.2034  0.1738  0.0475
  734loPI   GL211406  14.719  16.138   6.300 -0.1135 -0.0058  0.0279
  734loPI   C1A11407  14.547  16.685   6.627  0.2429 -0.1409  0.0537
  734loPI   C2A11408  14.564  16.663   6.994 -0.2338 -0.0991  0.4741
  734loPI   C3A11409  14.501  16.683   7.406 -0.0319  0.1625 -0.1216
  734loPI   C4A11410  14.466  16.638   7.876 -0.3720 -0.2265 -0.3667
  734loPI   C5A11411  14.500  16.658   8.328 -0.3268 -0.1330  0.0313
  734loPI   C6A11412  14.550  16.666   8.842  0.0730 -0.1040  0.4216
  734loPI   C1B11413  14.702  16.205   6.738 -0.0923  0.2174 -0.1674
  734loPI   C2B11414  14.679  16.124   7.195 -0.1073 -0.0724 -0.2829
  734loPI   C3B11415  14.699  16.148   7.618  0.2204  0.1722 -0.2069
  734loPI   C4B11416  14.624  16.097   8.126  0.0355 -0.1914  0.0075
  735loPI    C111417  12.668  15.657   5.843 -0.0564 -0.2154  0.1331
  735loPI    C211418  12.393  15.793   5.587  0.0601 -0.0287  0.1054
  735loPI    C311419  12.757  15.693   5.454 -0.0346 -0.4071  0.1191
  735loPI   PO411420  12.498  15.620   6.048  0.2799 -0.2301 -0.2109
  735loPI   GL111421  12.477  15.864   6.401 -0.0867  0.0304 -0.1221
  735loPI   GL211422  12.139  15.865   6.394  0.0760  0.0424 -0.0176
  735loPI   C1A11423  12.464  15.807   6.806 -0.0670 -0.0933  0.1741
  735loPI   C2A11424  12.457  15.800   7.269  0.0395  0.0237  0.1626
  735loPI   C3A11425  12.505  15.756   7.699  0.2165  0.0456 -0.1358
  735loPI   C4A11426  12.433  15.697   8.062 -0.2157  0.1130 -0.2438
  735loPI   C5A11427  12.353  15.837   8.446  0.0167 -0.2144 -0.1619
  735loPI   C6A11428  12.259  15.676   8.845 -0.0009 -0.1671 -0.2587
  735loPI   C1B11429  12.008  15.976   6.807  0.1312  0.1770 -0.2582
  735loPI   C2B11430  11.975  15.881   7.237 -0.0744  0.0566  0.0674
  735loPI   C3B11431  12.009  15.911   7.656  0.2452  0.1701 -0.2495
  735loPI   C4B11432  11.955  15.975   8.125  0.1544  0.2630 -0.1597
  736loPI    C111433   9.913  14.968   5.802 -0.0528  0.0252  0.1085
  736loPI    C211434  10.235  15.203   5.765 -0.0595  0.0143 -0.0234
  736loPI    C311435   9.969  15.180   5.467 -0.2035  0.0539  0.1008
  736loPI   PO411436  10.033  14.784   6.006  0.0833 -0.3169 -0.2402
  736loPI   GL111437  10.086  14.656   6.409  0.1198  0.1595 -0.0581
  736loPI   GL211438   9.929  15.009   6.517  0.1112 -0.0317 -0.0680
  736loPI   C1A11439  10.035  14.533   6.809 -0.0413 -0.3761  0.1164
  736loPI   C2A11440  10.058  14.557   7.218 -0.1068  0.0297 -0.0807
  736loPI   C3A11441  10.073  14.568   7.662  0.0362 -0.0727 -0.2522
  736loPI   C4A11442   9.927  14.428   8.053 -0.0588 -0.2103 -0.1606
  736loPI   C5A11443  10.005  14.455   8.539  0.1392  0.1329  0.3193
  736loPI   C6A11444  10.133  14.519   8.990  0.1398 -0.4573  0.2306
  736loPI   C1B11445   9.871  15.042   6.960  0.0797 -0.1902  0.1524
  736loPI   C2B11446   9.874  15.057   7.405  0.0388  0.2359 -0.1804
  736loPI   C3B11447   9.863  14.960   7.834  0.2299 -0.0184  0.2080
  736loPI   C4B11448   9.881  14.910   8.187 -0.0683 -0.0574  0.0439
  737loPI    C111449  14.129  15.697   5.638 -0.0517  0.0888  0.0247
  737loPI    C211450  14.348  15.997   5.489 -0.1048  0.0092 -0.2182
  737loPI    C311451  14.019  15.875   5.297  0.0278 -0.3389 -0.2309
  737loPI   PO411452  14.018  15.697   5.870  0.3184  0.2132  0.2372
  737loPI   GL111453  13.929  15.574   6.263  0.1496  0.0550  0.1790
  737loPI   GL211454  14.038  15.420   6.525 -0.1010 -0.1594  0.0232
  737loPI   C1A11455  13.815  15.879   6.581 -0.0186 -0.0635 -0.1520
  737loPI   C2A11456  13.920  15.816   7.016  0.0812 -0.1488 -0.0697
  737loPI   C3A11457  13.899  15.871   7.464  0.0912  0.0883  0.0123
  737loPI   C4A11458  13.813  15.961   7.858 -0.1127 -0.2619  0.2280
  737loPI   C5A11459  13.743  16.023   8.273  0.0763  0.0479  0.2401
  737loPI   C6A11460  13.805  15.972   8.640 -0.0611 -0.1113 -0.2684
  737loPI   C1B11461  13.963  15.314   6.932 -0.0970 -0.0861  0.1924
  737loPI   C2B11462  14.051  15.341   7.419  0.1510  0.0924 -0.0288
  737loPI   C3B11463  14.008  15.456   7.886  0.0067  0.0284 -0.3218
  737loPI   C4B11464  13.856  15.484   8.286  0.2333  0.2044 -0.1089
  738loPI    C111465   8.954  12.109   5.528  0.0049  0.1227  0.0196
  738loPI    C211466   8.969  12.394   5.248 -0.0094  0.0059 -0.1011
  738loPI    C311467   8.620  12.222   5.339 -0.0753  0.3249  0.2761
  738loPI   PO411468   9.096  12.209   5.717  0.1333 -0.1457  0.0306
  738loPI   GL111469   9.056  12.196   6.190 -0.2309  0.1032 -0.0671
  738loPI   GL211470   9.069  11.889   6.113 -0.0503 -0.0930  0.1597
  738loPI   C1A11471   9.162  12.310   6.653 -0.1984  0.2722  0.0421
  738loPI   C2A11472   9.183  12.416   7.080 -0.0363 -0.0671 -0.0526
  738loPI   C3A11473   9.216  12.385   7.533 -0.0749  0.1382  0.0373
  738loPI   C4A11474   9.170  12.355   8.013 -0.3040  0.0628 -0.0680
  738loPI   C5A11475   9.173  12.378   8.438 -0.1330 -0.2103  0.2560
  738loPI   C6A11476   9.053  12.474   8.882 -0.0098 -0.1028  0.1258
  738loPI   C1B11477   9.317  11.859   6.509  0.0284  0.3169  0.1921
  738loPI   C2B11478   9.415  11.928   6.982 -0.1685  0.1019  0.1532
  738loPI   C3B11479   9.273  11.884   7.442 -0.0200  0.1703  0.0412
  738loPI   C4B11480   9.249  11.887   7.914  0.1463  0.0311 -0.0543
  739loPI    C111481   1.715  17.111   5.723  0.2185  0.0337  0.2165
  739loPI    C211482   1.528  17.411   5.536 -0.2436 -0.2521  0.2057
  739loPI    C311483   1.896  17.304   5.423 -0.1319  0.2103  0.1126
  739loPI   PO411484   1.760  17.145   5.887  0.0398 -0.0924 -0.1828
  739loPI   GL111485   1.517  17.025   6.277 -0.0108 -0.1847 -0.0087
  739loPI   GL211486   1.740  16.721   6.278 -0.0176  0.0974 -0.0651
  739loPI   C1A11487   1.704  16.973   6.715 -0.0077 -0.1363  0.0480
  739loPI   C2A11488   1.692  16.818   7.162 -0.1151 -0.0868 -0.0947
  739loPI   C3A11489   1.756  16.857   7.611  0.0153  0.1057 -0.2586
  739loPI   C4A11490   1.756  16.834   8.020  0.0091 -0.1817 -0.1804
  739loPI   C5A11491   1.425  16.992   8.338 -0.1562  0.1298 -0.1652
  739loPI   C6A11492   1.056  17.270   8.406  0.1762  0.0080  0.1873
  739loPI   C1B11493   1.839  16.495   6.701  0.3990  0.0915 -0.0335
  739loPI   C2B11494   1.873  16.376   7.068 -0.0928  0.3298 -0.0355
  739loPI   C3B11495   1.901  16.418   7.461  0.1111 -0.0322  0.1081
  739loPI   C4B11496   1.858  16.349   7.874  0.1693 -0.0692 -0.3013
  740loPI    C111497   5.213  12.130   5.673 -0.0846 -0.1913 -0.0421
  740loPI    C211498   5.480  11.837   5.617  0.0077 -0.0783 -0.2006
  740loPI    C311499   5.333  12.037   5.303 -0.2293 -0.1078 -0.1109
  740loPI   PO411500   5.043  12.022   5.919 -0.0951 -0.1384 -0.2878
  740loPI   GL111501   5.058  12.213   6.388 -0.1477  0.0245 -0.0320
  740loPI   GL211502   4.698  12.205   6.469 -0.0797 -0.2550  0.1974
  740loPI   C1A11503   5.142  12.060   6.783 -0.4390  0.0323  0.1583
  740loPI   C2A11504   5.105  12.060   7.161  0.4303 -0.1641 -0.0135
  740loPI   C3A11505   5.107  12.118   7.623  0.0797 -0.0355 -0.4170
  740loPI   C4A11506   5.156  12.138   8.012 -0.0261 -0.0639 -0.0806
  740loPI   C5A11507   5.339  12.038   8.446  0.0561  0.2530 -0.1211
  740loPI   C6A11508   5.807  11.869   8.408 -0.0882  0.2734 -0.0945
  740loPI   C1B11509   4.667  12.223   6.972 -0.1183  0.0694  0.1711
  740loPI   C2B11510   4.655  12.216   7.360  0.0676  0.1819 -0.0178
  740loPI   C3B11511   4.629  12.268   7.792 -0.2768  0.1141 -0.2618
  740loPI   C4B11512   4.717  12.180   8.277  0.0053 -0.1108  0.0346
  741loPI    C111513   2.104  14.490   5.555 -0.1947 -0.3688 -0.3363
  741loPI    C211514   2.352  14.737   5.360 -0.1092 -0.0343  0.1752
  741loPI    C311515   2.345  14.347   5.270  0.1409  0.0591 -0.2782
  741loPI   PO411516   2.156  14.564   5.825  0.2579  0.0181 -0.0872
  741loPI   GL111517   2.396  14.712   6.156 -0.1892 -0.3455  0.1152
  741loPI   GL211518   2.743  14.518   6.204  0.1942 -0.0723 -0.2468
  741loPI   C1A11519   2.234  14.932   6.500  0.0812  0.0097  0.3397
  741loPI   C2A11520   2.274  14.979   6.922  0.0201 -0.5047 -0.0825
  741loPI   C3A11521   2.342  14.949   7.298  0.0062 -0.2068  0.0932
  741loPI   C4A11522   2.212  14.907   7.684  0.2375 -0.1937 -0.2235
  741loPI   C5A11523   2.352  15.016   8.093 -0.1533  0.1556 -0.0623
  741loPI   C6A11524   2.566  15.027   8.485 -0.1207  0.3045  0.0743
  741loPI   C1B11525   2.517  14.529   6.689 -0.1432  0.1845 -0.1214
  741loPI   C2B11526   2.483  14.505   7.186 -0.0993 -0.2216 -0.4862
  741loPI   C3B11527   2.506  14.504   7.570 -0.1254 -0.0433  0.1041
  741loPI   C4B11528   2.368  14.545   7.941  0.2867 -0.2343 -0.0134
  742loPI    C111529  15.161   9.815   5.629  0.1148  0.0429  0.1708
  742loPI    C211530  15.496   9.957   5.463  0.0321 -0.2199 -0.2361
  742loPI    C311531  15.140  10.082   5.332 -0.0340 -0.2357 -0.0738
  742loPI   PO411532  15.202   9.766   5.897 -0.5026 -0.1403 -0.0709
  742loPI   GL111533  15.199   9.828   6.240  0.0834  0.0277  0.0298
  742loPI   GL211534  15.004  10.056   6.461 -0.2984 -0.0165  0.4021
  742loPI   C1A11535  15.430   9.860   6.631 -0.2074  0.0393  0.0956
  742loPI   C2A11536  15.479   9.999   7.065  0.1206 -0.3171  0.3585
  742loPI   C3A11537  15.464   9.927   7.484  0.1044 -0.0422 -0.1860
  742loPI   C4A11538  15.401   9.964   7.975  0.0546 -0.1296 -0.1193
  742loPI   C5A11539  15.287  10.011   8.351 -0.1808 -0.1206  0.0824
  742loPI   C6A11540  15.188   9.964   8.779  0.0124 -0.1962  0.0518
  742loPI   C1B11541  14.976  10.110   6.877  0.1704  0.1267 -0.1536
  742loPI   C2B11542  14.975  10.163   7.385 -0.1281  0.1444  0.2260
  742loPI   C3B11543  14.901  10.068   7.880  0.1093 -0.1221 -0.0087
  742loPI   C4B11544  14.842  10.111   8.264 -0.1549  0.0249 -0.0093
  743loPI    C111545   1.840  12.951   5.768  0.1144  0.0306 -0.2742
  743loPI    C211546   1.882  12.707   5.454  0.0585 -0.1633 -0.1333
  743loPI    C311547   1.783  13.091   5.397  0.2338 -0.1493 -0.3617
  743loPI   PO411548   1.695  12.738   5.911  0.0418 -0.1932  0.2050
  743loPI   GL111549   1.779  12.580   6.323  0.1162 -0.0939 -0.2915
  743loPI   GL211550   1.986  12.359   6.303  0.0569 -0.1545  0.1802
  743loPI   C1A11551   1.772  12.515   6.790  0.2486  0.0414 -0.2069
  743loPI   C2A11552   1.862  12.427   7.225 -0.0997  0.1297 -0.3302
  743loPI   C3A11553   1.888  12.539   7.642  0.0323  0.3495 -0.1072
  743loPI   C4A11554   1.856  12.516   8.104  0.2217 -0.1557 -0.0715
  743loPI   C5A11555   1.831  12.286   8.511  0.1753  0.0191 -0.0158
  743loPI   C6A11556   1.997  12.181   8.918  0.2489 -0.0254 -0.2872
  743loPI   C1B11557   1.951  12.044   6.697  0.0143  0.2133  0.0998
  743loPI   C2B11558   1.957  11.927   7.100 -0.2555  0.0363  0.4729
  743loPI   C3B11559   1.912  11.985   7.538  0.2337 -0.0722  0.1059
  743loPI   C4B11560   1.947  12.066   7.935  0.1228 -0.1168 -0.0874
  744loPI    C111561   3.353   7.435   5.781  0.0323  0.1357  0.0548
  744loPI    C211562   3.649   7.235   5.599 -0.0214  0.0834  0.0243
  744loPI    C311563   3.333   7.361   5.388 -0.0415  0.1011  0.0648
  744loPI   PO411564   3.550   7.659   5.955  0.1087  0.1116  0.0675
  744loPI   GL111565   3.495   7.812   6.341 -0.2014  0.0214 -0.1979
  744loPI   GL211566   3.684   7.556   6.436  0.0265  0.0757  0.1617
  744loPI   C1A11567   3.471   7.852   6.798  0.1990 -0.1816 -0.1092
  744loPI   C2A11568   3.489   7.895   7.263 -0.0390  0.1800  0.0551
  744loPI   C3A11569   3.538   7.830   7.767 -0.1162  0.3096 -0.2412
  744loPI   C4A11570   3.505   7.838   8.209 -0.1912 -0.2671 -0.1234
  744loPI   C5A11571   3.611   7.794   8.597  0.0690  0.2575  0.2409
  744loPI   C6A11572   3.593   8.172   8.862  0.0696 -0.0215  0.0749
  744loPI   C1B11573   3.548   7.326   6.804  0.1474 -0.3224  0.0559
  744loPI   C2B11574   3.588   7.321   7.215 -0.0041  0.1790 -0.1341
  744loPI   C3B11575   3.611   7.329   7.621  0.2654  0.1238  0.2726
  744loPI   C4B11576   3.604   7.342   8.103  0.0086  0.0883 -0.0809
  745loPI    C111577  16.452  11.194   5.634  0.0490  0.3283 -0.0102
  745loPI    C211578  16.153  10.992   5.460  0.1607  0.1451  0.0076
  745loPI    C311579  16.416  11.195   5.235  0.1574  0.1166 -0.0218
  745loPI   PO411580  16.414  11.195   5.842 -0.1449 -0.1354 -0.0014
  745loPI   GL111581  16.559  11.123   6.204  0.0956 -0.2345 -0.1412
  745loPI   GL211582  16.865  10.917   6.317  0.2052  0.1151  0.0266
  745loPI   C1A11583  16.410  11.105   6.566 -0.3909  0.1195  0.3040
  745loPI   C2A11584  16.575  11.158   6.942  0.2837 -0.0503 -0.0091
  745loPI   C3A11585  16.537  11.045   7.426  0.0506 -0.0690  0.0818
  745loPI   C4A11586  16.508  11.061   7.955 -0.4093 -0.2521 -0.0234
  745loPI   C5A11587  16.391  11.071   8.362 -0.3419  0.0058  0.0456
  745loPI   C6A11588  16.095  10.959   8.646 -0.1146  0.0641 -0.4087
  745loPI   C1B11589  16.990  10.985   6.710 -0.1873  0.2203 -0.1556
  745loPI   C2B11590  16.992  10.989   7.180 -0.0907  0.3781 -0.1217
  745loPI   C3B11591  17.069  10.913   7.633  0.0206  0.1702  0.1983
  745loPI   C4B11592  17.018  10.891   8.135 -0.0494 -0.0397  0.1440
  746loPI    C111593   6.117   2.732   5.561 -0.0198  0.1117 -0.0071
  746loPI    C211594   6.066   2.756   5.958 -0.0795  0.2750 -0.0237
  746loPI    C311595   5.788   2.580   5.730  0.0158  0.0647  0.0200
  746loPI   PO411596   6.429   2.725   5.601  0.2913  0.2314 -0.3039
  746loPI   GL111597   6.609   2.643   5.978  0.1022  0.0333  0.2567
  746loPI   GL211598   6.434   2.422   6.179  0.0550  0.2056  0.0677
  746loPI   C1A11599   6.834   2.553   6.335 -0.1098  0.3669  0.0821
  746loPI   C2A11600   6.933   2.386   6.720  0.2337 -0.1595  0.2474
  746loPI   C3A11601   6.937   2.389   7.123  0.1101 -0.1428  0.0529
  746loPI   C4A11602   6.962   2.335   7.573  0.0798  0.0030 -0.0407
  746loPI   C5A11603   7.026   2.393   8.030  0.0389 -0.0479  0.5010
  746loPI   C6A11604   6.708   2.474   8.313 -0.0380  0.1224 -0.0294
  746loPI   C1B11605   6.446   2.369   6.593  0.0803 -0.0783 -0.1983
  746loPI   C2B11606   6.315   2.533   7.061 -0.1046  0.2406 -0.0888
  746loPI   C3B11607   6.386   2.474   7.471  0.0119  0.0014 -0.2269
  746loPI   C4B11608   6.482   2.455   7.903  0.3145 -0.1568  0.0660
  747loPI    C111609   6.143   5.235   5.577  0.0608 -0.0619 -0.0059
  747loPI    C211610   5.919   5.561   5.521  0.0304 -0.0987 -0.0992
  747loPI    C311611   5.814   5.214   5.352 -0.0360 -0.2007  0.1465
  747loPI   PO411612   6.157   5.098   5.874 -0.1828 -0.0480  0.0668
  747loPI   GL111613   6.216   4.927   6.241  0.0274 -0.5224 -0.1444
  747loPI   GL211614   6.474   5.054   6.347  0.0232  0.1297  0.2805
  747loPI   C1A11615   6.062   4.830   6.652  0.0379 -0.0968  0.1914
  747loPI   C2A11616   6.234   4.809   7.080  0.1220 -0.2946 -0.2297
  747loPI   C3A11617   6.261   4.833   7.521  0.0042 -0.1014 -0.2219
  747loPI   C4A11618   6.166   4.882   7.989  0.0938  0.0802  0.0100
  747loPI   C5A11619   6.134   4.667   8.367  0.2478 -0.1351 -0.0781
  747loPI   C6A11620   6.438   4.589   8.692  0.2309  0.2401 -0.1581
  747loPI   C1B11621   6.566   4.889   6.629  0.1006  0.2452  0.0771
  747loPI   C2B11622   6.741   4.639   6.967  0.0833  0.0313  0.0122
  747loPI   C3B11623   6.760   4.642   7.367  0.0281  0.2834  0.1767
  747loPI   C4B11624   6.735   4.618   7.821 -0.1818  0.2239 -0.0748
  748loPI    C111625   7.204  17.179   5.679  0.1117  0.0958  0.0355
  748loPI    C211626   7.338  17.312   5.327  0.1279 -0.1751 -0.0630
  748loPI    C311627   7.570  17.077   5.554  0.1682  0.1044  0.1909
  748loPI   PO411628   7.145  17.348   5.842  0.1938  0.2397  0.4367
  748loPI   GL111629   7.247  17.477   6.307  0.0325  0.3246 -0.0302
  748loPI   GL211630   6.935  17.262   6.311 -0.0831  0.0707  0.1358
  748loPI   C1A11631   7.025  17.557   6.678 -0.1747 -0.0127 -0.0142
  748loPI   C2A11632   7.251  17.472   6.965  0.2046 -0.1040  0.1503
  748loPI   C3A11633   7.210  17.538   7.364 -0.1553  0.0548 -0.0761
  748loPI   C4A11634   7.251  17.542   7.784 -0.0826 -0.0209 -0.0363
  748loPI   C5A11635   7.168  17.474   8.219  0.3916  0.0676 -0.0885
  748loPI   C6A11636   7.359  17.647   8.557 -0.0150  0.2606  0.2303
  748loPI   C1B11637   6.904  17.095   6.824 -0.1284  0.2187 -0.0709
  748loPI   C2B11638   6.905  17.121   7.182 -0.2404  0.1189  0.1114
  748loPI   C3B11639   6.801  17.072   7.559 -0.1812  0.2738 -0.0277
  748loPI   C4B11640   6.942  17.168   7.878  0.1355  0.1125 -0.2195
  749loPI    C111641   0.473   5.834   5.775 -0.1000  0.1577  0.2422
  749loPI    C211642   0.617   6.183   5.643 -0.1613  0.1043  0.0297
  749loPI    C311643   0.573   5.876   5.390 -0.2551 -0.0093  0.1820
  749loPI   PO411644   0.715   5.818   6.044 -0.0084 -0.0248 -0.0576
  749loPI   GL111645   0.876   5.716   6.466  0.1397  0.0609  0.0721
  749loPI   GL211646   0.645   5.487   6.356  0.0672  0.1156  0.1310
  749loPI   C1A11647   0.826   5.666   6.924  0.2682  0.0280  0.0434
  749loPI   C2A11648   0.696   5.687   7.271  0.0492  0.0114  0.1851
  749loPI   C3A11649   0.693   5.685   7.735 -0.0090  0.0218 -0.1784
  749loPI   C4A11650   0.860   5.846   8.192  0.2365 -0.3862 -0.1941
  749loPI   C5A11651   0.927   5.937   8.632  0.0410  0.1988  0.1897
  749loPI   C6A11652   1.202   5.849   9.049  0.1814  0.0717  0.2048
  749loPI   C1B11653   0.385   5.384   6.615 -0.0647  0.0979  0.3915
  749loPI   C2B11654   0.411   5.243   6.954  0.0113 -0.0869  0.0530
  749loPI   C3B11655   0.366   5.243   7.356 -0.2247  0.2833 -0.0577
  749loPI   C4B11656   0.285   5.207   7.758  0.1734 -0.0359  0.0051
  750loPI    C111657  17.048   4.261   5.702  0.0400  0.0762 -0.0769
  750loPI    C211658  16.932   3.986   5.436 -0.3329  0.3628 -0.2194
  750loPI    C311659  17.118   4.318   5.313  0.2945  0.0958 -0.0297
  750loPI   PO411660  16.894   4.152   5.944  0.0539 -0.2218  0.2463
  750loPI   GL111661  16.873   4.400   6.294  0.0987  0.0870 -0.0070
  750loPI   GL211662  16.967   4.690   6.438  0.1060 -0.0428 -0.0573
  750loPI   C1A11663  17.293   4.233   6.534 -0.0873  0.0284  0.1911
  750loPI   C2A11664  17.316   3.999   6.947  0.1027  0.0114 -0.2326
  750loPI   C3A11665  17.368   3.998   7.442  0.0710  0.2275  0.0034
  750loPI   C4A11666  17.385   3.963   7.919  0.0745  0.2937  0.2120
  750loPI   C5A11667  17.304   4.071   8.342 -0.1059 -0.1162  0.1198
  750loPI   C6A11668  17.304   4.036   8.803 -0.2784 -0.2521  0.1041
  750loPI   C1B11669  17.134   4.498   6.873  0.0341  0.0659 -0.0369
  750loPI   C2B11670  17.159   4.484   7.336  0.0925 -0.1108 -0.1193
  750loPI   C3B11671  17.172   4.460   7.772  0.0227  0.1472 -0.1865
  750loPI   C4B11672  17.149   4.565   8.175 -0.0484  0.0923  0.2364
  751loPI    C111673  13.146   5.542   5.712  0.0031 -0.0302  0.2182
  751loPI    C211674  13.275   5.561   5.333  0.1592  0.1818  0.2806
  751loPI    C311675  12.924   5.726   5.434 -0.0564 -0.1913  0.1578
  751loPI   PO411676  13.180   5.316   5.855 -0.0263 -0.0906  0.0117
  751loPI   GL111677  13.112   5.225   6.324 -0.0082 -0.3006  0.2857
  751loPI   GL211678  13.131   5.576   6.388  0.2855  0.0303  0.2066
  751loPI   C1A11679  13.186   5.019   6.641  0.1175 -0.1606 -0.2190
  751loPI   C2A11680  13.082   4.899   7.142 -0.0875 -0.1113  0.1060
  751loPI   C3A11681  13.183   4.869   7.591  0.1874 -0.1295 -0.0384
  751loPI   C4A11682  13.169   4.955   8.065  0.1807 -0.0815 -0.1195
  751loPI   C5A11683  13.162   4.910   8.463  0.3346 -0.1792 -0.1513
  751loPI   C6A11684  13.112   5.008   8.884 -0.1611 -0.0398  0.2450
  751loPI   C1B11685  13.153   5.488   6.836 -0.0658 -0.1368  0.0191
  751loPI   C2B11686  12.975   5.389   7.328  0.3108  0.3087  0.1653
  751loPI   C3B11687  12.999   5.378   7.815 -0.2719  0.0427 -0.1009
  751loPI   C4B11688  13.077   5.435   8.228 -0.2995  0.0731  0.1161
  752loPI    C111689   1.050  15.707   5.575 -0.0791 -0.0539  0.0649
  752loPI    C211690   0.831  15.714   5.240  0.1439  0.0379 -0.0819
  752loPI    C311691   1.081  15.410   5.309  0.1307  0.0412 -0.0196
  752loPI   PO411692   0.878  15.737   5.709 -0.0340  0.2269 -0.1913
  752loPI   GL111693   0.701  16.003   6.046  0.0583  0.1156  0.1070
  752loPI   GL211694   0.544  15.902   6.213 -0.0574 -0.2132  0.4471
  752loPI   C1A11695   1.015  16.143   6.475  0.0062 -0.1875 -0.1112
  752loPI   C2A11696   0.963  16.097   6.926  0.1530  0.0323  0.0315
  752loPI   C3A11697   0.988  16.191   7.383 -0.3983 -0.2895 -0.0372
  752loPI   C4A11698   1.075  16.162   7.810 -0.0757  0.0271  0.1570
  752loPI   C5A11699   1.121  16.206   8.193 -0.0332  0.0063 -0.0009
  752loPI   C6A11700   1.220  16.532   8.506 -0.1700 -0.0256  0.2301
  752loPI   C1B11701   0.610  15.777   6.572  0.0980  0.1719 -0.0151
  752loPI   C2B11702   0.635  15.770   7.192  0.0292  0.1063  0.2482
  752loPI   C3B11703   0.564  15.741   7.592 -0.0119  0.2171  0.3592
  752loPI   C4B11704   0.736  15.822   8.003  0.0546 -0.0372  0.2310
  753loPI    C111705  15.906   7.106   5.566 -0.1048  0.1778 -0.1061
  753loPI    C211706  16.179   7.228   5.300  0.1170 -0.2608 -0.0876
  753loPI    C311707  15.819   7.105   5.176 -0.0890  0.3324 -0.1110
  753loPI   PO411708  16.019   7.057   5.762 -0.2134 -0.5498  0.1454
  753loPI   GL111709  15.887   7.328   6.128 -0.0353 -0.3364 -0.2545
  753loPI   GL211710  15.830   7.646   6.166 -0.0750  0.3228 -0.0227
  753loPI   C1A11711  15.917   7.195   6.564  0.2012  0.0409 -0.1206
  753loPI   C2A11712  15.785   7.089   7.150  0.1601  0.0528  0.1048
  753loPI   C3A11713  15.828   7.181   7.605  0.1338  0.0832  0.2229
  753loPI   C4A11714  15.729   7.154   8.006  0.0717  0.0457 -0.0824
  753loPI   C5A11715  15.796   7.077   8.374  0.0119 -0.3480 -0.3683
  753loPI   C6A11716  15.836   6.789   8.670  0.0610 -0.0477 -0.2329
  753loPI   C1B11717  15.744   7.680   6.554 -0.0494 -0.2886  0.0610
  753loPI   C2B11718  15.703   7.678   7.010  0.0482 -0.1422 -0.1163
  753loPI   C3B11719  15.655   7.649   7.407  0.5221  0.0058  0.1055
  753loPI   C4B11720  15.601   7.640   7.843 -0.0749  0.1239 -0.0568
  754loPI    C111721   9.257   7.610   5.883  0.1661  0.0677 -0.2893
  754loPI    C211722   9.142   7.319   5.632  0.1290 -0.1361 -0.0399
  754loPI    C311723   9.209   7.688   5.493 -0.0075 -0.2173 -0.3284
  754loPI   PO411724   9.390   7.406   6.120  0.0061  0.1630 -0.1487
  754loPI   GL111725   9.426   7.091   6.364  0.1004 -0.0868  0.0122
  754loPI   GL211726   9.729   7.099   6.638  0.2884 -0.0080  0.1808
  754loPI   C1A11727   9.240   7.261   6.802  0.1691 -0.0526 -0.0159
  754loPI   C2A11728   9.162   7.210   7.228  0.1454  0.0032 -0.0713
  754loPI   C3A11729   9.174   7.170   7.660  0.0206 -0.0472  0.2324
  754loPI   C4A11730   9.170   7.261   8.050  0.0819  0.0723 -0.0692
  754loPI   C5A11731   9.322   7.326   8.481  0.0853 -0.0415 -0.0287
  754loPI   C6A11732   9.210   7.837   8.612  0.0815  0.1990 -0.1350
  754loPI   C1B11733   9.687   7.169   7.087 -0.0319 -0.2767 -0.2316
  754loPI   C2B11734   9.729   7.098   7.495 -0.1243 -0.1719  0.2108
  754loPI   C3B11735   9.673   7.197   7.883 -0.0534 -0.1853 -0.1495
  754loPI   C4B11736   9.772   7.255   8.258 -0.1663 -0.0621 -0.3011
  755loPI    C111737  13.303   0.565   5.566 -0.2474  0.1449  0.1132
  755loPI    C211738  13.314   0.937   5.418 -0.3301  0.1361  0.0840
  755loPI    C311739  13.173   0.637   5.194  0.0475  0.0271 -0.0157
  755loPI   PO411740  13.164   0.528   5.800  0.1586  0.0113 -0.0574
  755loPI   GL111741  12.979   0.519   6.224  0.1294  0.1410  0.0092
  755loPI   GL211742  13.009   0.163   6.203 -0.1892 -0.1012  0.1388
  755loPI   C1A11743  13.004   0.737   6.558  0.0963 -0.2682  0.2065
  755loPI   C2A11744  13.112   0.839   6.879  0.2785  0.1369 -0.1203
  755loPI   C3A11745  13.069   0.863   7.331  0.0738 -0.1093  0.0958
  755loPI   C4A11746  13.029   0.877   7.699 -0.0136  0.0957 -0.0491
  755loPI   C5A11747  13.050   0.839   8.125 -0.1461  0.2779 -0.0429
  755loPI   C6A11748  13.165   0.949   8.500 -0.1102  0.2614 -0.0577
  755loPI   C1B11749  12.827   0.067   6.558  0.0390 -0.0425 -0.4253
  755loPI   C2B11750  12.806   0.035   6.970  0.3055 -0.0315 -0.0068
  755loPI   C3B11751  12.861  -0.011   7.392 -0.0203  0.2697 -0.0187
  755loPI   C4B11752  12.895   0.085   7.867 -0.3624 -0.0518 -0.1768
  756loPI    C111753  12.760   5.403   6.074  0.3032  0.1666 -0.0721
  756loPI    C211754  12.575   5.468   5.725 -0.0839 -0.1081  0.0751
  756loPI    C311755  12.703   5.777   5.944  0.0328  0.0703 -0.2391
  756loPI   PO411756  12.620   5.303   6.211 -0.0791 -0.2018  0.0788
  756loPI   GL111757  12.673   5.365   6.678  0.2716  0.2626  0.2041
  756loPI   GL211758  12.645   4.982   6.712  0.0855  0.2683  0.0944
  756loPI   C1A11759  12.574   5.510   7.033 -0.0028 -0.0497 -0.0268
  756loPI   C2A11760  12.486   5.508   7.406  0.0055 -0.2581  0.1163
  756loPI   C3A11761  12.536   5.585   7.852 -0.1429 -0.2332 -0.2552
  756loPI   C4A11762  12.625   5.627   8.270 -0.1810 -0.1851  0.0962
  756loPI   C5A11763  12.546   5.810   8.659  0.1739 -0.0742  0.3879
  756loPI   C6A11764  12.314   6.081   8.903 -0.0985 -0.2279  0.1614
  756loPI   C1B11765  12.645   5.029   7.189 -0.1127 -0.0152  0.1315
  756loPI   C2B11766  12.660   5.042   7.655 -0.0286  0.1499  0.0912
  756loPI   C3B11767  12.641   5.065   8.130  0.4608  0.1382  0.0017
  756loPI   C4B11768  12.756   5.118   8.550  0.0352  0.3386 -0.0009
  757loPI    C111769  11.909   2.728   5.814  0.1680  0.2163  0.0319
  757loPI    C211770  11.959   2.585   5.443  0.1134  0.1125  0.0640
  757loPI    C311771  11.727   2.906   5.505 -0.1804 -0.0938  0.0515
  757loPI   PO411772  12.121   2.747   5.943 -0.1702 -0.0452 -0.1325
  757loPI   GL111773  12.092   3.044   6.260 -0.0851 -0.0690  0.2260
  757loPI   GL211774  12.213   3.295   6.434 -0.0407  0.2454 -0.1173
  757loPI   C1A11775  11.878   2.972   6.633  0.0185 -0.1620 -0.1856
  757loPI   C2A11776  11.922   2.955   7.058 -0.1917  0.0818  0.0667
  757loPI   C3A11777  11.953   2.989   7.549 -0.0072  0.0226 -0.0663
  757loPI   C4A11778  11.843   2.941   8.032  0.0797 -0.1940  0.3384
  757loPI   C5A11779  11.823   2.971   8.449  0.1081  0.0299  0.1132
  757loPI   C6A11780  11.634   3.048   8.927  0.1226  0.2076 -0.0175
  757loPI   C1B11781  12.275   3.337   6.851  0.2430  0.0859 -0.2253
  757loPI   C2B11782  12.206   3.327   7.295 -0.1303  0.3066 -0.0316
  757loPI   C3B11783  12.208   3.328   7.785  0.1603 -0.0161  0.0776
  757loPI   C4B11784  12.374   3.340   8.207  0.0911 -0.0825  0.1045
  758loPI    C111785   3.968   0.479   5.359  0.0371  0.1986  0.1154
  758loPI    C211786   4.020   0.083   5.339  0.1406  0.1938  0.4268
  758loPI    C311787   4.181   0.320   5.060  0.0044  0.0123  0.1898
  758loPI   PO411788   3.991   0.522   5.596  0.0887 -0.0217  0.1577
  758loPI   GL111789   3.717   0.596   5.894  0.2235  0.2066 -0.1648
  758loPI   GL211790   3.616   0.879   5.896  0.1076  0.0134 -0.2859
  758loPI   C1A11791   3.671   0.376   6.263  0.3320 -0.0768 -0.1530
  758loPI   C2A11792   3.836   0.314   6.714 -0.2207 -0.2944  0.0386
  758loPI   C3A11793   3.700   0.326   7.233 -0.0661 -0.2124  0.5161
  758loPI   C4A11794   3.875   0.358   7.649 -0.1419  0.0129 -0.1403
  758loPI   C5A11795   3.909   0.471   8.076 -0.0799  0.2409 -0.1090
  758loPI   C6A11796   4.037   0.839   8.296 -0.0064  0.1650 -0.0191
  758loPI   C1B11797   3.626   0.826   6.307  0.0721 -0.2853 -0.1967
  758loPI   C2B11798   3.592   0.845   6.661  0.0505  0.2283  0.0419
  758loPI   C3B11799   3.638   0.832   7.127 -0.0252 -0.0859 -0.0163
  758loPI   C4B11800   3.605   0.832   7.525 -0.0562 -0.1743  0.1384
  759loPI    C111801   5.289   7.013   6.017 -0.0966 -0.1033  0.0725
  759loPI    C211802   5.198   7.195   5.673 -0.3102 -0.2259  0.0626
  759loPI    C311803   5.388   6.843   5.669  0.1374  0.0091  0.0826
  759loPI   PO411804   5.076   6.943   6.133 -0.2580 -0.1122 -0.0306
  759loPI   GL111805   4.725   6.740   6.524 -0.1821  0.0694 -0.1387
  759loPI   GL211806   4.656   7.051   6.379  0.3025  0.0777 -0.1040
  759loPI   C1A11807   4.652   6.621   7.002 -0.1738  0.3803  0.2071
  759loPI   C2A11808   4.621   6.594   7.297 -0.0807 -0.0498 -0.2409
  759loPI   C3A11809   4.774   6.485   7.558  0.0931  0.1533  0.0342
  759loPI   C4A11810   4.725   6.530   7.952 -0.0772  0.1956 -0.0476
  759loPI   C5A11811   4.679   6.603   8.420  0.0586  0.1608 -0.0259
  759loPI   C6A11812   4.540   6.628   8.839 -0.0631  0.1591 -0.0800
  759loPI   C1B11813   4.580   7.139   6.836 -0.0369 -0.0214 -0.0061
  759loPI   C2B11814   4.582   7.072   7.274 -0.3376  0.2682 -0.1908
  759loPI   C3B11815   4.549   6.995   7.692 -0.2806 -0.0657 -0.0743
  759loPI   C4B11816   4.615   7.071   8.083  0.1515 -0.0338 -0.1792
  760loPI    C111817  14.521  15.577   5.975  0.0015 -0.1495  0.1688
  760loPI    C211818  14.694  15.919   5.858  0.0096 -0.1911  0.0580
  760loPI    C311819  14.697  15.600   5.616 -0.1327 -0.2231  0.0977
  760loPI   PO411820  14.457  15.656   6.227 -0.0624 -0.0391 -0.1152
  760loPI   GL111821  14.288  15.909   6.538 -0.0786 -0.0105  0.0164
  760loPI   GL211822  14.189  16.211   6.497 -0.1851  0.0009 -0.2401
  760loPI   C1A11823  14.399  15.768   6.904 -0.1473  0.1412  0.0607
  760loPI   C2A11824  14.365  15.733   7.347 -0.0643 -0.0295 -0.0881
  760loPI   C3A11825  14.303  15.809   7.810 -0.0530 -0.1091 -0.1328
  760loPI   C4A11826  14.249  15.783   8.236  0.1097 -0.0046 -0.3219
  760loPI   C5A11827  14.191  15.603   8.655  0.0895 -0.3722  0.2703
  760loPI   C6A11828  14.162  15.687   9.079  0.0870  0.0127 -0.2072
  760loPI   C1B11829  14.224  16.284   6.876  0.0040  0.1754  0.1222
  760loPI   C2B11830  14.203  16.254   7.313  0.1066 -0.0697 -0.0367
  760loPI   C3B11831  14.156  16.260   7.697  0.0124 -0.0284 -0.0396
  760loPI   C4B11832  14.172  16.314   8.117 -0.1448  0.1369  0.0886
  761loPI    C111833  16.962  15.799   5.636 -0.2623  0.0154  0.1225
  761loPI    C211834  16.900  16.136   5.430  0.2920  0.2012  0.2431
  761loPI    C311835  17.114  15.839   5.269 -0.0007 -0.0048  0.2263
  761loPI   PO411836  16.772  15.825   5.847  0.3017 -0.0490  0.0992
  761loPI   GL111837  16.561  15.759   6.207 -0.3176  0.2925  0.1051
  761loPI   GL211838  16.647  16.020   6.328  0.1874 -0.2107 -0.0266
  761loPI   C1A11839  16.725  15.564   6.576  0.0660  0.2247  0.3920
  761loPI   C2A11840  16.741  15.614   6.931  0.1462 -0.2733 -0.0314
  761loPI   C3A11841  16.791  15.708   7.372 -0.0723  0.0045  0.0089
  761loPI   C4A11842  16.607  15.700   7.792  0.0789  0.0684  0.0727
  761loPI   C5A11843  16.406  15.725   8.207 -0.0456  0.0343 -0.1506
  761loPI   C6A11844  15.999  15.898   8.287  0.0248  0.1702 -0.0489
  761loPI   C1B11845  16.591  16.025   6.742  0.1590 -0.1304 -0.1847
  761loPI   C2B11846  16.569  16.088   7.165  0.2654  0.0595 -0.1653
  761loPI   C3B11847  16.541  16.154   7.527  0.1110 -0.1310 -0.1488
  761loPI   C4B11848  16.518  16.172   7.939 -0.0923 -0.0392 -0.2805
  762loPI    C111849   3.884   8.752   5.758  0.1886 -0.0176 -0.2920
  762loPI    C211850   4.061   8.544   5.465  0.5572  0.1319 -0.1814
  762loPI    C311851   4.246   8.859   5.627  0.4022 -0.0066  0.2817
  762loPI   PO411852   3.757   8.552   5.903 -0.0465 -0.0757  0.1146
  762loPI   GL111853   3.748   8.335   6.278  0.0734 -0.1845  0.4231
  762loPI   GL211854   3.780   8.647   6.370 -0.1435 -0.0515 -0.3517
  762loPI   C1A11855   3.820   8.214   6.627  0.0991 -0.1025 -0.0135
  762loPI   C2A11856   3.857   8.245   7.066  0.0072 -0.1401 -0.0902
  762loPI   C3A11857   3.903   8.163   7.470  0.1044 -0.0675 -0.3820
  762loPI   C4A11858   3.898   8.237   7.866 -0.2584 -0.0512  0.3821
  762loPI   C5A11859   3.922   8.194   8.354  0.1019 -0.2413  0.2588
  762loPI   C6A11860   3.854   8.545   8.676 -0.1404  0.0182 -0.0624
  762loPI   C1B11861   3.750   8.716   6.800 -0.1083  0.2257 -0.0236
  762loPI   C2B11862   3.734   8.734   7.270  0.2430  0.0866 -0.1761
  762loPI   C3B11863   3.722   8.717   7.686  0.0657  0.2184  0.0570
  762loPI   C4B11864   3.779   8.738   8.152 -0.0072 -0.0282  0.0833
  763loPI    C111865  14.878   2.984   6.013 -0.1542 -0.0474 -0.1395
  763loPI    C211866  14.841   3.243   5.710 -0.2124  0.1990  0.0748
  763loPI    C311867  15.044   2.903   5.658 -0.1582  0.2732 -0.2183
  763loPI   PO411868  14.943   3.053   6.313 -0.1199  0.1706 -0.1694
  763loPI   GL111869  15.183   2.712   6.643 -0.2291  0.0763 -0.1877
  763loPI   GL211870  15.071   2.991   6.770 -0.2971  0.0249 -0.2353
  763loPI   C1A11871  15.326   2.524   6.993 -0.0809 -0.4807 -0.1648
  763loPI   C2A11872  15.424   2.564   7.477  0.0992 -0.0599  0.0065
  763loPI   C3A11873  15.481   2.704   7.870 -0.1263 -0.1449  0.0810
  763loPI   C4A11874  15.322   2.723   8.193  0.0362 -0.0621  0.0451
  763loPI   C5A11875  15.450   2.901   8.427 -0.1797  0.1466  0.1423
  763loPI   C6A11876  15.299   3.247   8.689  0.2128 -0.2072  0.2778
  763loPI   C1B11877  15.224   3.017   7.120 -0.0368  0.4416  0.0274
  763loPI   C2B11878  15.267   3.098   7.611 -0.2047 -0.0122  0.0407
  763loPI   C3B11879  15.159   3.087   7.940  0.2165  0.1960 -0.2618
  763loPI   C4B11880  14.951   2.963   8.419  0.2007 -0.1680  0.0947
  764loPI    C111881   0.977   3.175   5.668  0.0124  0.0389  0.0158
  764loPI    C211882   1.207   2.865   5.565 -0.2609 -0.0958 -0.2018
  764loPI    C311883   1.230   3.208   5.360  0.0637  0.0433  0.0583
  764loPI   PO411884   1.044   3.210   5.870  0.0291 -0.1212  0.2204
  764loPI   GL111885   0.913   3.249   6.300 -0.2373  0.0471  0.1529
  764loPI   GL211886   1.266   3.332   6.285 -0.2786 -0.2761  0.0798
  764loPI   C1A11887   0.995   3.284   6.729  0.0036 -0.2848 -0.0357
  764loPI   C2A11888   0.880   3.240   7.194 -0.1111 -0.0942 -0.1640
  764loPI   C3A11889   1.004   3.208   7.638 -0.0873  0.1872  0.1104
  764loPI   C4A11890   1.012   3.216   8.049  0.0871  0.3024 -0.0795
  764loPI   C5A11891   1.057   3.168   8.545 -0.3651  0.0426  0.0089
  764loPI   C6A11892   0.808   3.272   8.962  0.0099 -0.2055  0.3160
  764loPI   C1B11893   1.468   3.201   6.679 -0.0080 -0.1827 -0.0970
  764loPI   C2B11894   1.436   3.088   7.112 -0.1171 -0.2292  0.1849
  764loPI   C3B11895   1.515   3.142   7.574 -0.3086 -0.0468 -0.1639
  764loPI   C4B11896   1.521   3.215   8.095 -0.0601  0.2316 -0.1881
  765loPI    C111897  10.407  11.336   5.565  0.0032  0.0616 -0.1524
  765loPI    C211898  10.234  11.364   5.205 -0.1289 -0.0430 -0.0977
  765loPI    C311899  10.556  11.132   5.254  0.0870  0.2251 -0.2209
  765loPI   PO411900  10.461  11.561   5.735 -0.0677  0.0906  0.1731
  765loPI   GL111901  10.549  11.708   6.127 -0.0288 -0.1694 -0.2288
  765loPI   GL211902  10.240  11.644   6.192  0.1062  0.0820 -0.0986
  765loPI   C1A11903  10.767  11.487   6.448 -0.0126  0.0977 -0.0399
  765loPI   C2A11904  10.873  11.511   6.895  0.1640 -0.3346  0.0718
  765loPI   C3A11905  10.779  11.531   7.282 -0.2894 -0.0980  0.0389
  765loPI   C4A11906  10.858  11.616   7.699  0.3117 -0.4693 -0.1114
  765loPI   C5A11907  10.884  11.716   8.139 -0.2916  0.0092 -0.1906
  765loPI   C6A11908  10.565  11.754   8.428 -0.2241  0.1250  0.4620
  765loPI   C1B11909  10.308  11.661   6.639  0.2161 -0.3253 -0.1212
  765loPI   C2B11910  10.323  11.651   7.047  0.3719  0.1142  0.3700
  765loPI   C3B11911  10.361  11.751   7.418  0.0011 -0.1193  0.1975
  765loPI   C4B11912  10.412  11.744   7.863  0.0420  0.0834 -0.0146
  766loPI    C111913   8.736  13.992   5.920  0.0327  0.0939  0.1138
  766loPI    C211914   8.995  14.209   5.707 -0.1324  0.1296 -0.0538
  766loPI    C311915   8.785  13.919   5.530 -0.0221 -0.0697  0.1368
  766loPI   PO411916   8.723  14.029   6.090  0.1442  0.0053  0.1348
  766loPI   GL111917   8.648  13.760   6.395 -0.0432 -0.1140  0.0407
  766loPI   GL211918   8.947  13.566   6.464 -0.2013 -0.1069  0.0658
  766loPI   C1A11919   8.815  13.995   6.804  0.2632 -0.0207 -0.0743
  766loPI   C2A11920   8.892  13.912   7.178  0.1885 -0.1336  0.3217
  766loPI   C3A11921   8.834  13.861   7.617 -0.0634 -0.1216 -0.1234
  766loPI   C4A11922   8.640  13.964   8.019 -0.5305  0.0382  0.0169
  766loPI   C5A11923   8.218  14.074   8.374 -0.2753  0.1849  0.0058
  766loPI   C6A11924   8.000  14.204   8.749  0.2511  0.0470  0.2562
  766loPI   C1B11925   8.898  13.504   6.794 -0.2117 -0.0126 -0.0008
  766loPI   C2B11926   8.864  13.387   7.227 -0.0462 -0.2590  0.1656
  766loPI   C3B11927   8.891  13.381   7.656 -0.3276  0.1461  0.1933
  766loPI   C4B11928   8.860  13.487   8.098  0.0117 -0.1973 -0.2079
  767loPI    C111929  14.236   8.841   5.834 -0.0976 -0.1724  0.0901
  767loPI    C211930  13.912   8.828   5.599  0.0066  0.1978 -0.0818
  767loPI    C311931  14.277   8.824   5.436  0.0889 -0.0350  0.1025
  767loPI   PO411932  14.196   9.069   6.020  0.1916  0.2659  0.4205
  767loPI   GL111933  14.140   9.209   6.296  0.3770 -0.1662 -0.2340
  767loPI   GL211934  13.833   9.050   6.501  0.0031  0.0986 -0.1132
  767loPI   C1A11935  14.224   9.329   6.740  0.2283  0.0196  0.0396
  767loPI   C2A11936  14.246   9.321   7.165  0.1023 -0.1349  0.1771
  767loPI   C3A11937  14.197   9.355   7.569 -0.2815  0.0487 -0.0416
  767loPI   C4A11938  14.185   9.357   8.051  0.0181  0.1114 -0.1146
  767loPI   C5A11939  14.125   9.181   8.468 -0.0680 -0.1213 -0.1120
  767loPI   C6A11940  13.921   9.315   8.862 -0.3831 -0.0899 -0.0251
  767loPI   C1B11941  13.897   8.955   6.922  0.5107 -0.1063  0.2673
  767loPI   C2B11942  13.915   8.907   7.297 -0.0038 -0.0831 -0.0652
  767loPI   C3B11943  13.842   9.023   7.668 -0.0865 -0.0009 -0.1849
  767loPI   C4B11944  13.793   8.982   8.071 -0.2590  0.1615  0.3184
  768loPI    C111945  10.055  13.881   5.803 -0.1588  0.1063  0.2657
  768loPI    C211946  10.302  13.815   5.495  0.0294  0.0750  0.4222
  768loPI    C311947   9.963  14.020   5.439 -0.0182 -0.0713  0.1608
  768loPI   PO411948  10.038  13.728   5.952 -0.0028 -0.3058  0.1153
  768loPI   GL111949   9.902  13.864   6.390  0.0150 -0.2552  0.1859
  768loPI   GL211950  10.072  14.092   6.562  0.2090 -0.3281 -0.2970
  768loPI   C1A11951   9.725  13.695   6.708  0.0993  0.2254  0.1839
  768loPI   C2A11952   9.731  13.766   7.107  0.0430  0.0207 -0.0575
  768loPI   C3A11953   9.708  13.595   7.613  0.1017  0.1019  0.3757
  768loPI   C4A11954   9.766  13.694   8.038 -0.1306  0.0428  0.1044
  768loPI   C5A11955   9.813  13.569   8.426 -0.3463  0.2274  0.1924
  768loPI   C6A11956  10.077  13.656   8.789  0.2364  0.1325  0.1396
  768loPI   C1B11957  10.240  14.051   6.998 -0.2231  0.2035  0.1305
  768loPI   C2B11958  10.111  13.916   7.395 -0.0318  0.1211 -0.0586
  768loPI   C3B11959  10.133  14.063   7.816  0.0900  0.0094  0.0208
  768loPI   C4B11960  10.127  13.961   8.252 -0.0139 -0.0066  0.0665
  769loPI    C111961   2.537  12.378   5.594  0.0649  0.1092  0.0892
  769loPI    C211962   2.776  12.485   5.292  0.0847  0.1262  0.1110
  769loPI    C311963   2.594  12.129   5.286 -0.0488  0.1956 -0.0026
  769loPI   PO411964   2.633  12.362   5.786  0.3093 -0.0352  0.2155
  769loPI   GL111965   2.499  12.523   6.157  0.0848 -0.0211  0.2243
  769loPI   GL211966   2.665  12.817   6.169  0.0978 -0.0454 -0.0579
  769loPI   C1A11967   2.436  12.339   6.560 -0.0585 -0.3246 -0.0851
  769loPI   C2A11968   2.341  12.271   6.995 -0.0190  0.2155  0.2109
  769loPI   C3A11969   2.348  12.292   7.355 -0.3371 -0.2209 -0.0905
  769loPI   C4A11970   2.322  12.401   7.832 -0.1280 -0.2899  0.1387
  769loPI   C5A11971   2.298  12.350   8.286 -0.1704  0.1127  0.0407
  769loPI   C6A11972   2.470  12.162   8.728 -0.0506 -0.0954 -0.1589
  769loPI   C1B11973   2.688  12.774   6.604 -0.1493  0.1014  0.2262
  769loPI   C2B11974   2.724  12.585   7.119  0.3075  0.0343  0.0709
  769loPI   C3B11975   2.690  12.703   7.557 -0.2254 -0.2804  0.0548
  769loPI   C4B11976   2.650  12.692   8.009  0.0028  0.0595 -0.2805
  770loPI    C111977  14.151   5.346   6.055 -0.0770  0.1591 -0.0146
  770loPI    C211978  13.856   5.344   5.785  0.0991 -0.1284 -0.2101
  770loPI    C311979  14.202   5.161   5.704  0.3083  0.1449  0.0446
  770loPI   PO411980  13.972   5.308   6.320 -0.2266 -0.3766 -0.0114
  770loPI   GL111981  13.870   5.201   6.605  0.1759  0.0275 -0.1978
  770loPI   GL211982  13.553   5.285   6.602  0.2435  0.1378 -0.0052
  770loPI   C1A11983  14.086   5.160   7.147 -0.0977  0.1899 -0.1020
  770loPI   C2A11984  13.958   5.221   7.598  0.0843 -0.2809  0.0624
  770loPI   C3A11985  14.040   5.184   7.999 -0.0252  0.1469  0.2297
  770loPI   C4A11986  14.109   5.061   8.455 -0.0604  0.0137  0.2585
  770loPI   C5A11987  14.479   4.955   8.760  0.2405 -0.1420  0.2033
  770loPI   C6A11988  14.785   5.188   8.965  0.2640  0.0025  0.5107
  770loPI   C1B11989  13.494   5.227   7.131  0.1539 -0.0786  0.0362
  770loPI   C2B11990  13.479   5.295   7.475  0.0095  0.2423 -0.0254
  770loPI   C3B11991  13.500   5.307   7.906  0.2936 -0.3083  0.0473
  770loPI   C4B11992  13.582   5.236   8.354  0.0525 -0.0355 -0.0712
  771loPI    C111993  15.773  12.103   5.502  0.0192 -0.1761  0.0100
  771loPI    C211994  16.028  11.996   5.213  0.2062  0.0653  0.0825
  771loPI    C311995  15.688  12.185   5.119  0.1257 -0.1182 -0.0016
  771loPI   PO411996  15.860  11.847   5.679 -0.1594  0.1400  0.0200
  771loPI   GL111997  15.807  11.851   6.172  0.0152 -0.1437  0.0633
  771loPI   GL211998  16.064  12.024   6.213 -0.2728 -0.0263 -0.0439
  771loPI   C1A11999  15.846  11.748   6.600 -0.1823  0.0465  0.0818
  771loPI   C2A12000  15.913  11.710   6.980 -0.1191 -0.1292 -0.2470
  771loPI   C3A12001  15.886  11.742   7.378 -0.0164  0.1396 -0.2167
  771loPI   C4A12002  15.924  11.664   7.786  0.1156  0.0724  0.1042
  771loPI   C5A12003  15.871  11.609   8.222 -0.0059 -0.0672 -0.0513
  771loPI   C6A12004  16.092  11.490   8.594 -0.0256 -0.0663 -0.0537
  771loPI   C1B12005  16.257  12.029   6.551  0.2714  0.1452 -0.1174
  771loPI   C2B12006  16.209  12.102   6.965 -0.0877  0.0318  0.1578
  771loPI   C3B12007  16.212  12.072   7.362  0.2211  0.0461 -0.3002
  771loPI   C4B12008  16.268  12.089   7.808  0.0312  0.0444  0.0430
  772loPI    C112009  17.011   9.985   5.687 -0.0877 -0.0524  0.1358
  772loPI    C212010  17.056   9.669   5.446  0.0675  0.1139 -0.0570
  772loPI    C312011  16.759   9.929   5.381  0.0943  0.1452 -0.0536
  772loPI   PO412012  17.016   9.974   5.938 -0.0304  0.1737 -0.1543
  772loPI   GL112013  17.072  10.039   6.291  0.3119  0.1260  0.0704
  772loPI   GL212014  16.775  10.120   6.483 -0.0598 -0.0416  0.0092
  772loPI   C1A12015  17.271  10.029   6.710  0.0871  0.1664  0.0235
  772loPI   C2A12016  17.238   9.979   7.126 -0.1417  0.0373 -0.1032
  772loPI   C3A12017  17.201   9.993   7.585  0.1777  0.0272 -0.1364
  772loPI   C4A12018  17.281   9.906   8.073 -0.1327 -0.0706 -0.0517
  772loPI   C5A12019  17.142   9.886   8.514 -0.2242 -0.1704  0.0435
  772loPI   C6A12020  17.090  10.238   8.865 -0.2136  0.2765  0.2417
  772loPI   C1B12021  16.823  10.009   6.897  0.0662  0.2171 -0.0632
  772loPI   C2B12022  16.741  10.064   7.298 -0.0132 -0.3852  0.1572
  772loPI   C3B12023  16.748  10.090   7.766 -0.1401  0.2808 -0.0240
  772loPI   C4B12024  16.805  10.072   8.271  0.1942  0.1717 -0.0276
  773loPI    C112025  17.066   0.808   5.605 -0.2015 -0.0058 -0.1448
  773loPI    C212026  17.373   0.618   5.432 -0.0296  0.2382 -0.1122
  773loPI    C312027  17.128   0.845   5.212 -0.2114  0.0137 -0.1445
  773loPI   PO412028  17.016   0.780   5.852 -0.2123  0.0039  0.1502
  773loPI   GL112029  17.057   0.622   6.328  0.3402  0.1510  0.0095
  773loPI   GL212030  16.946   0.978   6.553 -0.1852  0.0611 -0.1369
  773loPI   C1A12031  17.043   0.489   6.772 -0.1732 -0.0124  0.2033
  773loPI   C2A12032  16.987   0.438   7.238 -0.0828  0.0342 -0.0302
  773loPI   C3A12033  17.043   0.340   7.725 -0.1778 -0.0948  0.5009
  773loPI   C4A12034  17.028   0.171   8.226  0.3777  0.0762  0.1096
  773loPI   C5A12035  17.130   0.121   8.705 -0.1066  0.0258  0.0189
  773loPI   C6A12036  17.234  -0.248   8.919 -0.0965  0.1765  0.0027
  773loPI   C1B12037  16.884   0.926   7.026  0.0204 -0.0979  0.1075
  773loPI   C2B12038  16.828   0.869   7.415 -0.1057  0.0990 -0.2216
  773loPI   C3B12039  16.926   0.911   7.843  0.2296 -0.0987 -0.4211
  773loPI   C4B12040  16.914   0.665   8.248  0.1297 -0.1306  0.2416
  774loPI    C112041   1.768  10.337   5.757  0.2391 -0.1762  0.1007
  774loPI    C212042   2.119  10.519   5.694  0.0721  0.0805 -0.1126
  774loPI    C312043   1.966  10.277   5.414  0.1669 -0.1842  0.0602
  774loPI   PO412044   1.715  10.305   6.024  0.1004 -0.3934 -0.1180
  774loPI   GL112045   1.845  10.112   6.431 -0.0617  0.3700  0.3542
  774loPI   GL212046   1.641   9.856   6.438 -0.3992  0.1020 -0.3242
  774loPI   C1A12047   2.030  10.156   6.787 -0.0389  0.0531  0.2288
  774loPI   C2A12048   2.056  10.129   7.126  0.1158 -0.3020 -0.1526
  774loPI   C3A12049   2.075  10.208   7.512 -0.1198 -0.0659 -0.0465
  774loPI   C4A12050   2.119  10.104   7.971  0.1614  0.1179 -0.0811
  774loPI   C5A12051   1.966  10.215   8.402 -0.0170 -0.0241  0.0695
  774loPI   C6A12052   1.827  10.338   8.822  0.2760  0.1564  0.1240
  774loPI   C1B12053   1.699   9.809   6.823 -0.1495  0.1275  0.0911
  774loPI   C2B12054   1.652   9.857   7.324 -0.2628 -0.1978  0.4440
  774loPI   C3B12055   1.624   9.812   7.752 -0.1637 -0.0836 -0.1809
  774loPI   C4B12056   1.600   9.777   8.227 -0.0346 -0.0014 -0.0264
  775loPI    C112057   9.374  13.187   5.599 -0.0098  0.0455 -0.1307
  775loPI    C212058   9.552  12.829   5.591 -0.2354 -0.0701 -0.0757
  775loPI    C312059   9.705  13.133   5.381  0.0822 -0.1381  0.0506
  775loPI   PO412060   9.338  13.238   5.850  0.1822 -0.0462  0.1219
  775loPI   GL112061   9.173  13.143   6.202 -0.0053 -0.0964  0.0959
  775loPI   GL212062   9.035  12.908   6.275 -0.1434  0.1028  0.1597
  775loPI   C1A12063   9.345  13.279   6.559  0.0102 -0.3142 -0.1424
  775loPI   C2A12064   9.384  13.396   6.965  0.1227  0.1872  0.1715
  775loPI   C3A12065   9.355  13.280   7.370  0.4145  0.0072  0.1806
  775loPI   C4A12066   9.397  13.304   7.826  0.1234  0.2476  0.0075
  775loPI   C5A12067   9.514  13.183   8.191 -0.0026 -0.2322  0.5021
  775loPI   C6A12068   9.854  12.995   8.409 -0.0276  0.1599 -0.1321
  775loPI   C1B12069   9.014  12.927   6.728 -0.0708 -0.2048 -0.1930
  775loPI   C2B12070   9.168  12.922   7.000  0.1845  0.1142 -0.1869
  775loPI   C3B12071   9.077  12.889   7.436  0.2154 -0.0859  0.1181
  775loPI   C4B12072   9.076  12.826   7.913  0.2411  0.1464  0.0949
  776loPI    C112073  14.909  17.152   5.743  0.1186 -0.2348  0.0558
  776loPI    C212074  15.223  17.326   5.567  0.1661 -0.3644  0.0117
  776loPI    C312075  14.900  17.231   5.351  0.0179 -0.0571  0.0922
  776loPI   PO412076  14.881  17.246   5.993  0.0757 -0.1481 -0.0571
  776loPI   GL112077  15.015  17.340   6.418 -0.1118 -0.0264 -0.1359
  776loPI   GL212078  15.312  17.312   6.417  0.0382  0.0960 -0.2341
  776loPI   C1A12079  14.767  17.524   6.673  0.0566  0.1956 -0.0996
  776loPI   C2A12080  14.873  17.557   7.097  0.1165  0.1038  0.0065
  776loPI   C3A12081  14.845  17.503   7.530  0.2195  0.0258  0.1875
  776loPI   C4A12082  14.748  17.508   7.885 -0.2599 -0.0367 -0.1740
  776loPI   C5A12083  14.756  17.464   8.306 -0.2155 -0.0681 -0.0489
  776loPI   C6A12084  14.732  17.659   8.654 -0.0359 -0.1063  0.2705
  776loPI   C1B12085  15.358  17.353   6.833  0.0808 -0.2034 -0.0311
  776loPI   C2B12086  15.362  17.381   7.203  0.1507  0.3715  0.1114
  776loPI   C3B12087  15.299  17.331   7.588 -0.1475  0.2535 -0.2830
  776loPI   C4B12088  15.232  17.328   7.994 -0.0716  0.1897 -0.1214
  777loPI    C112089   0.621  15.308   5.693  0.2961 -0.2728  0.1842
  777loPI    C212090   0.290  15.135   5.550  0.0710  0.0110  0.3513
  777loPI    C312091   0.521  15.355   5.309  0.1126 -0.1459  0.2463
  777loPI   PO412092   0.597  15.404   5.962  0.0977  0.0474  0.0453
  777loPI   GL112093   0.898  15.503   6.253  0.2095 -0.2592 -0.1292
  777loPI   GL212094   0.728  15.245   6.391  0.2747  0.1768 -0.2968
  777loPI   C1A12095   1.129  15.666   6.594 -0.2716 -0.0145 -0.2386
  777loPI   C2A12096   1.118  15.620   7.055  0.0457 -0.0970  0.3801
  777loPI   C3A12097   1.100  15.747   7.492 -0.1771  0.2330 -0.2405
  777loPI   C4A12098   1.108  15.602   7.829 -0.4201 -0.1984 -0.1054
  777loPI   C5A12099   1.237  15.552   8.202  0.0645 -0.0047 -0.0167
  777loPI   C6A12100   1.241  15.892   8.630 -0.1011 -0.2328 -0.4703
  777loPI   C1B12101   0.779  15.344   6.826  0.2300 -0.4409  0.0371
  777loPI   C2B12102   0.732  15.291   7.331 -0.0540 -0.0700 -0.0928
  777loPI   C3B12103   0.729  15.294   7.729 -0.0589  0.2482 -0.2348
  777loPI   C4B12104   0.745  15.261   8.186  0.1691 -0.0683 -0.0370
  778loPI    C112105   7.960   3.750   5.706  0.0869  0.0293  0.0287
  778loPI    C212106   8.110   3.880   5.359  0.0219  0.2343  0.0758
  778loPI    C312107   7.730   3.757   5.379  0.1176 -0.0830  0.0042
  778loPI   PO412108   8.143   3.912   5.904  0.1337 -0.0786 -0.0221
  778loPI   GL112109   8.140   4.098   6.333  0.0066  0.2796  0.0502
  778loPI   GL212110   8.416   4.020   6.411 -0.2651  0.1545 -0.1647
  778loPI   C1A12111   7.849   3.966   6.735 -0.1210  0.0520  0.0248
  778loPI   C2A12112   7.873   3.877   7.202 -0.0525 -0.1481  0.2467
  778loPI   C3A12113   7.824   3.893   7.574  0.1518  0.0175  0.1649
  778loPI   C4A12114   7.700   4.287   7.762  0.0615  0.4224 -0.1604
  778loPI   C5A12115   7.767   4.618   8.130  0.0091  0.0277 -0.1245
  778loPI   C6A12116   7.774   4.926   8.496  0.1843  0.0345 -0.0940
  778loPI   C1B12117   8.661   4.122   6.593  0.2449  0.0935 -0.1962
  778loPI   C2B12118   8.737   4.165   6.993  0.0292 -0.2784 -0.1368
  778loPI   C3B12119   8.636   4.192   7.467 -0.0079  0.1616  0.0899
  778loPI   C4B12120   8.741   4.236   7.953 -0.3325  0.2167  0.1169
  779loPI    C112121   4.719   6.166   5.724 -0.2403 -0.0218 -0.0753
  779loPI    C212122   4.885   6.496   5.571 -0.2908  0.0529  0.0298
  779loPI    C312123   4.925   6.146   5.382  0.0820  0.0477  0.1110
  779loPI   PO412124   4.819   6.112   5.977  0.2179 -0.0666 -0.1149
  779loPI   GL112125   4.729   5.860   6.315 -0.1855 -0.1406 -0.0692
  779loPI   GL212126   4.908   6.145   6.507 -0.1574  0.1074 -0.2151
  779loPI   C1A12127   4.531   5.794   6.725  0.0241 -0.1112  0.2761
  779loPI   C2A12128   4.501   5.607   7.182 -0.0694 -0.0270  0.0130
  779loPI   C3A12129   4.611   5.646   7.601 -0.1758 -0.0138 -0.0562
  779loPI   C4A12130   4.622   5.749   8.038 -0.1240  0.3023  0.1916
  779loPI   C5A12131   4.488   5.520   8.452  0.3301  0.1652  0.1353
  779loPI   C6A12132   4.532   5.641   8.883  0.4838 -0.1564  0.1090
  779loPI   C1B12133   4.951   6.036   6.917 -0.2320 -0.1057 -0.1796
  779loPI   C2B12134   4.848   6.013   7.360 -0.0436 -0.1258 -0.0740
  779loPI   C3B12135   4.987   6.089   7.741  0.1537  0.0518  0.0588
  779loPI   C4B12136   4.936   6.121   8.209 -0.4514 -0.1323  0.3170
  780loPI    C112137  11.632   9.780   5.326 -0.1074  0.1223 -0.1199
  780loPI    C212138  11.734   9.487   5.074  0.0071  0.0302  0.0322
  780loPI    C312139  11.891   9.852   5.030 -0.0343  0.0354 -0.0773
  780loPI   PO412140  11.639   9.613   5.668  0.2116 -0.0209 -0.0668
  780loPI   GL112141  11.509   9.609   6.152 -0.2704  0.2494  0.3097
  780loPI   GL212142  11.267   9.473   6.293 -0.1046 -0.2637 -0.1008
  780loPI   C1A12143  11.755   9.700   6.507  0.0627 -0.0698  0.2214
  780loPI   C2A12144  11.781   9.894   6.936  0.1098  0.2345 -0.3105
  780loPI   C3A12145  11.768   9.895   7.416 -0.1590 -0.2596  0.1370
  780loPI   C4A12146  11.686  10.070   7.852  0.4498  0.2224 -0.0224
  780loPI   C5A12147  11.736  10.046   8.267  0.0789  0.0306  0.2822
  780loPI   C6A12148  12.136   9.855   8.436 -0.2114 -0.0888 -0.2839
  780loPI   C1B12149  11.357   9.516   6.705 -0.1477  0.0730  0.3617
  780loPI   C2B12150  11.410   9.520   7.105 -0.2115  0.0941  0.3435
  780loPI   C3B12151  11.364   9.580   7.543  0.0599  0.1052 -0.0060
  780loPI   C4B12152  11.342   9.670   7.960 -0.0967 -0.3805  0.1003
  781loPI    C112153  14.663   4.507   5.716  0.1075 -0.2966 -0.2263
  781loPI    C212154  14.635   4.546   5.319  0.0880  0.0642 -0.1932
  781loPI    C312155  14.994   4.522   5.493  0.1033  0.1440 -0.2130
  781loPI   PO412156  14.458   4.733   5.941 -0.4951 -0.1319 -0.2406
  781loPI   GL112157  14.576   4.849   6.370  0.1120  0.0285  0.1129
  781loPI   GL212158  14.342   4.990   6.390  0.1370 -0.3507  0.0060
  781loPI   C1A12159  14.683   4.536   6.721  0.1256  0.2233  0.2498
  781loPI   C2A12160  14.758   4.590   7.102 -0.2355 -0.0654  0.2823
  781loPI   C3A12161  14.763   4.608   7.521  0.1946 -0.3751  0.1102
  781loPI   C4A12162  14.633   4.504   7.934  0.0341 -0.1008 -0.0855
  781loPI   C5A12163  14.677   4.469   8.449  0.1745 -0.4400 -0.1482
  781loPI   C6A12164  14.515   4.433   8.886 -0.1667 -0.0990  0.2041
  781loPI   C1B12165  14.572   5.028   6.839  0.0774  0.0536 -0.1479
  781loPI   C2B12166  14.716   5.084   7.310  0.1805  0.0407 -0.1242
  781loPI   C3B12167  14.548   5.059   7.711 -0.0851 -0.0474  0.1519
  781loPI   C4B12168  14.551   4.947   8.150  0.0558  0.3047  0.0759
  782loPI    C112169  15.900   3.176   6.083 -0.0271 -0.0293 -0.0550
  782loPI    C212170  15.740   3.356   5.764  0.0628  0.0450 -0.0587
  782loPI    C312171  15.720   3.531   6.123 -0.1479 -0.0964  0.0001
  782loPI   PO412172  16.100   3.062   6.019  0.0146  0.3019  0.2339
  782loPI   GL112173  16.349   2.931   6.326 -0.0947 -0.1343 -0.1979
  782loPI   GL212174  16.128   2.829   6.455 -0.0209 -0.0965 -0.0935
  782loPI   C1A12175  16.518   3.162   6.601 -0.0361  0.0549  0.0013
  782loPI   C2A12176  16.511   3.128   7.051 -0.0421  0.0302 -0.1936
  782loPI   C3A12177  16.633   3.258   7.506  0.0154 -0.0361  0.2428
  782loPI   C4A12178  16.670   3.338   7.890  0.1806  0.1848  0.0586
  782loPI   C5A12179  16.787   3.323   8.336 -0.2072  0.0345  0.1201
  782loPI   C6A12180  16.684   3.388   8.707  0.0283 -0.0722  0.2023
  782loPI   C1B12181  16.199   2.780   6.863 -0.2013 -0.3381  0.2612
  782loPI   C2B12182  16.205   2.768   7.256  0.0148  0.4421  0.1346
  782loPI   C3B12183  16.268   2.883   7.680  0.2004  0.1261  0.1480
  782loPI   C4B12184  16.362   2.946   8.040  0.1081  0.0743 -0.0934
  783loPI    C112185  13.946  16.493   5.894  0.0063 -0.2159  0.1163
  783loPI    C212186  13.735  16.503   5.554  0.1293 -0.0501  0.0429
  783loPI    C312187  13.886  16.156   5.686 -0.1524 -0.1630  0.0754
  783loPI   PO412188  14.091  16.607   5.993  0.0767 -0.0126  0.0389
  783loPI   GL112189  14.136  16.715   6.337 -0.2701 -0.0870 -0.1493
  783loPI   GL212190  13.807  16.544   6.435 -0.1297  0.1910  0.0363
  783loPI   C1A12191  14.083  16.725   6.799 -0.0350  0.0744  0.3326
  783loPI   C2A12192  14.074  16.762   7.243  0.3189 -0.0830  0.0512
  783loPI   C3A12193  14.042  16.793   7.714  0.4264  0.2542 -0.2603
  783loPI   C4A12194  14.032  16.850   8.149 -0.1050 -0.0095  0.1944
  783loPI   C5A12195  14.083  16.910   8.580 -0.0290 -0.2159 -0.0230
  783loPI   C6A12196  13.826  17.174   8.827  0.1359  0.2245 -0.1344
  783loPI   C1B12197  13.727  16.417   6.786 -0.1042 -0.4130  0.0414
  783loPI   C2B12198  13.758  16.323   7.157  0.2083 -0.0149  0.1277
  783loPI   C3B12199  13.724  16.383   7.527  0.0548  0.1989  0.0164
  783loPI   C4B12200  13.713  16.469   7.984 -0.2544 -0.0231  0.1506
  784loPI    C112201  14.418   7.859   5.591  0.0797 -0.0726 -0.0894
  784loPI    C212202  14.192   7.534   5.649 -0.1481  0.0785 -0.1222
  784loPI    C312203  14.508   7.516   5.404 -0.2358 -0.0844 -0.2256
  784loPI   PO412204  14.443   7.964   5.860 -0.1479  0.1763 -0.0253
  784loPI   GL112205  14.614   8.021   6.191 -0.0897  0.1102 -0.1808
  784loPI   GL212206  14.781   7.885   6.325  0.0270  0.1610 -0.1333
  784loPI   C1A12207  14.525   8.316   6.524  0.3252  0.4289  0.1479
  784loPI   C2A12208  14.450   8.357   6.921 -0.1016  0.0738  0.0093
  784loPI   C3A12209  14.473   8.357   7.356 -0.1563 -0.0374 -0.1979
  784loPI   C4A12210  14.463   8.365   7.769 -0.0137  0.0085  0.0811
  784loPI   C5A12211  14.374   8.331   8.213  0.0461 -0.0537 -0.2351
  784loPI   C6A12212  14.281   8.342   8.687 -0.4115 -0.1931  0.2158
  784loPI   C1B12213  14.680   7.918   6.737 -0.0119  0.1004 -0.0217
  784loPI   C2B12214  14.659   7.916   7.172  0.0049  0.2238  0.1644
  784loPI   C3B12215  14.602   7.883   7.616 -0.1330  0.1998  0.2508
  784loPI   C4B12216  14.663   7.793   8.090 -0.0811  0.4281  0.1437
  785loPI    C112217   8.616  10.410   6.096 -0.0488  0.0856  0.1069
  785loPI    C212218   9.014  10.449   6.098 -0.0481  0.0814  0.0655
  785loPI    C312219   8.805  10.542   5.770 -0.0647 -0.0790  0.0295
  785loPI   PO412220   8.530  10.483   6.306 -0.2480 -0.3575  0.0071
  785loPI   GL112221   8.544  10.428   6.703  0.0996 -0.0030 -0.1456
  785loPI   GL212222   8.415  10.193   6.699  0.1297 -0.2316 -0.2289
  785loPI   C1A12223   8.878  10.167   6.908 -0.1285  0.3376 -0.1879
  785loPI   C2A12224   8.856  10.110   7.370 -0.0543 -0.0911 -0.1419
  785loPI   C3A12225   8.843  10.164   7.740  0.1444 -0.0735 -0.3411
  785loPI   C4A12226   8.915  10.281   8.159 -0.2552  0.1201 -0.2654
  785loPI   C5A12227   8.830  10.488   8.437 -0.2730  0.1709  0.1538
  785loPI   C6A12228   8.923  10.952   8.572 -0.1112 -0.1818 -0.0917
  785loPI   C1B12229   8.441  10.288   7.156 -0.0928 -0.1639 -0.1505
  785loPI   C2B12230   8.349  10.379   7.590  0.0803  0.0484 -0.1394
  785loPI   C3B12231   8.361  10.340   7.980 -0.3122 -0.3300  0.0479
  785loPI   C4B12232   8.360  10.453   8.484 -0.1558  0.0042  0.0105
  786loPI    C112233   0.776   2.699   5.731 -0.0029  0.4580 -0.0035
  786loPI    C212234   0.519   2.955   5.562 -0.2418  0.0255 -0.3143
  786loPI    C312235   0.779   2.752   5.335  0.1317  0.1864 -0.0412
  786loPI   PO412236   0.764   2.775   5.996 -0.3722 -0.3915 -0.2921
  786loPI   GL112237   0.854   2.541   6.381 -0.0405  0.0385 -0.0949
  786loPI   GL212238   1.056   2.708   6.544  0.0756  0.0285 -0.0875
  786loPI   C1A12239   0.749   2.377   6.835 -0.0627  0.0817  0.0298
  786loPI   C2A12240   0.694   2.361   7.267 -0.1896  0.2029 -0.2239
  786loPI   C3A12241   0.769   2.374   7.657  0.1773  0.1683 -0.0751
  786loPI   C4A12242   0.821   2.324   8.141  0.1865  0.0698  0.1534
  786loPI   C5A12243   1.112   2.338   8.415  0.0120 -0.0132  0.0115
  786loPI   C6A12244   1.309   2.544   8.775 -0.2537 -0.1472 -0.2110
  786loPI   C1B12245   1.080   2.694   6.978  0.1379 -0.4184  0.1151
  786loPI   C2B12246   1.116   2.717   7.414 -0.0820 -0.1772 -0.0618
  786loPI   C3B12247   1.179   2.735   7.853 -0.2870 -0.1086  0.1226
  786loPI   C4B12248   1.262   2.764   8.242 -0.2763 -0.1669 -0.0442
  787loPI    C112249   3.156   3.264   5.965 -0.3628  0.0326  0.0212
  787loPI    C212250   3.030   3.143   5.605 -0.2349  0.1946 -0.0796
  787loPI    C312251   3.172   3.514   5.653  0.1083  0.0510  0.0528
  787loPI   PO412252   2.908   3.278   6.162  0.2762  0.1036  0.1807
  787loPI   GL112253   2.898   3.301   6.602  0.0970  0.1118  0.2610
  787loPI   GL212254   2.767   3.620   6.592 -0.2363 -0.0414 -0.1659
  787loPI   C1A12255   2.751   3.187   7.016  0.0333 -0.1816 -0.3509
  787loPI   C2A12256   2.760   3.288   7.483 -0.1190  0.0759  0.0703
  787loPI   C3A12257   2.910   3.225   7.939 -0.2146 -0.4456 -0.0609
  787loPI   C4A12258   3.052   3.245   8.354  0.2955  0.0216 -0.0781
  787loPI   C5A12259   2.956   3.557   8.694  0.1159  0.0944  0.0622
  787loPI   C6A12260   2.922   3.920   8.972  0.0074  0.4644 -0.2165
  787loPI   C1B12261   2.683   3.856   6.827  0.1467  0.1432  0.0957
  787loPI   C2B12262   2.628   3.845   7.232 -0.1520 -0.0516 -0.0050
  787loPI   C3B12263   2.678   3.782   7.656  0.0479  0.2768 -0.0334
  787loPI   C4B12264   2.785   3.668   8.120 -0.1312  0.0912 -0.3774
  788loPI    C112265   6.618  13.777   5.818  0.0217 -0.0912  0.0732
  788loPI    C212266   6.570  13.531   5.506  0.1414 -0.1195  0.0768
  788loPI    C312267   6.447  13.911   5.483 -0.2020 -0.2245  0.1321
  788loPI   PO412268   6.596  13.639   6.015  0.3037 -0.0945 -0.2033
  788loPI   GL112269   6.454  13.654   6.458  0.0843  0.0466  0.0217
  788loPI   GL212270   6.358  13.991   6.549 -0.0246  0.2148  0.0299
  788loPI   C1A12271   6.549  13.512   6.856 -0.0582 -0.3253  0.0306
  788loPI   C2A12272   6.629  13.566   7.294  0.3916 -0.0677 -0.0153
  788loPI   C3A12273   6.606  13.646   7.647  0.2612  0.0483 -0.3265
  788loPI   C4A12274   6.534  13.509   8.054 -0.0209  0.0107  0.0008
  788loPI   C5A12275   6.614  13.538   8.543  0.0440 -0.0100  0.1319
  788loPI   C6A12276   6.881  13.377   8.948 -0.1203  0.1040  0.0412
  788loPI   C1B12277   6.498  14.090   6.979  0.1517  0.2295  0.1921
  788loPI   C2B12278   6.504  14.094   7.428  0.1945  0.1050  0.4419
  788loPI   C3B12279   6.428  14.071   7.868 -0.0350  0.1256 -0.1879
  788loPI   C4B12280   6.621  14.111   8.356 -0.1020  0.0983  0.0143
  789loPI    C112281  14.205   0.335   5.466  0.1323 -0.1847 -0.0814
  789loPI    C212282  14.219   0.663   5.237  0.1073 -0.1630 -0.0519
  789loPI    C312283  14.122   0.310   5.076 -0.0112 -0.1296 -0.0551
  789loPI   PO412284  14.262   0.408   5.699  0.0291 -0.0739 -0.0097
  789loPI   GL112285  14.142   0.372   6.082  0.0920 -0.0775 -0.2889
  789loPI   GL212286  13.933   0.173   6.277  0.1168  0.3340 -0.1942
  789loPI   C1A12287  14.077   0.568   6.551  0.1315 -0.1309  0.1778
  789loPI   C2A12288  14.123   0.662   6.954  0.1235  0.0499  0.0844
  789loPI   C3A12289  14.042   0.635   7.312 -0.2503  0.1961  0.0091
  789loPI   C4A12290  14.112   0.630   7.797  0.1485  0.2368  0.2152
  789loPI   C5A12291  14.149   0.675   8.161  0.0401  0.0080  0.0029
  789loPI   C6A12292  14.007   0.438   8.461  0.1271 -0.0101 -0.0770
  789loPI   C1B12293  13.782   0.234   6.667  0.3997 -0.1971  0.4425
  789loPI   C2B12294  13.744   0.266   7.097 -0.0330  0.2193  0.1913
  789loPI   C3B12295  13.732   0.325   7.545 -0.2406  0.0487  0.2987
  789loPI   C4B12296  13.761   0.330   7.992 -0.1974 -0.1644 -0.2571
  790loPI    C112297   2.239   0.659   5.435 -0.1056 -0.0471 -0.1194
  790loPI    C212298   2.449   0.886   5.180 -0.1006  0.0411 -0.0370
  790loPI    C312299   2.454   0.488   5.143  0.1012  0.0410 -0.0212
  790loPI   PO412300   2.298   0.716   5.648  0.1438  0.0103 -0.0343
  790loPI   GL112301   2.573   0.720   5.950  0.1298 -0.5123  0.0050
  790loPI   GL212302   2.259   0.826   6.162 -0.0785 -0.1123 -0.3512
  790loPI   C1A12303   2.770   0.632   6.282 -0.1841  0.2172  0.0964
  790loPI   C2A12304   2.795   0.645   6.709  0.2027  0.0624  0.1657
  790loPI   C3A12305   2.760   0.535   7.116 -0.0571 -0.0025 -0.1552
  790loPI   C4A12306   2.764   0.572   7.531  0.2460  0.3766 -0.3979
  790loPI   C5A12307   2.723   0.437   8.026 -0.1294  0.0044  0.0537
  790loPI   C6A12308   2.534   0.671   8.341 -0.2675 -0.2724 -0.1594
  790loPI   C1B12309   2.188   0.674   6.603  0.1262 -0.0650 -0.0895
  790loPI   C2B12310   2.310   0.748   7.014  0.0920  0.5053  0.0394
  790loPI   C3B12311   2.235   0.613   7.430  0.2188 -0.2958 -0.2528
  790loPI   C4B12312   2.246   0.650   7.840  0.2207 -0.2354 -0.0851
  791loPI    C112313  15.845  14.945   5.526  0.1527  0.0163  0.0736
  791loPI    C212314  16.234  14.985   5.610  0.1185  0.1577  0.1675
  791loPI    C312315  16.109  14.996   5.230  0.2162  0.0200  0.1305
  791loPI   PO412316  15.785  15.000   5.824  0.0842  0.3007  0.0827
  791loPI   GL112317  15.631  15.131   6.168 -0.3370  0.0890 -0.0926
  791loPI   GL212318  15.431  15.355   6.261 -0.0678 -0.0251 -0.2333
  791loPI   C1A12319  15.493  15.039   6.604  0.1533  0.1808 -0.2468
  791loPI   C2A12320  15.454  15.033   7.043 -0.2876  0.2589  0.1656
  791loPI   C3A12321  15.422  15.022   7.469  0.3278  0.0285  0.2477
  791loPI   C4A12322  15.562  15.097   7.931  0.1366 -0.0348  0.1847
  791loPI   C5A12323  15.863  15.071   8.385  0.2505  0.2593  0.0065
  791loPI   C6A12324  15.919  15.057   8.827 -0.3164  0.0183  0.3843
  791loPI   C1B12325  15.425  15.519   6.695  0.0139  0.3202 -0.0618
  791loPI   C2B12326  15.362  15.534   7.135 -0.2135  0.0634  0.4683
  791loPI   C3B12327  15.351  15.525   7.581 -0.1689  0.0453 -0.0734
  791loPI   C4B12328  15.272  15.533   7.990  0.2550 -0.0117  0.2270
  792loPI    C112329   1.016  13.328   5.637 -0.1436  0.0694  0.0863
  792loPI    C212330   0.790  13.369   5.309  0.0618 -0.1838 -0.0907
  792loPI    C312331   1.095  13.620   5.375  0.0441 -0.1562 -0.1132
  792loPI   PO412332   0.881  13.351   5.840 -0.0459  0.1655  0.2349
  792loPI   GL112333   1.012  13.462   6.132  0.1113  0.0601 -0.1752
  792loPI   GL212334   1.234  13.244   6.233  0.2300  0.2280 -0.0840
  792loPI   C1A12335   0.809  13.352   6.513  0.2591 -0.1305 -0.4666
  792loPI   C2A12336   0.788  13.359   7.041 -0.1199  0.0374 -0.1229
  792loPI   C3A12337   0.805  13.332   7.481  0.1020  0.2837  0.1304
  792loPI   C4A12338   0.739  13.313   7.922  0.1357 -0.1202 -0.2901
  792loPI   C5A12339   0.591  13.415   8.295 -0.1029  0.1084 -0.0343
  792loPI   C6A12340   0.514  13.603   8.664  0.0484  0.0894  0.0122
  792loPI   C1B12341   1.262  13.348   6.617 -0.0167  0.0105 -0.0971
  792loPI   C2B12342   1.339  13.258   7.022 -0.0954  0.0275  0.2072
  792loPI   C3B12343   1.342  13.116   7.437  0.0539 -0.0737  0.0515
  792loPI   C4B12344   1.260  13.149   7.819  0.2211 -0.4218 -0.2457
  793loPI    C112345  10.406  16.524   5.682  0.1684  0.0827  0.1420
  793loPI    C212346  10.735  16.370   5.514  0.0148  0.0173 -0.1052
  793loPI    C312347  10.421  16.466   5.286 -0.1287  0.1044  0.1255
  793loPI   PO412348  10.343  16.370   5.827  0.0161  0.1456  0.1122
  793loPI   GL112349  10.323  16.172   6.257  0.0423 -0.2084 -0.0238
  793loPI   GL212350  10.096  16.387   6.339  0.1835  0.0862  0.1392
  793loPI   C1A12351  10.456  16.184   6.664 -0.0381  0.0900  0.4375
  793loPI   C2A12352  10.381  16.207   7.139  0.0041  0.1262 -0.0441
  793loPI   C3A12353  10.461  16.313   7.494  0.0517  0.0234 -0.0240
  793loPI   C4A12354  10.416  16.262   7.920 -0.0645  0.0150  0.0194
  793loPI   C5A12355  10.397  16.240   8.400 -0.2933  0.3587  0.2082
  793loPI   C6A12356  10.726  16.337   8.714 -0.1919  0.0466  0.4983
  793loPI   C1B12357   9.917  16.306   6.757 -0.3098 -0.3793  0.0540
  793loPI   C2B12358   9.910  16.407   7.335  0.1612  0.1993  0.0624
  793loPI   C3B12359   9.947  16.306   7.702 -0.1929  0.0096  0.0760
  793loPI   C4B12360   9.879  16.403   8.120 -0.3134  0.0311  0.1456
  794loPI    C112361   7.829  14.070   5.543 -0.1493 -0.1620  0.1933
  794loPI    C212362   7.461  13.918   5.508 -0.1212 -0.2089  0.0968
  794loPI    C312363   7.659  14.037   5.182 -0.0820 -0.1093  0.1566
  794loPI   PO412364   7.846  13.921   5.871  0.1908 -0.1889 -0.1135
  794loPI   GL112365   7.514  13.959   6.152 -0.0371  0.1572 -0.0652
  794loPI   GL212366   7.816  14.239   6.385  0.0284 -0.0453 -0.0680
  794loPI   C1A12367   7.350  13.828   6.568  0.4131 -0.1409 -0.2845
  794loPI   C2A12368   7.406  13.802   6.971 -0.0979  0.2908 -0.2969
  794loPI   C3A12369   7.489  13.793   7.383 -0.1691 -0.0440 -0.2060
  794loPI   C4A12370   7.454  13.824   7.878  0.1379  0.0513 -0.0978
  794loPI   C5A12371   7.456  13.733   8.217 -0.0195 -0.0319 -0.0628
  794loPI   C6A12372   7.502  13.998   8.633 -0.0840 -0.2600  0.1281
  794loPI   C1B12373   7.780  14.139   6.787 -0.1699  0.1984 -0.2412
  794loPI   C2B12374   7.783  14.187   7.227  0.1460  0.0948  0.0834
  794loPI   C3B12375   7.810  14.158   7.604  0.2621  0.2241  0.0579
  794loPI   C4B12376   7.756  14.182   8.082 -0.1674 -0.1396  0.0971
  795loPI    C112377   6.471   1.654   5.880 -0.2729 -0.0190 -0.1057
  795loPI    C212378   6.404   1.843   5.534  0.0701  0.3371  0.0152
  795loPI    C312379   6.656   1.532   5.547 -0.0444  0.2394 -0.0768
  795loPI   PO412380   6.419   1.938   6.033  0.1716 -0.2443 -0.0274
  795loPI   GL112381   6.051   2.047   6.290  0.2433 -0.0928  0.3151
  795loPI   GL212382   5.969   2.243   6.134  0.1732  0.2668  0.1561
  795loPI   C1A12383   6.044   2.121   6.719  0.0980  0.0529 -0.1466
  795loPI   C2A12384   6.046   2.047   7.195 -0.1225  0.2920 -0.0041
  795loPI   C3A12385   6.150   2.112   7.759 -0.0324  0.1791 -0.3342
  795loPI   C4A12386   6.172   2.061   8.194 -0.5159 -0.3636  0.0735
  795loPI   C5A12387   6.373   1.731   8.451  0.2367 -0.2067 -0.1444
  795loPI   C6A12388   6.271   1.259   8.433  0.1248 -0.1908  0.3752
  795loPI   C1B12389   6.004   2.578   6.418  0.1423 -0.0302 -0.3223
  795loPI   C2B12390   5.871   2.581   6.858 -0.0078 -0.0160 -0.1717
  795loPI   C3B12391   5.872   2.605   7.340 -0.0381  0.3166  0.1989
  795loPI   C4B12392   5.984   2.703   7.684  0.3744  0.0915  0.0489
  796loPI    C112393  11.520  13.220   5.696  0.0151  0.0940  0.0509
  796loPI    C212394  11.679  13.196   5.330  0.0412 -0.0329  0.0701
  796loPI    C312395  11.321  13.035   5.404  0.0482 -0.0315  0.1074
  796loPI   PO412396  11.643  13.234   5.850 -0.5023  0.0626  0.1594
  796loPI   GL112397  11.702  13.370   6.218 -0.1335  0.4776 -0.0608
  796loPI   GL212398  11.576  13.597   6.416 -0.0692  0.2072  0.1050
  796loPI   C1A12399  11.711  13.102   6.582 -0.0348 -0.1460 -0.1395
  796loPI   C2A12400  11.786  13.087   6.961 -0.0030  0.1788  0.0685
  796loPI   C3A12401  11.808  13.120   7.318  0.5326 -0.4154 -0.0055
  796loPI   C4A12402  11.785  13.198   7.715  0.2973 -0.0808  0.1679
  796loPI   C5A12403  11.842  13.215   8.161  0.3852  0.2952  0.2482
  796loPI   C6A12404  11.926  13.300   8.568  0.0957  0.1226 -0.1612
  796loPI   C1B12405  11.638  13.560   6.820 -0.2307 -0.0153  0.1708
  796loPI   C2B12406  11.623  13.658   7.229 -0.3854 -0.2477 -0.1665
  796loPI   C3B12407  11.646  13.696   7.642  0.0039 -0.1100  0.4038
  796loPI   C4B12408  11.757  13.687   8.100 -0.0888  0.3148  0.1776
  797loPI    C112409   4.982  15.887   5.545  0.0186  0.1398  0.1344
  797loPI    C212410   4.974  15.564   5.309  0.0513  0.3287 -0.1299
  797loPI    C312411   5.112  15.912   5.167  0.3095  0.3858  0.2465
  797loPI   PO412412   4.782  15.828   5.715  0.2893 -0.1648 -0.2206
  797loPI   GL112413   4.686  15.783   6.076 -0.1315 -0.1458 -0.2152
  797loPI   GL212414   4.767  16.129   6.154  0.0569  0.2373  0.1317
  797loPI   C1A12415   4.405  15.824   6.436 -0.4695  0.2240 -0.0374
  797loPI   C2A12416   4.431  15.870   6.814 -0.1041  0.0204  0.0091
  797loPI   C3A12417   4.427  15.924   7.232  0.0454 -0.2151  0.0100
  797loPI   C4A12418   4.471  15.862   7.682 -0.1075 -0.4207  0.0929
  797loPI   C5A12419   4.285  15.896   8.101  0.2237 -0.0239 -0.0476
  797loPI   C6A12420   4.354  15.773   8.562  0.1297 -0.0977  0.0574
  797loPI   C1B12421   4.727  16.220   6.560 -0.1248 -0.4591 -0.0005
  797loPI   C2B12422   4.799  16.284   6.942 -0.1862  0.1239  0.0246
  797loPI   C3B12423   4.823  16.192   7.354 -0.2344 -0.3026 -0.0449
  797loPI   C4B12424   4.741  16.281   7.737  0.1196  0.1297 -0.0194
  798loPI    C112425  12.069  13.014   5.933 -0.0428 -0.1586 -0.0422
  798loPI    C212426  12.311  12.844   5.664 -0.1891 -0.1080 -0.2075
  798loPI    C312427  12.121  13.185   5.576 -0.1911 -0.0586 -0.0169
  798loPI   PO412428  11.856  12.778   5.988 -0.1135  0.4060  0.0186
  798loPI   GL112429  11.461  12.825   6.275 -0.0006  0.0435 -0.2553
  798loPI   GL212430  11.312  12.576   6.189 -0.1948 -0.0940 -0.5325
  798loPI   C1A12431  11.356  12.778   6.707  0.0427  0.3470  0.2611
  798loPI   C2A12432  11.382  12.765   7.190 -0.1283  0.1430  0.1146
  798loPI   C3A12433  11.446  12.824   7.549 -0.2892 -0.0539  0.3665
  798loPI   C4A12434  11.491  12.873   8.026  0.3597  0.0323 -0.2224
  798loPI   C5A12435  11.349  12.773   8.437 -0.1790 -0.2078 -0.1217
  798loPI   C6A12436  11.469  12.537   8.748 -0.0462 -0.0520  0.2805
  798loPI   C1B12437  11.094  12.379   6.585  0.2031  0.0169 -0.3195
  798loPI   C2B12438  11.056  12.396   7.065  0.1080 -0.1622  0.0204
  798loPI   C3B12439  11.062  12.450   7.559  0.1785  0.3743 -0.1948
  798loPI   C4B12440  11.045  12.484   7.994 -0.0212 -0.0503 -0.1207
  799loPI    C112441   2.957   7.761   5.806  0.0059  0.0187 -0.0712
  799loPI    C212442   3.265   7.942   5.626  0.1932 -0.0577  0.1670
  799loPI    C312443   3.004   7.729   5.410  0.2641  0.0685 -0.0462
  799loPI   PO412444   3.030   7.787   6.051  0.2938  0.2145 -0.1820
  799loPI   GL112445   2.836   7.572   6.406  0.0310 -0.0823  0.1465
  799loPI   GL212446   3.145   7.511   6.570 -0.1594 -0.1975  0.2187
  799loPI   C1A12447   2.663   7.681   6.839 -0.0144  0.0034 -0.0561
  799loPI   C2A12448   2.715   7.689   7.274  0.0949 -0.2172 -0.2255
  799loPI   C3A12449   2.658   7.731   7.771 -0.1540 -0.0813 -0.1526
  799loPI   C4A12450   2.676   7.753   8.259 -0.1321 -0.0115  0.2377
  799loPI   C5A12451   2.374   7.678   8.567 -0.1254 -0.0078 -0.1757
  799loPI   C6A12452   2.157   8.119   8.615  0.1567 -0.1906 -0.1291
  799loPI   C1B12453   3.105   7.388   7.013 -0.0594  0.0491 -0.2271
  799loPI   C2B12454   3.183   7.507   7.389 -0.1277 -0.3370 -0.2672
  799loPI   C3B12455   3.157   7.495   7.862  0.1233 -0.0950 -0.1694
  799loPI   C4B12456   3.146   7.495   8.350  0.0388 -0.1400 -0.0363
  800loPI    C112457  12.930   4.358   5.955 -0.0486  0.3455  0.2668
  800loPI    C212458  13.251   4.578   6.047  0.3595 -0.0351 -0.1903
  800loPI    C312459  13.263   4.180   6.085 -0.1901 -0.0319  0.1270
  800loPI   PO412460  12.742   4.437   6.078 -0.2204  0.0108  0.1350
  800loPI   GL112461  12.749   4.490   6.461 -0.0174  0.0884 -0.1180
  800loPI   GL212462  12.928   4.661   6.443 -0.0026 -0.1948  0.4310
  800loPI   C1A12463  12.772   4.561   6.864 -0.2019 -0.0284 -0.0469
  800loPI   C2A12464  12.799   4.552   7.362 -0.0943 -0.1716 -0.2413
  800loPI   C3A12465  12.793   4.625   7.844 -0.3198  0.1320  0.0449
  800loPI   C4A12466  12.883   4.550   8.287 -0.0226 -0.0409  0.1674
  800loPI   C5A12467  12.797   4.597   8.715  0.0416 -0.0831  0.1045
  800loPI   C6A12468  12.841   4.704   9.147 -0.1004 -0.1206  0.0953
  800loPI   C1B12469  13.206   4.407   6.558  0.0190  0.2988  0.2250
  800loPI   C2B12470  13.255   4.394   6.931  0.1600 -0.0791  0.1209
  800loPI   C3B12471  13.330   4.434   7.356 -0.1830 -0.1321  0.0071
  800loPI   C4B12472  13.291   4.468   7.856 -0.1886  0.0355  0.0514
  801loPI    C112473  13.000  12.123   5.907 -0.1817  0.0538 -0.0198
  801loPI    C212474  13.251  12.117   5.596 -0.1113 -0.0475  0.0383
  801loPI    C312475  12.859  12.169   5.535 -0.0741  0.1397 -0.0502
  801loPI   PO412476  13.072  12.374   6.093  0.1493  0.1324 -0.0404
  801loPI   GL112477  13.380  12.406   6.443 -0.0969 -0.1390  0.0614
  801loPI   GL212478  13.283  12.634   6.521 -0.1298  0.0123 -0.0419
  801loPI   C1A12479  13.412  12.235   6.816 -0.1819  0.0155 -0.1549
  801loPI   C2A12480  13.482  12.248   7.229 -0.1121  0.0048 -0.1282
  801loPI   C3A12481  13.471  12.300   7.696 -0.1549 -0.2490 -0.0480
  801loPI   C4A12482  13.382  12.381   8.132  0.2122  0.3240 -0.1245
  801loPI   C5A12483  13.479  12.291   8.537 -0.0519  0.0441 -0.2216
  801loPI   C6A12484  13.695  12.103   8.839  0.0951 -0.0419  0.0248
  801loPI   C1B12485  13.373  12.714   6.906 -0.3778 -0.0593  0.0439
  801loPI   C2B12486  13.331  12.826   7.315 -0.1782 -0.1413 -0.0357
  801loPI   C3B12487  13.253  12.800   7.717 -0.3892  0.2148 -0.0653
  801loPI   C4B12488  13.292  12.865   8.190  0.2730  0.1683 -0.1114
  802loPI    C112489   2.919   0.378   5.375  0.1784  0.0206 -0.1572
  802loPI    C212490   2.752   0.083   5.162  0.0575  0.0015 -0.0372
  802loPI    C312491   3.125   0.044   5.300 -0.0310 -0.1837  0.1551
  802loPI   PO412492   2.736   0.397   5.572  0.3810  0.1273 -0.1265
  802loPI   GL112493   2.715   0.174   6.005  0.3582  0.0567 -0.1578
  802loPI   GL212494   2.398   0.291   6.065  0.2802 -0.1352  0.2116
  802loPI   C1A12495   2.979   0.085   6.454  0.1940  0.0347 -0.1602
  802loPI   C2A12496   2.829   0.085   6.892  0.0994  0.0369 -0.1448
  802loPI   C3A12497   2.903   0.110   7.258 -0.0474  0.0612  0.3012
  802loPI   C4A12498   2.858   0.048   7.663  0.1360  0.0215  0.1073
  802loPI   C5A12499   3.090  -0.083   8.027 -0.0904 -0.2216 -0.0741
  802loPI   C6A12500   3.541   0.044   8.080  0.1619 -0.2179  0.0632
  802loPI   C1B12501   2.491   0.257   6.531  0.2672  0.1665 -0.1263
  802loPI   C2B12502   2.349   0.194   6.992 -0.1848 -0.2057  0.2187
  802loPI   C3B12503   2.432   0.184   7.386  0.3394  0.2249  0.4569
  802loPI   C4B12504   2.397   0.086   7.824 -0.0307  0.0439 -0.1296
  803loPI    C112505  10.967  16.621   5.905  0.0496 -0.1095  0.0064
  803loPI    C212506  11.132  16.760   5.568 -0.0418  0.1811  0.0782
  803loPI    C312507  11.363  16.672   5.883  0.0464 -0.1163 -0.0662
  803loPI   PO412508  10.765  16.767   5.909 -0.2140 -0.0764  0.0984
  803loPI   GL112509  10.513  16.628   6.266 -0.1559 -0.1546 -0.5075
  803loPI   GL212510  10.800  16.622   6.473  0.1100 -0.1279  0.2288
  803loPI   C1A12511  10.190  16.736   6.655  0.0634 -0.4315  0.2896
  803loPI   C2A12512  10.263  16.670   7.097  0.1993 -0.0287 -0.2353
  803loPI   C3A12513  10.208  16.775   7.510 -0.1295  0.2317 -0.4132
  803loPI   C4A12514  10.266  16.757   7.893  0.0806  0.0829  0.0565
  803loPI   C5A12515  10.221  16.695   8.340 -0.0634  0.0444 -0.1026
  803loPI   C6A12516  10.143  17.012   8.732  0.1129  0.0735  0.0411
  803loPI   C1B12517  10.750  16.630   6.900 -0.0201 -0.0714 -0.1817
  803loPI   C2B12518  10.749  16.643   7.325  0.3018 -0.2445 -0.0727
  803loPI   C3B12519  10.820  16.745   7.813  0.2738  0.2055  0.0365
  803loPI   C4B12520  10.715  16.593   8.214 -0.2761  0.1543  0.2545
  804loPI    C112521   5.801   7.297   5.552  0.0613  0.0070 -0.0894
  804loPI    C212522   5.666   7.034   5.283 -0.1305 -0.3466  0.3384
  804loPI    C312523   5.506   7.400   5.304 -0.2220 -0.3695  0.0808
  804loPI   PO412524   5.771   7.201   5.803  0.1036 -0.0682  0.3731
  804loPI   GL112525   5.823   7.256   6.274 -0.0169  0.0632 -0.0890
  804loPI   GL212526   6.149   7.580   6.404 -0.1354  0.1036  0.0727
  804loPI   C1A12527   5.965   7.171   6.649 -0.2570 -0.1065  0.0057
  804loPI   C2A12528   5.998   7.134   7.105 -0.1416  0.1547  0.0477
  804loPI   C3A12529   5.967   7.245   7.567 -0.0802  0.1472 -0.0296
  804loPI   C4A12530   6.019   7.256   8.023  0.0192 -0.1301  0.0623
  804loPI   C5A12531   6.151   7.475   8.481  0.2252  0.0012  0.2405
  804loPI   C6A12532   6.061   7.660   8.866 -0.2301  0.0124  0.0555
  804loPI   C1B12533   6.276   7.585   6.827  0.0155  0.2646  0.3087
  804loPI   C2B12534   6.375   7.514   7.210 -0.1262  0.0133  0.0382
  804loPI   C3B12535   6.306   7.562   7.624 -0.2032  0.1286  0.0629
  804loPI   C4B12536   6.429   7.534   8.084  0.1626 -0.0606  0.1652
  805loPI    C112537  16.339  14.343   5.601 -0.1130 -0.1005  0.0437
  805loPI    C212538  16.088  14.478   5.320  0.1223  0.1972 -0.0284
  805loPI    C312539  16.372  14.213   5.224 -0.1507 -0.1323  0.0512
  805loPI   PO412540  16.465  14.577   5.749  0.0770  0.0144 -0.2070
  805loPI   GL112541  16.433  14.736   6.232  0.2019  0.0242  0.1101
  805loPI   GL212542  16.104  14.866   6.154  0.1796 -0.0251 -0.0546
  805loPI   C1A12543  16.581  14.774   6.603  0.4111 -0.2425  0.1355
  805loPI   C2A12544  16.550  14.806   6.929  0.0400 -0.0891  0.0190
  805loPI   C3A12545  16.515  14.807   7.425  0.1963 -0.0765 -0.0423
  805loPI   C4A12546  16.535  14.723   7.854 -0.0201 -0.1772 -0.0650
  805loPI   C5A12547  16.440  14.761   8.285 -0.0009 -0.1075  0.0146
  805loPI   C6A12548  16.056  14.596   8.592 -0.0343 -0.2278 -0.0329
  805loPI   C1B12549  16.055  14.889   6.607  0.3241 -0.0374 -0.1673
  805loPI   C2B12550  15.975  14.915   7.095  0.1082  0.0979 -0.2018
  805loPI   C3B12551  15.908  14.914   7.525 -0.1548 -0.0633 -0.0295
  805loPI   C4B12552  16.039  14.855   7.955 -0.0710  0.0821  0.1016
  806loPI    C112553   4.418  16.669   5.484  0.1691  0.1149 -0.0590
  806loPI    C212554   4.187  16.532   5.187  0.1525 -0.1757  0.0838
  806loPI    C312555   4.583  16.474   5.176  0.1830  0.0380 -0.0033
  806loPI   PO412556   4.247  16.622   5.678 -0.0791 -0.2577 -0.1295
  806loPI   GL112557   4.120  16.925   6.031 -0.0729 -0.0159 -0.1029
  806loPI   GL212558   3.907  16.638   6.090 -0.0120  0.0532  0.2172
  806loPI   C1A12559   4.096  16.907   6.573 -0.1748  0.0078 -0.0678
  806loPI   C2A12560   4.135  16.858   6.920  0.1983 -0.3601  0.0915
  806loPI   C3A12561   4.147  16.846   7.343 -0.4501 -0.0508  0.0061
  806loPI   C4A12562   4.071  16.799   7.692 -0.0957 -0.0515  0.2771
  806loPI   C5A12563   3.841  16.954   8.002 -0.2541  0.0822 -0.1666
  806loPI   C6A12564   3.620  17.073   8.436 -0.1456 -0.0305  0.3232
  806loPI   C1B12565   3.805  16.513   6.501  0.1922  0.2353 -0.1048
  806loPI   C2B12566   3.760  16.486   6.924 -0.0555 -0.1397 -0.2808
  806loPI   C3B12567   3.801  16.511   7.354 -0.4576  0.1005  0.2153
  806loPI   C4B12568   3.735  16.425   7.785  0.0336 -0.1293  0.2711
  807loPI    C112569   6.818   6.008   5.692  0.0664 -0.1202 -0.0538
  807loPI    C212570   6.748   6.387   5.583 -0.0938 -0.1880 -0.1915
  807loPI    C312571   7.111   6.226   5.528  0.0348  0.0090  0.0600
  807loPI   PO412572   6.720   5.978   5.938 -0.1130 -0.2693 -0.0226
  807loPI   GL112573   6.778   6.119   6.319  0.1146  0.0799 -0.2466
  807loPI   GL212574   6.857   6.415   6.438 -0.1380 -0.2861  0.1567
  807loPI   C1A12575   6.617   5.953   6.716 -0.0870  0.0449  0.1165
  807loPI   C2A12576   6.288   5.699   6.967  0.2272  0.1123 -0.1538
  807loPI   C3A12577   6.267   5.708   7.386  0.0418 -0.2247 -0.0491
  807loPI   C4A12578   6.380   5.702   7.807 -0.1645  0.1481  0.2075
  807loPI   C5A12579   6.721   5.753   8.059  0.1211 -0.5057 -0.1761
  807loPI   C6A12580   6.931   6.018   8.372  0.0206  0.0197 -0.1396
  807loPI   C1B12581   7.089   6.541   6.820  0.0227  0.0559  0.0954
  807loPI   C2B12582   7.076   6.420   7.258  0.1299  0.1907 -0.0125
  807loPI   C3B12583   7.103   6.482   7.746  0.1133 -0.2255 -0.3295
  807loPI   C4B12584   7.105   6.452   8.216  0.0290 -0.1734 -0.1075
  808loPI    C112585   4.696  11.614   5.763 -0.0633 -0.0817  0.0417
  808loPI    C212586   5.027  11.634   5.538 -0.1053  0.0460 -0.0090
  808loPI    C312587   4.760  11.343   5.475  0.0090 -0.0721  0.0484
  808loPI   PO412588   4.754  11.566   6.022  0.2128  0.0951 -0.4117
  808loPI   GL112589   4.695  11.760   6.325 -0.1232 -0.1483  0.1069
  808loPI   GL212590   4.984  11.742   6.438  0.1073  0.4292  0.0660
  808loPI   C1A12591   4.394  11.909   6.654 -0.1673  0.2468 -0.1589
  808loPI   C2A12592   4.320  11.848   7.053 -0.2441 -0.1113  0.2158
  808loPI   C3A12593   4.297  11.817   7.390 -0.1848  0.0012  0.0104
  808loPI   C4A12594   4.353  11.839   7.877 -0.0356  0.1592 -0.0248
  808loPI   C5A12595   4.295  11.873   8.341  0.2257  0.0622  0.1264
  808loPI   C6A12596   4.418  11.960   8.674 -0.0976  0.3298 -0.0680
  808loPI   C1B12597   4.807  11.744   6.909 -0.1669  0.2565 -0.1457
  808loPI   C2B12598   4.763  11.710   7.419 -0.0223  0.1665  0.0894
  808loPI   C3B12599   4.842  11.700   7.850  0.0525  0.0250 -0.3004
  808loPI   C4B12600   4.802  11.641   8.373  0.0213 -0.4283 -0.0059
  809loPI    C112601   0.925  12.808   5.457 -0.2134  0.1865 -0.1586
  809loPI    C212602   0.720  12.543   5.238 -0.0366 -0.2183  0.1531
  809loPI    C312603   0.927  12.834   5.058 -0.2770 -0.2553 -0.1923
  809loPI   PO412604   0.752  12.912   5.604  0.0831  0.0139 -0.2024
  809loPI   GL112605   0.490  12.905   5.971 -0.0695 -0.1867 -0.2708
  809loPI   GL212606   0.827  12.910   6.130 -0.2383 -0.0950  0.1307
  809loPI   C1A12607   0.344  12.978   6.392  0.0162 -0.1742  0.0806
  809loPI   C2A12608   0.376  12.974   6.772 -0.1456  0.0243  0.2093
  809loPI   C3A12609   0.406  12.980   7.202  0.3700 -0.1718  0.0658
  809loPI   C4A12610   0.353  12.991   7.614 -0.1771  0.1797 -0.2502
  809loPI   C5A12611   0.348  12.974   8.041  0.1526 -0.0266 -0.1974
  809loPI   C6A12612   0.377  13.035   8.495  0.0592 -0.0680 -0.0505
  809loPI   C1B12613   0.887  12.863   6.621  0.0282 -0.0285 -0.0447
  809loPI   C2B12614   0.918  12.867   7.169  0.1555  0.0821  0.1792
  809loPI   C3B12615   0.856  12.853   7.631  0.0473  0.0628 -0.3737
  809loPI   C4B12616   0.824  12.800   8.146 -0.0601  0.0891  0.0273
  810loPI    C112617   2.470   6.320   5.524 -0.1926 -0.0085  0.1377
  810loPI    C212618   2.334   6.681   5.419 -0.0574 -0.0409 -0.1620
  810loPI    C312619   2.443   6.419   5.137 -0.0926 -0.2935  0.0548
  810loPI   PO412620   2.656   6.435   5.832 -0.0082 -0.1017  0.0851
  810loPI   GL112621   2.629   6.420   6.317  0.1014  0.0588  0.2192
  810loPI   GL212622   2.504   6.135   6.439 -0.3107 -0.1131 -0.4171
  810loPI   C1A12623   2.844   6.633   6.734 -0.0532  0.0181  0.1826
  810loPI   C2A12624   2.924   6.575   7.156 -0.0900  0.0317  0.0630
  810loPI   C3A12625   2.923   6.629   7.630 -0.0140  0.0593 -0.1329
  810loPI   C4A12626   2.876   6.551   8.073  0.3393  0.0943 -0.1260
  810loPI   C5A12627   2.772   6.400   8.577 -0.1007 -0.3388 -0.0898
  810loPI   C6A12628   2.715   6.184   8.897  0.0382 -0.0388 -0.3409
  810loPI   C1B12629   2.487   6.296   6.870 -0.0774  0.0414 -0.0004
  810loPI   C2B12630   2.478   6.305   7.284 -0.0017 -0.0542 -0.0905
  810loPI   C3B12631   2.533   6.317   7.752 -0.0223 -0.1321  0.0600
  810loPI   C4B12632   2.418   6.150   8.205  0.0878  0.1632  0.0599
  811loPI    C112633   9.760   3.390   5.864 -0.1516 -0.1232 -0.2145
  811loPI    C212634  10.000   3.686   5.743 -0.0283 -0.1461 -0.0301
  811loPI    C312635   9.778   3.487   5.476  0.0129  0.0018 -0.1765
  811loPI   PO412636   9.634   3.487   6.123  0.0387  0.0207 -0.0442
  811loPI   GL112637   9.338   3.445   6.442 -0.0717  0.0589 -0.1293
  811loPI   GL212638   9.016   3.412   6.327  0.1405  0.1583  0.0005
  811loPI   C1A12639   9.392   3.522   6.918 -0.0443 -0.0858  0.2341
  811loPI   C2A12640   9.377   3.601   7.342  0.0147  0.3152 -0.2493
  811loPI   C3A12641   9.334   3.648   7.767  0.0114 -0.0375  0.0847
  811loPI   C4A12642   9.288   3.583   8.235 -0.0164 -0.0068  0.0799
  811loPI   C5A12643   9.336   3.784   8.653 -0.1647  0.3208 -0.1911
  811loPI   C6A12644   9.167   4.138   8.839 -0.0375 -0.1241 -0.3150
  811loPI   C1B12645   8.851   3.686   6.696  0.0968  0.0468  0.1195
  811loPI   C2B12646   8.795   3.667   7.068 -0.1343 -0.3649  0.1792
  811loPI   C3B12647   8.805   3.738   7.486 -0.2943 -0.1445 -0.0373
  811loPI   C4B12648   8.890   3.779   7.960 -0.1612  0.4014 -0.2615
  812loPI    C112649   0.825   1.919   5.841  0.0051  0.0663 -0.0998
  812loPI    C212650   0.675   1.800   5.489 -0.0954  0.2051 -0.1046
  812loPI    C312651   0.777   2.183   5.545  0.1446  0.1366 -0.0605
  812loPI   PO412652   0.647   1.782   6.005 -0.0142 -0.4076 -0.1263
  812loPI   GL112653   0.626   1.670   6.367  0.0714  0.2524 -0.4243
  812loPI   GL212654   0.525   2.047   6.434 -0.3096 -0.2748  0.1453
  812loPI   C1A12655   0.696   1.481   6.752  0.0375 -0.0615 -0.0037
  812loPI   C2A12656   0.543   1.448   7.189  0.1681 -0.0997  0.0263
  812loPI   C3A12657   0.610   1.518   7.635 -0.0085 -0.0876  0.3726
  812loPI   C4A12658   0.513   1.523   8.099  0.1263  0.1110 -0.0933
  812loPI   C5A12659   0.342   1.541   8.571 -0.0215 -0.2608 -0.0747
  812loPI   C6A12660   0.335   1.166   8.943  0.1992 -0.0367  0.0483
  812loPI   C1B12661   0.384   2.002   6.749 -0.3232 -0.1092 -0.0765
  812loPI   C2B12662   0.362   2.036   7.152  0.2307  0.2210 -0.2554
  812loPI   C3B12663   0.449   1.986   7.544 -0.4216  0.2373 -0.0250
  812loPI   C4B12664   0.482   1.968   7.905 -0.2305  0.2288 -0.0388
  813loPI    C112665  17.474   8.643   5.514 -0.0363  0.0258 -0.0700
  813loPI    C212666  17.688   8.968   5.419  0.2273 -0.0928  0.1046
  813loPI    C312667  17.730   8.632   5.206 -0.2924  0.0775 -0.2884
  813loPI   PO412668  17.454   8.488   5.794 -0.2014  0.0146  0.2116
  813loPI   GL112669  17.449   8.598   6.187 -0.3400 -0.0823 -0.0421
  813loPI   GL212670  17.225   8.678   6.332  0.1157 -0.0485  0.1160
  813loPI   C1A12671  17.652   8.503   6.513  0.1448  0.0301  0.2705
  813loPI   C2A12672  17.701   8.483   6.916  0.2846  0.0336  0.0489
  813loPI   C3A12673  17.673   8.445   7.359 -0.1136 -0.0588  0.2809
  813loPI   C4A12674  17.628   8.487   7.800 -0.1507  0.1194 -0.0838
  813loPI   C5A12675  17.648   8.321   8.237 -0.0660 -0.3787 -0.1185
  813loPI   C6A12676  17.727   7.973   8.512  0.2140 -0.1006  0.3851
  813loPI   C1B12677  17.178   8.646   6.755  0.0488 -0.2622  0.0687
  813loPI   C2B12678  17.242   8.564   7.205 -0.0677  0.0277 -0.2119
  813loPI   C3B12679  17.170   8.585   7.594  0.1658  0.2904  0.1050
  813loPI   C4B12680  17.157   8.587   8.042  0.0586  0.1348 -0.1644
  814loPI    C112681   2.418  16.157   5.450 -0.1324  0.0192  0.2066
  814loPI    C212682   2.061  16.230   5.615 -0.2769  0.2540 -0.1951
  814loPI    C312683   2.142  16.365   5.247  0.1540  0.0230 -0.1906
  814loPI   PO412684   2.528  16.156   5.734 -0.1264 -0.1122  0.1567
  814loPI   GL112685   2.590  16.052   6.215  0.0709  0.2512 -0.0966
  814loPI   GL212686   2.889  16.189   6.105 -0.2609  0.0991  0.0191
  814loPI   C1A12687   2.459  15.874   6.586  0.1135  0.0900 -0.0448
  814loPI   C2A12688   2.449  15.765   6.970  0.2277 -0.1108  0.1213
  814loPI   C3A12689   2.565  15.766   7.432  0.3335 -0.0771 -0.0140
  814loPI   C4A12690   2.466  15.707   7.925 -0.1781  0.0290  0.1494
  814loPI   C5A12691   2.390  15.461   8.351  0.2774 -0.0503 -0.1474
  814loPI   C6A12692   2.326  15.493   8.833 -0.2607  0.2945 -0.1248
  814loPI   C1B12693   2.874  16.201   6.618  0.1306  0.0689 -0.0662
  814loPI   C2B12694   2.944  16.224   7.039 -0.0217 -0.0190  0.0315
  814loPI   C3B12695   2.837  16.169   7.483  0.1324 -0.0858  0.2606
  814loPI   C4B12696   2.819  16.055   7.981  0.0965  0.1151 -0.0334
  815loPI    C112697   7.315  13.449   5.625 -0.1977 -0.3947  0.2008
  815loPI    C212698   7.045  13.659   5.418 -0.0053 -0.2569  0.0857
  815loPI    C312699   7.088  13.267   5.351  0.0991 -0.2017 -0.1838
  815loPI   PO412700   7.396  13.596   5.848  0.3543 -0.0160 -0.1040
  815loPI   GL112701   7.094  13.474   6.176 -0.0077 -0.0096  0.1172
  815loPI   GL212702   7.386  13.345   6.266 -0.0126 -0.0571 -0.1124
  815loPI   C1A12703   6.943  13.441   6.521 -0.1349  0.0039  0.4749
  815loPI   C2A12704   7.056  13.414   6.931 -0.2364 -0.0131  0.0300
  815loPI   C3A12705   7.109  13.432   7.354  0.1073  0.1385  0.3536
  815loPI   C4A12706   7.101  13.460   7.787 -0.1595 -0.1778  0.1442
  815loPI   C5A12707   6.984  13.410   8.250  0.1578  0.0716 -0.1686
  815loPI   C6A12708   7.093  13.725   8.567  0.1207 -0.2138 -0.0935
  815loPI   C1B12709   7.500  13.266   6.640 -0.2513  0.1896  0.2246
  815loPI   C2B12710   7.580  13.328   7.087 -0.1364  0.1286  0.0601
  815loPI   C3B12711   7.618  13.358   7.545 -0.1752  0.3687  0.0822
  815loPI   C4B12712   7.551  13.351   7.918 -0.0132  0.2450  0.2795
  816loPI    C112713   1.252   2.444   5.799 -0.2271 -0.2319  0.2698
  816loPI    C212714   1.278   2.087   5.621 -0.4636 -0.0920 -0.0566
  816loPI    C312715   1.226   2.416   5.401  0.0300  0.1822  0.2176
  816loPI   PO412716   1.104   2.400   5.960  0.3051  0.1815 -0.1454
  816loPI   GL112717   1.245   2.265   6.366 -0.2178 -0.2031 -0.1230
  816loPI   GL212718   0.989   2.039   6.298 -0.0182 -0.0198 -0.0786
  816loPI   C1A12719   1.327   2.229   6.806  0.0484 -0.1477 -0.0805
  816loPI   C2A12720   1.296   2.244   7.240  0.2312  0.0593  0.0034
  816loPI   C3A12721   1.321   2.256   7.642 -0.3231  0.1034  0.2357
  816loPI   C4A12722   1.350   2.241   8.003  0.0662 -0.1056 -0.3457
  816loPI   C5A12723   1.332   1.820   8.335  0.1708  0.0518 -0.0908
  816loPI   C6A12724   1.334   1.490   8.607 -0.0715 -0.1170 -0.3299
  816loPI   C1B12725   0.927   1.943   6.720  0.2163 -0.0191  0.1024
  816loPI   C2B12726   0.890   1.825   7.103  0.1847  0.2344 -0.0478
  816loPI   C3B12727   0.969   1.972   7.489  0.0195  0.1608  0.1433
  816loPI   C4B12728   0.979   1.904   7.875  0.1001 -0.2539 -0.0419
  817loPI    C112729  16.396   1.204   5.676 -0.1269  0.0618 -0.0467
  817loPI    C212730  16.525   0.828   5.722  0.0149  0.0770 -0.3004
  817loPI    C312731  16.226   0.907   5.469 -0.1393  0.1125 -0.1095
  817loPI   PO412732  16.349   1.312   5.917 -0.0964 -0.1989 -0.1952
  817loPI   GL112733  16.370   1.043   6.301 -0.1027 -0.2743  0.2031
  817loPI   GL212734  16.521   0.767   6.220 -0.0284  0.1141 -0.3305
  817loPI   C1A12735  16.437   1.042   6.755 -0.0768 -0.0587 -0.1812
  817loPI   C2A12736  16.303   0.994   7.151 -0.0692 -0.2503 -0.0371
  817loPI   C3A12737  16.387   0.969   7.556  0.2867  0.2833 -0.1810
  817loPI   C4A12738  16.457   0.932   7.990  0.0066 -0.3743  0.1617
  817loPI   C5A12739  16.231   0.648   8.336  0.4708 -0.0541 -0.0591
  817loPI   C6A12740  16.150   0.259   8.491  0.2076  0.2246  0.1713
  817loPI   C1B12741  16.513   0.610   6.575  0.3686 -0.0785 -0.1829
  817loPI   C2B12742  16.537   0.525   6.999 -0.0195 -0.0351 -0.3316
  817loPI   C3B12743  16.502   0.525   7.405  0.2020  0.0355  0.2469
  817loPI   C4B12744  16.596   0.516   7.848 -0.2306  0.0062 -0.0190
  818loPI    C112745   4.256   4.050   5.585 -0.0311  0.1966 -0.0351
  818loPI    C212746   3.967   4.122   5.318  0.0914  0.1371 -0.1858
  818loPI    C312747   4.339   4.251   5.249  0.1143  0.1613 -0.0210
  818loPI   PO412748   4.111   4.107   5.799  0.3185  0.0385  0.1634
  818loPI   GL112749   4.022   3.928   6.215 -0.2065  0.0041 -0.2397
  818loPI   GL212750   3.895   4.243   6.283 -0.0980 -0.0655 -0.0057
  818loPI   C1A12751   4.052   3.872   6.700 -0.2264 -0.0062  0.1989
  818loPI   C2A12752   4.000   3.984   7.094 -0.0722 -0.2443  0.2624
  818loPI   C3A12753   4.119   3.935   7.513  0.2133 -0.1895 -0.0371
  818loPI   C4A12754   4.056   3.977   7.963 -0.2353 -0.0644 -0.0011
  818loPI   C5A12755   3.869   4.137   8.291  0.3091 -0.1760  0.0781
  818loPI   C6A12756   3.538   4.365   8.500 -0.3862 -0.0435  0.1737
  818loPI   C1B12757   3.896   4.438   6.761  0.1800 -0.1229 -0.0004
  818loPI   C2B12758   3.941   4.534   7.146  0.1245  0.0099 -0.0370
  818loPI   C3B12759   3.985   4.452   7.535 -0.0046  0.0627 -0.1090
  818loPI   C4B12760   3.923   4.542   8.029 -0.0199 -0.0081 -0.1314
  819loPI    C112761   0.684   8.001   5.684  0.0348 -0.0091 -0.1261
  819loPI    C212762   0.802   8.116   5.320  0.0593 -0.1263 -0.1555
  819loPI    C312763   0.822   7.730   5.424 -0.1369 -0.1228 -0.1008
  819loPI   PO412764   0.805   8.187   5.824 -0.3110  0.1248  0.1557
  819loPI   GL112765   0.963   8.260   6.202  0.1818 -0.0098 -0.1392
  819loPI   GL212766   0.856   7.989   6.291  0.1483 -0.1793  0.4616
  819loPI   C1A12767   0.710   8.418   6.578  0.0563  0.0674  0.0839
  819loPI   C2A12768   0.688   8.371   7.045  0.1163 -0.0289  0.2357
  819loPI   C3A12769   0.646   8.335   7.465  0.2198 -0.0693 -0.1707
  819loPI   C4A12770   0.623   8.306   7.856  0.1837  0.1939  0.0476
  819loPI   C5A12771   0.658   8.277   8.370  0.0296  0.1809  0.0424
  819loPI   C6A12772   0.611   8.571   8.599 -0.4293  0.1507 -0.1637
  819loPI   C1B12773   0.842   7.913   6.781  0.0503  0.0082  0.1562
  819loPI   C2B12774   0.741   7.868   7.259  0.2608  0.0946  0.0086
  819loPI   C3B12775   0.868   7.756   7.738 -0.1760  0.0083 -0.0370
  819loPI   C4B12776   0.912   7.874   8.186  0.0811 -0.1723  0.0985
  820loPI    C112777  10.277   8.382   5.889 -0.0126 -0.0268 -0.0246
  820loPI    C212778   9.886   8.297   5.875  0.0047 -0.0860 -0.1709
  820loPI    C312779  10.154   8.030   5.743  0.1120 -0.1553  0.1740
  820loPI   PO412780  10.376   8.460   6.203  0.2397 -0.2355 -0.0088
  820loPI   GL112781  10.220   8.351   6.640  0.1518  0.3793 -0.0774
  820loPI   GL212782  10.538   8.140   6.625  0.2208  0.2346  0.0826
  820loPI   C1A12783  10.242   8.418   7.057  0.0902 -0.0318 -0.1941
  820loPI   C2A12784  10.243   8.355   7.488  0.0877 -0.0524 -0.1462
  820loPI   C3A12785  10.238   8.479   7.877 -0.1441  0.0237  0.0195
  820loPI   C4A12786  10.163   8.603   8.299  0.0534 -0.3171  0.2987
  820loPI   C5A12787  10.413   8.695   8.535 -0.0316  0.1277 -0.0475
  820loPI   C6A12788  10.818   8.420   8.713  0.2186 -0.0027 -0.3502
  820loPI   C1B12789  10.658   8.379   6.863 -0.3436 -0.0144 -0.1121
  820loPI   C2B12790  10.799   8.270   7.234  0.0547 -0.1032  0.2081
  820loPI   C3B12791  10.721   8.294   7.684  0.0069 -0.0766  0.2687
  820loPI   C4B12792  10.829   8.421   8.074 -0.0425 -0.0571  0.1274
  821loPI    C112793   1.955   0.356   5.205 -0.1711 -0.0418  0.0264
  821loPI    C212794   1.769   0.058   5.014 -0.0500 -0.1595  0.0907
  821loPI    C312795   2.165   0.046   5.065 -0.0463  0.0067  0.1052
  821loPI   PO412796   1.817   0.328   5.444 -0.1904 -0.1284 -0.0411
  821loPI   GL112797   1.914   0.436   5.856 -0.2383 -0.2715 -0.2493
  821loPI   GL212798   1.921   0.147   5.947  0.1501  0.0618  0.0962
  821loPI   C1A12799   1.799   0.425   6.329 -0.0218 -0.2058 -0.2593
  821loPI   C2A12800   1.859   0.328   6.765 -0.1599  0.1789  0.4622
  821loPI   C3A12801   1.882   0.310   7.146  0.1183 -0.3651 -0.3408
  821loPI   C4A12802   1.940   0.216   7.623 -0.1616  0.0432 -0.1250
  821loPI   C5A12803   1.833   0.264   8.034 -0.1083  0.0378  0.0055
  821loPI   C6A12804   1.573  -0.051   8.119 -0.1024  0.1748 -0.0050
  821loPI   C1B12805   2.025  -0.022   6.408 -0.0166 -0.1005  0.1946
  821loPI   C2B12806   2.108  -0.183   6.785  0.2722 -0.0113  0.0925
  821loPI   C3B12807   2.092  -0.204   7.205 -0.3915  0.0233 -0.0330
  821loPI   C4B12808   2.057  -0.262   7.667  0.0635 -0.0338 -0.1698
  822loPI    C112809  14.026  10.042   5.674  0.1159  0.0322  0.2397
  822loPI    C212810  13.823  10.322   5.473  0.4859  0.0178 -0.1721
  822loPI    C312811  13.863   9.955   5.319  0.2691 -0.1763  0.2184
  822loPI   PO412812  14.203  10.124   5.727 -0.0874  0.0685  0.2000
  822loPI   GL112813  14.334  10.234   6.162 -0.1829  0.1176 -0.2702
  822loPI   GL212814  14.071  10.141   6.220 -0.2314 -0.1698  0.0871
  822loPI   C1A12815  14.499  10.161   6.617  0.1156 -0.2433 -0.0554
  822loPI   C2A12816  14.466  10.232   7.088  0.1483 -0.0833 -0.1614
  822loPI   C3A12817  14.491  10.193   7.532 -0.2001 -0.0047  0.1180
  822loPI   C4A12818  14.329  10.232   7.938  0.0641  0.0048 -0.1048
  822loPI   C5A12819  14.379  10.111   8.402 -0.3716  0.0294 -0.0059
  822loPI   C6A12820  14.689   9.772   8.636  0.1804  0.1550  0.0000
  822loPI   C1B12821  13.981  10.297   6.577  0.1042  0.0068 -0.0823
  822loPI   C2B12822  13.968  10.286   7.109  0.0772 -0.1551 -0.2131
  822loPI   C3B12823  13.954  10.362   7.587  0.0903 -0.3462 -0.0068
  822loPI   C4B12824  13.870  10.370   8.047 -0.0141  0.1465 -0.1969
  823loPI    C112825   8.049   2.238   5.759  0.1938 -0.0454 -0.0361
  823loPI    C212826   7.930   2.482   5.466 -0.1117 -0.0366  0.0917
  823loPI    C312827   8.273   2.280   5.431 -0.0386  0.1292 -0.1753
  823loPI   PO412828   8.038   2.304   5.949  0.2870  0.1025  0.3360
  823loPI   GL112829   8.168   2.148   6.322 -0.2232  0.2906 -0.2676
  823loPI   GL212830   8.102   1.832   6.324  0.0233 -0.2812 -0.1967
  823loPI   C1A12831   7.963   2.087   6.821 -0.0296 -0.2116  0.0951
  823loPI   C2A12832   7.913   2.019   7.178  0.1126  0.0932 -0.2119
  823loPI   C3A12833   7.967   2.089   7.635 -0.0279 -0.0329  0.1910
  823loPI   C4A12834   8.066   2.021   8.047 -0.0514 -0.1755 -0.0541
  823loPI   C5A12835   8.104   1.689   8.445  0.2259 -0.0449 -0.0232
  823loPI   C6A12836   8.348   1.319   8.566 -0.1287 -0.0603  0.1333
  823loPI   C1B12837   8.083   1.561   6.735  0.0335 -0.1328  0.0662
  823loPI   C2B12838   8.029   1.573   7.183  0.1269  0.0350 -0.2183
  823loPI   C3B12839   8.141   1.619   7.637 -0.1400 -0.1834 -0.0077
  823loPI   C4B12840   8.107   1.536   7.996  0.0104 -0.0460 -0.3718
  824loPI    C112841   8.864   2.078   5.966 -0.3165 -0.0524  0.2614
  824loPI    C212842   8.491   1.960   5.882 -0.2038 -0.1589 -0.1037
  824loPI    C312843   8.797   1.838   5.654  0.0220  0.1471  0.0282
  824loPI   PO412844   8.881   2.090   6.180  0.1578 -0.0533  0.0120
  824loPI   GL112845   8.648   2.141   6.580 -0.0485 -0.0697 -0.2231
  824loPI   GL212846   8.570   1.820   6.504  0.0980  0.0015  0.0417
  824loPI   C1A12847   8.767   2.395   7.003  0.1251  0.4981  0.0086
  824loPI   C2A12848   8.870   2.365   7.447  0.0891  0.1490 -0.0187
  824loPI   C3A12849   8.809   2.347   7.838  0.2034  0.2892  0.1976
  824loPI   C4A12850   8.831   2.399   8.276  0.1155 -0.0886  0.3956
  824loPI   C5A12851   8.818   2.213   8.619  0.0909 -0.1387  0.2108
  824loPI   C6A12852   8.916   2.073   8.999  0.0700 -0.3524 -0.0411
  824loPI   C1B12853   8.394   1.849   6.991  0.1172 -0.0485 -0.2369
  824loPI   C2B12854   8.574   1.976   7.293  0.4444  0.0516  0.0139
  824loPI   C3B12855   8.541   1.924   7.689 -0.1399 -0.3607  0.0464
  824loPI   C4B12856   8.550   2.051   8.081  0.0791  0.0114 -0.0663
  825loPI    C112857  14.345  14.701   5.821  0.3314 -0.0711  0.0544
  825loPI    C212858  14.299  14.357   5.622 -0.1995  0.0558 -0.0582
  825loPI    C312859  14.458  14.674   5.438 -0.2076  0.0244 -0.1194
  825loPI   PO412860  14.043  14.683   5.959 -0.0899 -0.3206  0.3876
  825loPI   GL112861  14.025  14.595   6.337  0.1252 -0.1098  0.0988
  825loPI   GL212862  14.343  14.478   6.301  0.1594 -0.1427  0.0410
  825loPI   C1A12863  14.045  14.873   6.730 -0.2582 -0.2869 -0.1925
  825loPI   C2A12864  14.155  14.872   7.230 -0.0498  0.1160 -0.1829
  825loPI   C3A12865  14.079  14.912   7.688  0.0480  0.3706  0.4465
  825loPI   C4A12866  14.081  14.954   8.050  0.3311  0.0318 -0.0640
  825loPI   C5A12867  14.103  15.098   8.495 -0.0034 -0.0705 -0.1368
  825loPI   C6A12868  14.112  15.088   8.928  0.0267  0.2479  0.0380
  825loPI   C1B12869  14.280  14.349   6.728  0.1383 -0.1642  0.0885
  825loPI   C2B12870  14.287  14.401   7.179  0.3656  0.2112  0.2532
  825loPI   C3B12871  14.298  14.318   7.578  0.0985 -0.2105 -0.0884
  825loPI   C4B12872  14.246  14.434   8.008 -0.3809 -0.7194  0.0386
  826loPI    C112873   3.800   2.742   5.662 -0.3420 -0.2327  0.0732
  826loPI    C212874   3.662   3.099   5.780  0.1128 -0.0024 -0.0680
  826loPI    C312875   3.531   2.936   5.440 -0.0230  0.0764 -0.0538
  826loPI   PO412876   3.720   2.585   5.865 -0.2087  0.1878  0.0329
  826loPI   GL112877   3.545   2.862   6.214  0.1972 -0.0287 -0.1881
  826loPI   GL212878   3.447   3.115   6.299  0.1190 -0.1899  0.0312
  826loPI   C1A12879   3.485   2.664   6.540 -0.0611 -0.0172  0.1649
  826loPI   C2A12880   3.470   2.644   6.848  0.0851 -0.2438 -0.0417
  826loPI   C3A12881   3.523   2.646   7.270  0.1146  0.2081  0.0019
  826loPI   C4A12882   3.432   2.683   7.614 -0.0168  0.0187 -0.1066
  826loPI   C5A12883   3.515   2.543   7.947  0.3035 -0.1053  0.0503
  826loPI   C6A12884   3.622   2.253   8.267 -0.3596 -0.2155  0.0239
  826loPI   C1B12885   3.298   3.072   6.709 -0.1408  0.1176 -0.3530
  826loPI   C2B12886   3.362   3.150   7.097  0.2931  0.3272 -0.1414
  826loPI   C3B12887   3.353   3.193   7.582  0.1627  0.1306  0.0097
  826loPI   C4B12888   3.411   3.072   7.979 -0.1024 -0.0716 -0.2341
  827loPI    C112889  15.748   0.636   5.617 -0.3507  0.2865 -0.0908
  827loPI    C212890  15.735   1.010   5.475 -0.2436  0.2633 -0.1631
  827loPI    C312891  15.787   0.703   5.224  0.0581  0.2302 -0.0642
  827loPI   PO412892  15.569   0.619   5.807  0.0648  0.1198 -0.1846
  827loPI   GL112893  15.565   0.479   6.240  0.0486  0.0689 -0.3315
  827loPI   GL212894  15.682   0.167   6.377  0.1502  0.1091  0.1215
  827loPI   C1A12895  15.262   0.380   6.505  0.0123 -0.1468  0.0541
  827loPI   C2A12896  15.186   0.408   6.981 -0.0129 -0.0533  0.2522
  827loPI   C3A12897  15.197   0.331   7.405  0.0681  0.0401 -0.2260
  827loPI   C4A12898  15.097   0.431   7.768  0.0125  0.0229 -0.2039
  827loPI   C5A12899  15.191   0.352   8.055  0.0494 -0.2443 -0.4341
  827loPI   C6A12900  15.553   0.600   8.285 -0.1891  0.2458  0.1154
  827loPI   C1B12901  15.659   0.275   6.755 -0.1103  0.0531  0.0011
  827loPI   C2B12902  15.710   0.264   7.178  0.1616  0.2259 -0.1162
  827loPI   C3B12903  15.638   0.213   7.684  0.1455 -0.1409 -0.1068
  827loPI   C4B12904  15.783   0.190   8.160 -0.0654  0.2858 -0.3820
  828loPI    C112905  10.584  13.020   5.696  0.0829  0.0597  0.1484
  828loPI    C212906  10.719  12.650   5.630 -0.0403  0.0536 -0.0763
  828loPI    C312907  10.830  12.949   5.389 -0.1298  0.1182 -0.0377
  828loPI   PO412908  10.664  13.052   5.960  0.0606  0.0082 -0.0980
  828loPI   GL112909  10.559  13.063   6.365 -0.0771  0.1632 -0.1183
  828loPI   GL212910  10.828  12.930   6.422 -0.2555  0.1765  0.2277
  828loPI   C1A12911  10.428  12.963   6.719  0.3621 -0.0301 -0.1264
  828loPI   C2A12912  10.502  13.049   7.141  0.0383  0.0229 -0.3118
  828loPI   C3A12913  10.482  13.086   7.660  0.0200 -0.0063 -0.0387
  828loPI   C4A12914  10.466  13.038   8.051  0.1375  0.0566  0.0593
  828loPI   C5A12915  10.352  13.036   8.477 -0.1213 -0.2299  0.0441
  828loPI   C6A12916  10.232  13.193   8.897  0.3225 -0.2343 -0.0099
  828loPI   C1B12917  10.896  12.878   6.844  0.0101 -0.2125  0.0269
  828loPI   C2B12918  10.938  12.940   7.373  0.0682 -0.0945  0.3164
  828loPI   C3B12919  10.985  13.001   7.830  0.3234  0.2242  0.0134
  828loPI   C4B12920  11.027  13.036   8.200  0.2147  0.2237 -0.0651
  829loPI    C112921  12.484   4.564   5.691  0.1604 -0.0910  0.0846
  829loPI    C212922  12.271   4.490   5.360 -0.0737 -0.0720  0.2282
  829loPI    C312923  12.602   4.279   5.437  0.1855  0.1649 -0.1974
  829loPI   PO412924  12.314   4.532   5.845 -0.1153 -0.0479 -0.0577
  829loPI   GL112925  12.261   4.327   6.250  0.1000  0.1497  0.1334
  829loPI   GL212926  12.383   4.153   6.417 -0.1743 -0.0216  0.2076
  829loPI   C1A12927  12.285   4.607   6.714  0.3184 -0.0966  0.2580
  829loPI   C2A12928  12.309   4.651   7.101 -0.2311 -0.0225 -0.1183
  829loPI   C3A12929  12.361   4.640   7.511  0.5730 -0.1817  0.2730
  829loPI   C4A12930  12.318   4.723   7.934 -0.1411 -0.0637 -0.2328
  829loPI   C5A12931  12.427   4.739   8.419 -0.0634 -0.0764 -0.1118
  829loPI   C6A12932  12.304   4.724   8.806 -0.1895 -0.0720  0.0367
  829loPI   C1B12933  12.444   4.136   6.768 -0.0109  0.1190  0.1355
  829loPI   C2B12934  12.395   4.179   7.194 -0.2820  0.0344  0.1570
  829loPI   C3B12935  12.409   4.172   7.615  0.3145 -0.0111  0.1579
  829loPI   C4B12936  12.453   4.225   8.115  0.2123  0.1821 -0.0080
  830loPI    C112937   1.120  12.203   5.807 -0.1603 -0.2066 -0.0596
  830loPI    C212938   1.121  12.261   5.411  0.1485 -0.1342 -0.0500
  830loPI    C312939   1.060  11.895   5.560 -0.4262 -0.0870 -0.1485
  830loPI   PO412940   1.214  12.462   5.856  0.0820 -0.1100 -0.1087
  830loPI   GL112941   1.304  12.648   6.193 -0.1960 -0.0378  0.0710
  830loPI   GL212942   0.964  12.456   6.329 -0.0789 -0.1599  0.1596
  830loPI   C1A12943   1.343  12.639   6.646  0.2279 -0.0848 -0.0353
  830loPI   C2A12944   1.378  12.665   7.071 -0.0068  0.1285  0.1507
  830loPI   C3A12945   1.385  12.644   7.521  0.2294  0.0931  0.3153
  830loPI   C4A12946   1.352  12.656   7.916  0.0138  0.0435 -0.1134
  830loPI   C5A12947   1.406  12.605   8.372 -0.1143  0.0918  0.1231
  830loPI   C6A12948   1.107  12.801   8.694 -0.1374  0.2630 -0.1383
  830loPI   C1B12949   0.983  12.356   6.725 -0.0946  0.1089  0.1596
  830loPI   C2B12950   1.033  12.334   7.125  0.0802 -0.3493 -0.0610
  830loPI   C3B12951   1.001  12.328   7.589 -0.0793 -0.0521  0.3276
  830loPI   C4B12952   0.966  12.317   8.052  0.0057 -0.3355  0.0948
  831loPI    C112953  13.983   4.173   5.795 -0.1873 -0.0609 -0.1315
  831loPI    C212954  13.828   3.847   5.967 -0.1569 -0.0694 -0.1202
  831loPI    C312955  14.026   3.815   5.621  0.1007 -0.1068  0.0281
  831loPI   PO412956  14.067   4.310   5.942 -0.1951  0.1882 -0.0339
  831loPI   GL112957  14.196   4.497   6.397  0.0556 -0.0266  0.0476
  831loPI   GL212958  14.238   4.248   6.531 -0.1546 -0.0051 -0.0534
  831loPI   C1A12959  14.131   4.790   6.779  0.0399 -0.0672 -0.2848
  831loPI   C2A12960  14.293   4.695   7.203  0.1064 -0.3581  0.0797
  831loPI   C3A12961  14.242   4.633   7.619  0.2349 -0.2118  0.6207
  831loPI   C4A12962  14.140   4.677   7.950 -0.1824 -0.2500  0.1554
  831loPI   C5A12963  14.065   4.579   8.448 -0.0866  0.0724 -0.1790
  831loPI   C6A12964  14.051   4.706   8.878  0.0564 -0.0417 -0.0080
  831loPI   C1B12965  14.359   4.203   6.972  0.0678  0.1047 -0.2213
  831loPI   C2B12966  14.436   4.238   7.398  0.1030  0.1539 -0.0942
  831loPI   C3B12967  14.314   4.119   7.820  0.0610 -0.0177  0.1956
  831loPI   C4B12968  14.362   4.183   8.298  0.0934 -0.3531 -0.0836
  832loPI    C112969  12.038  12.250   5.547  0.2289  0.2835  0.0414
  832loPI    C212970  12.397  12.202   5.379  0.0971 -0.0957 -0.1445
  832loPI    C312971  12.090  11.974   5.262 -0.1754  0.1370  0.1018
  832loPI   PO412972  12.060  12.383   5.782 -0.0813  0.0452  0.1446
  832loPI   GL112973  11.999  12.423   6.344 -0.0213 -0.1568  0.0650
  832loPI   GL212974  12.317  12.409   6.437  0.0394 -0.0215  0.0743
  832loPI   C1A12975  11.833  12.574   6.704  0.2100  0.0120 -0.1888
  832loPI   C2A12976  11.856  12.621   7.133  0.3599 -0.1464  0.1337
  832loPI   C3A12977  11.923  12.700   7.536  0.4144  0.0478 -0.0778
  832loPI   C4A12978  11.983  12.752   7.921 -0.0639 -0.1729 -0.4170
  832loPI   C5A12979  11.873  12.814   8.404  0.0428 -0.1077 -0.2146
  832loPI   C6A12980  12.005  12.810   8.822  0.2048  0.0581 -0.1654
  832loPI   C1B12981  12.378  12.430   6.825  0.1012 -0.2551 -0.2423
  832loPI   C2B12982  12.523  12.583   7.263  0.0909  0.0108  0.0182
  832loPI   C3B12983  12.441  12.567   7.712 -0.2112 -0.0307 -0.0745
  832loPI   C4B12984  12.383  12.639   8.109  0.1352  0.0436 -0.0210
  833loPI    C112985  12.459   8.420   6.043 -0.2910  0.0053 -0.0361
  833loPI    C212986  12.695   8.278   5.754 -0.0729 -0.0475  0.1647
  833loPI    C312987  12.350   8.458   5.660  0.0521  0.0439 -0.1330
  833loPI   PO412988  12.558   8.571   6.196 -0.0775  0.1886  0.1413
  833loPI   GL112989  12.291   8.709   6.507  0.1704 -0.2332  0.0533
  833loPI   GL212990  11.991   8.771   6.508  0.1103  0.0306 -0.0528
  833loPI   C1A12991  12.590   8.795   6.819  0.0936 -0.0569 -0.0477
  833loPI   C2A12992  12.543   8.807   7.343 -0.1029  0.1142 -0.0537
  833loPI   C3A12993  12.413   8.844   7.798  0.3295 -0.2670 -0.1838
  833loPI   C4A12994  12.521   8.908   8.221  0.0320  0.2233 -0.0544
  833loPI   C5A12995  12.724   9.061   8.648 -0.0733  0.2056  0.2172
  833loPI   C6A12996  12.770   9.367   8.923 -0.0936 -0.1145  0.0661
  833loPI   C1B12997  12.085   8.941   6.918  0.2314  0.3666  0.3783
  833loPI   C2B12998  12.036   8.843   7.343 -0.1463  0.1203  0.5194
  833loPI   C3B12999  11.927   9.020   7.768 -0.0442 -0.0004 -0.1073
  833loPI   C4B13000  12.003   9.058   8.229  0.0876  0.1740  0.1315
  834loPI    C113001   6.242   0.483   5.718  0.0355  0.1825  0.0459
  834loPI    C213002   6.382   0.720   5.428 -0.0042  0.1556  0.0046
  834loPI    C313003   6.504   0.340   5.453 -0.0350  0.1452 -0.0039
  834loPI   PO413004   6.293   0.609   5.928 -0.0947  0.0717 -0.0176
  834loPI   GL113005   6.183   0.660   6.304 -0.0490 -0.2155  0.1229
  834loPI   GL213006   6.160   0.928   6.201 -0.2394 -0.2358  0.1254
  834loPI   C1A13007   5.980   0.789   6.641 -0.1442  0.1142  0.1459
  834loPI   C2A13008   5.986   0.717   7.158 -0.0056 -0.0806  0.1795
  834loPI   C3A13009   6.030   0.724   7.589  0.1250  0.2093  0.1269
  834loPI   C4A13010   5.999   0.712   8.015 -0.1197  0.0297  0.2428
  834loPI   C5A13011   6.200   0.783   8.423  0.1269  0.0668 -0.1091
  834loPI   C6A13012   6.180   0.936   8.855  0.0427 -0.4222 -0.0184
  834loPI   C1B13013   6.373   1.105   6.559 -0.1096  0.0422  0.1170
  834loPI   C2B13014   6.327   1.066   6.928 -0.1320 -0.4233  0.0831
  834loPI   C3B13015   6.336   1.143   7.422  0.1482  0.2173  0.0516
  834loPI   C4B13016   6.452   1.075   7.865  0.0661 -0.2240  0.1252
  835loPI    C113017   4.215  10.823   5.707  0.0551  0.1147 -0.0599
  835loPI    C213018   4.218  10.450   5.565  0.1813 -0.0262  0.3022
  835loPI    C313019   4.157  10.757   5.317 -0.1413 -0.2987  0.0338
  835loPI   PO413020   4.063  10.802   5.873  0.0660  0.0908 -0.3467
  835loPI   GL113021   4.106  10.902   6.280  0.2134 -0.0127  0.2773
  835loPI   GL213022   3.859  10.704   6.377 -0.0699 -0.1607  0.0011
  835loPI   C1A13023   4.109  11.035   6.683  0.0407 -0.1820 -0.0475
  835loPI   C2A13024   4.111  10.963   7.169 -0.3249  0.1705 -0.2629
  835loPI   C3A13025   4.104  10.925   7.601 -0.0041 -0.0535 -0.0780
  835loPI   C4A13026   4.193  11.004   7.984  0.0083  0.2493 -0.0166
  835loPI   C5A13027   4.096  10.912   8.322  0.1103 -0.1542  0.1984
  835loPI   C6A13028   3.833  10.706   8.491  0.1262  0.0586  0.0844
  835loPI   C1B13029   3.753  10.539   6.719  0.3776 -0.0012  0.0293
  835loPI   C2B13030   3.750  10.588   7.137  0.2607  0.0693  0.3219
  835loPI   C3B13031   3.696  10.609   7.557 -0.1943  0.4065 -0.4372
  835loPI   C4B13032   3.827  10.551   7.977 -0.0160  0.2019  0.2857
  836loPI    C113033   9.999   5.868   5.931  0.4143  0.0551  0.1243
  836loPI    C213034  10.222   5.787   5.609  0.1696  0.1240 -0.0651
  836loPI    C313035   9.861   5.620   5.650  0.1717  0.1675  0.1417
  836loPI   PO413036  10.066   5.806   6.120  0.0236  0.2578  0.2265
  836loPI   GL113037  10.147   5.737   6.511 -0.0137  0.0555  0.0623
  836loPI   GL213038  10.429   5.643   6.458 -0.0378 -0.2771  0.0813
  836loPI   C1A13039  10.190   5.610   6.915 -0.3098  0.0635 -0.0379
  836loPI   C2A13040  10.147   5.630   7.359 -0.0970  0.1648  0.0115
  836loPI   C3A13041  10.162   5.719   7.858  0.0637  0.2537  0.0824
  836loPI   C4A13042  10.249   5.687   8.284 -0.3127 -0.0093 -0.0016
  836loPI   C5A13043  10.407   5.741   8.605  0.2901 -0.1154  0.0953
  836loPI   C6A13044  10.793   5.843   8.875  0.1153 -0.2181  0.2529
  836loPI   C1B13045  10.625   5.512   6.794 -0.1842  0.2563 -0.0286
  836loPI   C2B13046  10.627   5.528   7.234  0.2593  0.2323 -0.0305
  836loPI   C3B13047  10.659   5.582   7.706 -0.0858  0.4111 -0.0591
  836loPI   C4B13048  10.763   5.637   8.189  0.0913 -0.1520  0.1586
  837loPI    C113049   9.459  17.005   5.986  0.4227  0.0327 -0.0763
  837loPI    C213050   9.286  17.251   5.722  0.0955  0.0786  0.1760
  837loPI    C313051   9.277  16.855   5.663 -0.1669  0.0755  0.2246
  837loPI   PO413052   9.664  17.098   6.082 -0.0851  0.0023  0.0512
  837loPI   GL113053   9.750  17.122   6.413  0.1175 -0.2665 -0.1522
  837loPI   GL213054   9.729  16.771   6.428 -0.1767 -0.3207 -0.0709
  837loPI   C1A13055   9.662  17.273   6.806  0.1645  0.0074 -0.1238
  837loPI   C2A13056   9.604  17.385   7.317  0.0411 -0.0401  0.2287
  837loPI   C3A13057   9.658  17.388   7.741  0.0325  0.2166  0.1149
  837loPI   C4A13058   9.610  17.446   8.093  0.0194 -0.0117  0.2792
  837loPI   C5A13059   9.289  17.540   8.358 -0.0644  0.1520  0.0167
  837loPI   C6A13060   8.814  17.611   8.435 -0.2613 -0.1475  0.1476
  837loPI   C1B13061   9.780  16.805   6.906 -0.0486 -0.0541  0.2821
  837loPI   C2B13062   9.757  16.895   7.337 -0.2585 -0.1388 -0.0150
  837loPI   C3B13063   9.765  16.919   7.810  0.1908  0.1952  0.2363
  837loPI   C4B13064   9.688  16.997   8.263 -0.1028 -0.2763 -0.2096
  838loPI    C113065  14.346   2.284   5.964  0.0303  0.0219  0.1325
  838loPI    C213066  13.984   2.171   5.839  0.1429 -0.1653 -0.0292
  838loPI    C313067  14.276   2.234   5.574  0.2222  0.0119  0.0987
  838loPI   PO413068  14.329   2.287   6.203  0.0560  0.1236  0.2045
  838loPI   GL113069  14.401   2.380   6.606  0.2980  0.0855 -0.2845
  838loPI   GL213070  14.575   1.987   6.613 -0.1228 -0.2575 -0.2093
  838loPI   C1A13071  14.353   2.322   7.019 -0.0489 -0.1143  0.0242
  838loPI   C2A13072  14.458   2.363   7.411  0.2166 -0.0664  0.1081
  838loPI   C3A13073  14.531   2.289   7.757 -0.1598 -0.1298  0.1883
  838loPI   C4A13074  14.528   2.303   8.187 -0.0948 -0.0054  0.1008
  838loPI   C5A13075  14.277   2.307   8.465  0.1620  0.3249 -0.0403
  838loPI   C6A13076  14.018   2.527   8.559 -0.0141 -0.1103  0.1334
  838loPI   C1B13077  14.574   1.848   7.060 -0.0607 -0.1397 -0.2439
  838loPI   C2B13078  14.645   1.872   7.515 -0.0687 -0.2735 -0.1624
  838loPI   C3B13079  14.728   1.819   7.934  0.0991 -0.1032 -0.1246
  838loPI   C4B13080  14.871   1.897   8.343 -0.0103 -0.1352  0.0142
  839loPI    C113081  12.935   7.699   5.867  0.0356  0.1566 -0.1416
  839loPI    C213082  12.568   7.844   5.931 -0.0240  0.0720 -0.2863
  839loPI    C313083  12.717   7.833   5.560  0.1605  0.1887 -0.2174
  839loPI   PO413084  13.035   7.646   6.104 -0.3729 -0.0114 -0.2665
  839loPI   GL113085  13.262   7.513   6.461  0.0033 -0.3100  0.2050
  839loPI   GL213086  13.045   7.257   6.479  0.1637  0.0559 -0.1121
  839loPI   C1A13087  13.310   7.616   6.807  0.0806  0.0361  0.2781
  839loPI   C2A13088  13.260   7.665   7.199 -0.1661  0.0762 -0.2952
  839loPI   C3A13089  13.358   7.656   7.589  0.2037 -0.2638  0.3528
  839loPI   C4A13090  13.368   7.685   8.011 -0.3594 -0.0064 -0.2023
  839loPI   C5A13091  13.165   7.738   8.510 -0.0176 -0.0613  0.1644
  839loPI   C6A13092  13.070   7.881   8.889 -0.1628 -0.0453  0.0489
  839loPI   C1B13093  13.009   7.178   6.920  0.0721 -0.4104 -0.0462
  839loPI   C2B13094  12.986   7.265   7.361 -0.0351 -0.1927 -0.1020
  839loPI   C3B13095  12.965   7.285   7.789 -0.1536 -0.1610  0.2863
  839loPI   C4B13096  12.897   7.338   8.305  0.0435  0.0871  0.0695
  840loPI    C113097   8.427  17.127   5.815 -0.0267 -0.1470 -0.0035
  840loPI    C213098   8.034  17.143   5.744 -0.0503 -0.0929  0.1360
  840loPI    C313099   8.293  17.192   5.443 -0.1492 -0.0202  0.0618
  840loPI   PO413100   8.462  17.217   6.023 -0.0906 -0.1041  0.0500
  840loPI   GL113101   8.591  17.017   6.416  0.1280 -0.4039 -0.0338
  840loPI   GL213102   8.826  17.125   6.496  0.0754  0.1300  0.0860
  840loPI   C1A13103   8.389  16.774   6.709 -0.1444 -0.0556  0.0443
  840loPI   C2A13104   8.349  16.710   7.036 -0.3497 -0.0431  0.1272
  840loPI   C3A13105   8.373  16.772   7.499 -0.0729  0.0083 -0.1718
  840loPI   C4A13106   8.399  16.745   7.898  0.2467 -0.1402 -0.0453
  840loPI   C5A13107   8.351  16.879   8.305 -0.1534 -0.1439  0.1003
  840loPI   C6A13108   8.059  17.123   8.525  0.2016  0.2202 -0.0774
  840loPI   C1B13109   8.663  17.097   6.916  0.0622  0.1054  0.1021
  840loPI   C2B13110   8.731  17.114   7.360 -0.2126  0.2756  0.0946
  840loPI   C3B13111   8.742  17.117   7.797 -0.0094 -0.1018 -0.0074
  840loPI   C4B13112   8.744  17.095   8.255 -0.2657  0.1588 -0.2565
  841loPI    C113113  13.777   0.570   5.597  0.1158 -0.0366  0.1113
  841loPI    C213114  13.689   0.255   5.366  0.0871 -0.1025  0.2114
  841loPI    C313115  13.697   0.623   5.208 -0.1723 -0.1181  0.1567
  841loPI   PO413116  13.745   0.479   5.843  0.0261 -0.1939 -0.1854
  841loPI   GL113117  13.464   0.461   6.165  0.3263  0.0674  0.2061
  841loPI   GL213118  13.592   0.672   6.299  0.0739  0.0750  0.1079
  841loPI   C1A13119  13.274   0.366   6.619 -0.0646  0.2223  0.1281
  841loPI   C2A13120  13.225   0.305   7.029  0.1737 -0.2334  0.2243
  841loPI   C3A13121  13.159   0.370   7.480  0.1879 -0.0228  0.0485
  841loPI   C4A13122  13.267   0.378   7.990  0.1337 -0.2455  0.0337
  841loPI   C5A13123  13.452   0.437   8.348  0.0563 -0.0122 -0.2002
  841loPI   C6A13124  13.618   0.247   8.706 -0.1035 -0.0167 -0.2677
  841loPI   C1B13125  13.616   0.773   6.762  0.0243  0.0938 -0.0272
  841loPI   C2B13126  13.517   0.738   7.175 -0.2261 -0.2369 -0.2313
  841loPI   C3B13127  13.687   0.828   7.643 -0.0952 -0.1407  0.1633
  841loPI   C4B13128  13.586   0.825   8.078  0.0785  0.2417 -0.1294
  842loPI    C113129   5.113  11.122   5.768 -0.1549  0.1516  0.0347
  842loPI    C213130   5.186  11.066   5.379 -0.0544  0.1988  0.0463
  842loPI    C313131   5.463  11.236   5.612 -0.0788  0.0885  0.1572
  842loPI   PO413132   5.004  10.868   5.883  0.1250 -0.0013  0.0918
  842loPI   GL113133   5.068  10.860   6.290  0.0477 -0.1400  0.2050
  842loPI   GL213134   5.032  11.199   6.260 -0.2556 -0.2945  0.0917
  842loPI   C1A13135   5.114  10.734   6.687  0.0509 -0.2233 -0.1142
  842loPI   C2A13136   5.097  10.733   7.169  0.3184  0.1800 -0.1525
  842loPI   C3A13137   5.098  10.741   7.592 -0.0977 -0.1805 -0.0833
  842loPI   C4A13138   5.183  10.723   7.929  0.0511  0.0003  0.2658
  842loPI   C5A13139   5.153  10.761   8.375  0.0073  0.0405 -0.2396
  842loPI   C6A13140   5.041  10.996   8.748 -0.1405  0.0133  0.1056
  842loPI   C1B13141   4.928  11.258   6.699 -0.0293 -0.1437 -0.2446
  842loPI   C2B13142   5.006  11.225   7.196 -0.0270 -0.1259 -0.0973
  842loPI   C3B13143   4.918  11.241   7.611 -0.2030 -0.1001 -0.0197
  842loPI   C4B13144   4.914  11.221   8.091  0.0221 -0.1694 -0.0823
  843loPI    C113145   9.725   2.489   5.809  0.1232 -0.0039 -0.0638
  843loPI    C213146   9.698   2.880   5.729 -0.2894  0.0222  0.1727
  843loPI    C313147   9.779   2.621   5.435 -0.0985  0.2744 -0.0014
  843loPI   PO413148   9.741   2.511   6.069  0.0864  0.1076 -0.4350
  843loPI   GL113149   9.934   2.761   6.301 -0.3079  0.2864  0.1588
  843loPI   GL213150   9.753   3.025   6.209  0.0071  0.1417 -0.1483
  843loPI   C1A13151  10.106   2.872   6.729 -0.0254 -0.1522  0.2914
  843loPI   C2A13152   9.987   2.990   7.087  0.0661 -0.3119  0.1027
  843loPI   C3A13153  10.019   2.962   7.550  0.2304 -0.2600 -0.0305
  843loPI   C4A13154  10.118   3.031   7.974  0.0562 -0.1115  0.1222
  843loPI   C5A13155   9.892   2.919   8.305 -0.0530  0.4590  0.0519
  843loPI   C6A13156   9.618   2.728   8.424  0.1598 -0.0337  0.3068
  843loPI   C1B13157   9.635   3.121   6.674 -0.3982  0.0780  0.1852
  843loPI   C2B13158   9.474   3.095   7.096 -0.0648  0.1286  0.1850
  843loPI   C3B13159   9.460   3.138   7.526  0.1327 -0.1246  0.3748
  843loPI   C4B13160   9.586   3.092   7.940  0.4365  0.5446 -0.1544
  844loPI    C113161   8.812   8.346   5.872 -0.0212  0.1362  0.0910
  844loPI    C213162   9.018   8.119   5.615 -0.0157  0.0473  0.1735
  844loPI    C313163   8.641   8.023   5.709  0.0303 -0.0036  0.3088
  844loPI   PO413164   9.002   8.391   6.096 -0.1042 -0.2213 -0.1420
  844loPI   GL113165   8.873   8.415   6.579 -0.2610 -0.0867 -0.0278
  844loPI   GL213166   8.681   8.672   6.503  0.3337  0.0117 -0.1947
  844loPI   C1A13167   8.865   8.290   6.939  0.0727 -0.1306  0.1431
  844loPI   C2A13168   8.901   8.190   7.427  0.1961  0.0147  0.0360
  844loPI   C3A13169   8.943   8.296   7.834 -0.0715 -0.0859  0.1988
  844loPI   C4A13170   9.015   8.320   8.250 -0.1700  0.0946 -0.5431
  844loPI   C5A13171   8.833   8.341   8.678  0.1786  0.1962  0.0016
  844loPI   C6A13172   8.473   8.400   8.900  0.2257  0.1754  0.0697
  844loPI   C1B13173   8.740   8.781   6.876  0.1260  0.1667  0.0867
  844loPI   C2B13174   8.828   8.716   7.312  0.1473  0.3488 -0.1150
  844loPI   C3B13175   8.806   8.832   7.852 -0.0118  0.1805 -0.0424
  844loPI   C4B13176   8.765   8.856   8.343  0.0645  0.2242  0.0602
  845loPI    C113177   4.947   7.639   5.714  0.1538  0.0709 -0.1189
  845loPI    C213178   4.936   7.541   5.326  0.0517  0.1064 -0.1254
  845loPI    C313179   5.193   7.819   5.455 -0.0557  0.2427 -0.2024
  845loPI   PO413180   4.890   7.453   5.983 -0.2719 -0.2258  0.0282
  845loPI   GL113181   5.001   7.431   6.378  0.2008 -0.0508  0.0351
  845loPI   GL213182   5.310   7.351   6.346 -0.1400  0.1139  0.0074
  845loPI   C1A13183   4.918   7.511   6.724 -0.1666 -0.2892 -0.3890
  845loPI   C2A13184   4.994   7.473   7.112 -0.1229 -0.0563  0.0049
  845loPI   C3A13185   4.940   7.459   7.635  0.0393  0.2403  0.0618
  845loPI   C4A13186   4.941   7.478   8.041  0.0304  0.0527 -0.1902
  845loPI   C5A13187   5.001   7.330   8.422  0.0639  0.1112 -0.2133
  845loPI   C6A13188   4.711   7.135   8.619 -0.0557  0.0329 -0.0005
  845loPI   C1B13189   5.435   7.371   6.756 -0.3149 -0.1094 -0.0300
  845loPI   C2B13190   5.518   7.290   7.109 -0.0123  0.0144  0.0547
  845loPI   C3B13191   5.493   7.308   7.571 -0.0841  0.1060  0.0532
  845loPI   C4B13192   5.441   7.389   8.083  0.0178 -0.3765 -0.0348
  846loPI    C113193  11.970   4.147   5.628 -0.0348  0.1095  0.1287
  846loPI    C213194  11.790   4.450   5.438  0.0788  0.0558 -0.0671
  846loPI    C313195  11.876   4.112   5.241  0.0679 -0.0562  0.1176
  846loPI   PO413196  11.917   4.130   5.892 -0.3595  0.1791  0.1558
  846loPI   GL113197  11.732   4.166   6.268 -0.0488 -0.0882 -0.3046
  846loPI   GL213198  11.518   3.921   6.463  0.0690  0.1803  0.3920
  846loPI   C1A13199  11.845   4.253   6.593  0.1458  0.3787 -0.1540
  846loPI   C2A13200  11.915   4.261   7.000  0.1408 -0.1572  0.0177
  846loPI   C3A13201  11.916   4.399   7.430 -0.5379  0.0585 -0.0567
  846loPI   C4A13202  11.918   4.323   7.907 -0.0625 -0.0803  0.3157
  846loPI   C5A13203  11.993   4.458   8.251 -0.1221  0.1030 -0.0342
  846loPI   C6A13204  11.902   4.462   8.576  0.0986 -0.3147 -0.1907
  846loPI   C1B13205  11.548   3.959   6.896  0.0143  0.0774 -0.2151
  846loPI   C2B13206  11.597   3.978   7.362  0.1796  0.1575 -0.3144
  846loPI   C3B13207  11.657   3.941   7.753 -0.1050 -0.0225  0.0335
  846loPI   C4B13208  11.661   4.030   8.209  0.2902  0.1120 -0.2362
  847loPI    C113209   8.656   0.915   5.773 -0.0515  0.1944 -0.1777
  847loPI    C213210   8.358   1.033   5.533 -0.2854  0.0877  0.0552
  847loPI    C313211   8.522   0.672   5.486 -0.3656  0.0468  0.0869
  847loPI   PO413212   8.557   1.014   6.055 -0.0476  0.2757  0.0842
  847loPI   GL113213   8.737   0.999   6.512  0.3658  0.1063  0.1457
  847loPI   GL213214   8.888   1.188   6.370  0.1949 -0.3838  0.3672
  847loPI   C1A13215   8.746   0.958   6.961  0.0449 -0.3710 -0.0239
  847loPI   C2A13216   8.784   1.005   7.452  0.2121 -0.2359  0.5564
  847loPI   C3A13217   8.807   1.018   7.806 -0.1146  0.0140  0.0361
  847loPI   C4A13218   8.883   0.925   8.192  0.1561 -0.1154  0.2816
  847loPI   C5A13219   8.597   0.853   8.612  0.3410 -0.1460 -0.1671
  847loPI   C6A13220   8.281   0.977   8.970  0.1326 -0.1722 -0.2481
  847loPI   C1B13221   9.080   1.332   6.687  0.1143 -0.0748  0.1498
  847loPI   C2B13222   9.116   1.280   7.128 -0.1989  0.1950 -0.1952
  847loPI   C3B13223   9.173   1.309   7.579 -0.0813 -0.1540 -0.0887
  847loPI   C4B13224   9.110   1.377   8.018 -0.2158 -0.0133 -0.3283
  848loPI    C113225  17.307   9.223   5.585  0.0576 -0.1336  0.1265
  848loPI    C213226  17.669   9.381   5.649  0.0787 -0.1283 -0.0040
  848loPI    C313227  17.469   9.467   5.313 -0.0747 -0.0745  0.0997
  848loPI   PO413228  17.268   9.073   5.740 -0.1527  0.0327  0.0984
  848loPI   GL113229  17.461   9.096   6.180 -0.1936 -0.1459  0.2368
  848loPI   GL213230  17.709   9.321   6.185  0.0478  0.0568  0.2623
  848loPI   C1A13231  17.514   9.073   6.601  0.0580 -0.0460 -0.0856
  848loPI   C2A13232  17.523   9.007   7.076  0.0387 -0.2407  0.0870
  848loPI   C3A13233  17.568   8.968   7.533  0.1612  0.0767  0.0964
  848loPI   C4A13234  17.453   8.973   7.977  0.3109  0.2288 -0.0622
  848loPI   C5A13235  17.470   8.848   8.423  0.0349  0.0961 -0.0863
  848loPI   C6A13236  17.752   8.921   8.698  0.0124 -0.1352 -0.0574
  848loPI   C1B13237  17.837   9.419   6.605 -0.2342 -0.1275 -0.3726
  848loPI   C2B13238  17.884   9.337   6.990 -0.1230  0.0113  0.1939
  848loPI   C3B13239  17.872   9.349   7.466 -0.0045  0.3277  0.1851
  848loPI   C4B13240  17.902   9.269   7.903 -0.0965 -0.0963  0.0789
  849loPI    C113241   1.107   9.468   5.718 -0.0165  0.1097 -0.3593
  849loPI    C213242   1.497   9.464   5.632  0.0784  0.0274  0.0538
  849loPI    C313243   1.253   9.714   5.439  0.3491  0.1418 -0.1467
  849loPI   PO413244   1.024   9.527   6.028 -0.0953 -0.1516  0.2263
  849loPI   GL113245   1.121   9.737   6.362 -0.0867  0.2525 -0.0813
  849loPI   GL213246   0.778   9.704   6.392  0.1565 -0.2608 -0.1199
  849loPI   C1A13247   1.171   9.906   6.694  0.2176 -0.1372 -0.2419
  849loPI   C2A13248   1.196   9.964   7.172 -0.2052 -0.1155 -0.2063
  849loPI   C3A13249   1.181   9.975   7.507 -0.0531 -0.0989  0.2248
  849loPI   C4A13250   1.123  10.053   7.915  0.0962 -0.1316 -0.0097
  849loPI   C5A13251   1.016  10.037   8.456  0.4771 -0.3406 -0.1850
  849loPI   C6A13252   1.140   9.809   8.869  0.0247 -0.0789  0.0681
  849loPI   C1B13253   0.751   9.691   6.897 -0.0334  0.1030 -0.0983
  849loPI   C2B13254   0.798   9.676   7.310 -0.0968  0.1929  0.0426
  849loPI   C3B13255   0.756   9.668   7.744 -0.1201  0.1033 -0.3378
  849loPI   C4B13256   0.736   9.673   8.210  0.1397 -0.0518  0.0500
  850loPI    C113257  12.182   2.276   5.780 -0.1167 -0.1394  0.2372
  850loPI    C213258  12.344   1.977   5.570 -0.0820  0.0648 -0.0312
  850loPI    C313259  11.974   2.102   5.485 -0.1273  0.0451  0.1346
  850loPI   PO413260  12.229   2.200   6.029  0.0280  0.0750 -0.0135
  850loPI   GL113261  12.276   2.489   6.373 -0.0562 -0.2180 -0.0548
  850loPI   GL213262  12.559   2.460   6.452 -0.1061 -0.2165  0.0699
  850loPI   C1A13263  12.124   2.512   6.743 -0.0117 -0.0585 -0.1245
  850loPI   C2A13264  12.126   2.468   7.127  0.0397 -0.2244 -0.0218
  850loPI   C3A13265  12.088   2.449   7.537 -0.2485  0.0121 -0.1088
  850loPI   C4A13266  12.051   2.504   7.943  0.1043 -0.1222 -0.0046
  850loPI   C5A13267  12.034   2.509   8.332  0.1729 -0.0378 -0.4350
  850loPI   C6A13268  12.284   2.596   8.685  0.1782 -0.2057  0.1504
  850loPI   C1B13269  12.573   2.323   6.863 -0.0808  0.0852 -0.2048
  850loPI   C2B13270  12.604   2.343   7.309  0.1919  0.1100 -0.1153
  850loPI   C3B13271  12.563   2.348   7.793  0.2867  0.1328  0.0585
  850loPI   C4B13272  12.484   2.464   8.173  0.1593 -0.1011  0.2027
  851loPI    C113273  15.199  11.461   5.390  0.0532 -0.0850  0.2064
  851loPI    C213274  14.989  11.801   5.390  0.0324 -0.0968  0.0122
  851loPI    C313275  15.384  11.811   5.333  0.0219 -0.1104 -0.0637
  851loPI   PO413276  15.091  11.304   5.621 -0.1012 -0.0241  0.1796
  851loPI   GL113277  15.007  11.191   5.987  0.1562 -0.0861  0.1719
  851loPI   GL213278  15.144  11.331   6.151 -0.1345 -0.3212 -0.2319
  851loPI   C1A13279  14.709  11.010   6.391  0.0406  0.0757  0.1379
  851loPI   C2A13280  14.720  11.061   6.830  0.1815 -0.2911  0.2434
  851loPI   C3A13281  14.700  11.070   7.265  0.0932 -0.2029  0.0484
  851loPI   C4A13282  14.702  11.133   7.638 -0.1543 -0.0291  0.1500
  851loPI   C5A13283  14.582  11.075   8.051  0.0979  0.2870  0.1139
  851loPI   C6A13284  14.508  11.099   8.425  0.0516  0.3983 -0.1376
  851loPI   C1B13285  15.078  11.323   6.521 -0.0505  0.1515 -0.0210
  851loPI   C2B13286  15.064  11.364   6.979 -0.0299  0.0033  0.1369
  851loPI   C3B13287  15.071  11.407   7.410 -0.0721 -0.1468 -0.0147
  851loPI   C4B13288  15.063  11.419   7.903 -0.2729 -0.1512  0.0647
  852loPI    C113289   4.937   4.303   5.899 -0.0663  0.1671  0.0758
  852loPI    C213290   4.800   4.074   5.601 -0.0038 -0.0493  0.2114
  852loPI    C313291   4.631   4.429   5.674  0.1364  0.1158 -0.2342
  852loPI   PO413292   5.023   4.192   6.066  0.2493 -0.1315  0.0680
  852loPI   GL113293   4.953   4.012   6.450 -0.0392  0.1084  0.0814
  852loPI   GL213294   4.821   4.236   6.662  0.1759  0.0337 -0.3414
  852loPI   C1A13295   5.059   3.726   6.834  0.1098 -0.0271 -0.3299
  852loPI   C2A13296   5.087   3.659   7.174  0.0041  0.0412 -0.1541
  852loPI   C3A13297   5.069   3.699   7.587 -0.0185  0.0220 -0.1343
  852loPI   C4A13298   5.053   3.702   8.063 -0.2723 -0.1492 -0.1852
  852loPI   C5A13299   5.361   3.698   8.381 -0.1044  0.1174  0.0525
  852loPI   C6A13300   5.800   3.792   8.357 -0.1433 -0.0028  0.0686
  852loPI   C1B13301   4.943   4.183   7.041 -0.3973 -0.1342  0.1523
  852loPI   C2B13302   4.964   4.172   7.471 -0.1303 -0.1022 -0.3998
  852loPI   C3B13303   4.933   4.202   7.900  0.1313 -0.1359  0.0387
  852loPI   C4B13304   5.043   4.143   8.345 -0.1023  0.2294  0.1667
  853loPI    C113305  16.018  15.687   5.333  0.0494 -0.1204  0.2999
  853loPI    C213306  16.163  15.490   5.016  0.3536  0.0295  0.3420
  853loPI    C313307  16.200  15.888   5.039 -0.2230  0.0954  0.2751
  853loPI   PO413308  16.055  15.453   5.534 -0.0825 -0.2669 -0.1575
  853loPI   GL113309  16.058  15.386   6.101  0.0825 -0.4197 -0.0872
  853loPI   GL213310  16.337  15.323   6.329 -0.2836 -0.1121  0.3009
  853loPI   C1A13311  15.869  15.376   6.504  0.2903  0.0291 -0.0662
  853loPI   C2A13312  15.846  15.346   6.901  0.1966  0.2692  0.1008
  853loPI   C3A13313  15.872  15.365   7.336 -0.2308 -0.1502  0.0649
  853loPI   C4A13314  15.921  15.389   7.718  0.0508  0.0850  0.1499
  853loPI   C5A13315  15.953  15.455   8.123 -0.3177  0.2534  0.0917
  853loPI   C6A13316  15.834  15.527   8.590 -0.0090 -0.3177  0.1785
  853loPI   C1B13317  16.395  15.250   6.737  0.2473  0.0044 -0.1342
  853loPI   C2B13318  16.395  15.268   7.149 -0.2380 -0.3681  0.1711
  853loPI   C3B13319  16.385  15.283   7.565 -0.2612 -0.4176  0.2346
  853loPI   C4B13320  16.416  15.230   7.998 -0.1197  0.1121  0.1883
  854loPI    C113321  14.304   3.259   5.922  0.1109 -0.1145  0.0396
  854loPI    C213322  14.411   3.551   5.670  0.2014 -0.2938 -0.1323
  854loPI    C313323  14.194   3.241   5.538 -0.2072 -0.1282  0.1279
  854loPI   PO413324  14.448   3.265   6.054 -0.3700 -0.2339  0.1709
  854loPI   GL113325  14.280   3.304   6.519  0.2003  0.1031  0.1303
  854loPI   GL213326  14.491   3.069   6.510  0.0064  0.0674 -0.2171
  854loPI   C1A13327  14.125   3.360   6.872 -0.1111  0.1037 -0.0612
  854loPI   C2A13328  14.171   3.339   7.278 -0.2815  0.0915 -0.2725
  854loPI   C3A13329  14.015   3.207   7.524 -0.2866 -0.2295  0.1799
  854loPI   C4A13330  14.087   3.289   7.987  0.0175  0.0799  0.0048
  854loPI   C5A13331  14.079   3.474   8.482  0.1577 -0.1024  0.0444
  854loPI   C6A13332  14.324   3.484   8.849  0.0878  0.2211 -0.1164
  854loPI   C1B13333  14.645   3.210   6.970  0.2251  0.1297 -0.0334
  854loPI   C2B13334  14.747   3.211   7.462  0.1312  0.0543  0.0489
  854loPI   C3B13335  14.632   3.218   7.995 -0.2003  0.2054 -0.3172
  854loPI   C4B13336  14.499   3.183   8.428 -0.0187 -0.0873 -0.1455
  855loPI    C113337   4.527  10.625   6.051 -0.1327  0.0416 -0.1514
  855loPI    C213338   4.600  10.232   6.073  0.0833  0.0937  0.1134
  855loPI    C313339   4.701  10.435   5.744  0.1794 -0.0306  0.0654
  855loPI   PO413340   4.614  10.681   6.238 -0.0624  0.1250  0.0616
  855loPI   GL113341   4.587  11.011   6.507  0.1629  0.0241  0.1614
  855loPI   GL213342   4.414  11.320   6.369  0.0244 -0.2818  0.2971
  855loPI   C1A13343   4.632  10.936   6.892  0.2186 -0.1130  0.1685
  855loPI   C2A13344   4.623  10.866   7.377  0.0161 -0.0740  0.0095
  855loPI   C3A13345   4.657  10.832   7.837  0.1384  0.2735 -0.0627
  855loPI   C4A13346   4.639  10.852   8.256  0.0346 -0.3531 -0.3278
  855loPI   C5A13347   4.614  10.679   8.651 -0.0311  0.0711  0.0079
  855loPI   C6A13348   4.577  10.732   9.055 -0.1468  0.2636  0.4033
  855loPI   C1B13349   4.482  11.427   6.730  0.1126  0.0545  0.0063
  855loPI   C2B13350   4.493  11.364   7.154  0.0302 -0.2935 -0.0015
  855loPI   C3B13351   4.420  11.296   7.649 -0.2304 -0.0285  0.1976
  855loPI   C4B13352   4.476  11.338   8.059  0.0909 -0.3613 -0.3627
  856loPI    C113353   4.506   8.029   5.840  0.0607 -0.0273 -0.0548
  856loPI    C213354   4.205   8.285   5.899  0.0998  0.0607 -0.2307
  856loPI    C313355   4.215   8.061   5.568  0.1351 -0.0728 -0.1403
  856loPI   PO413356   4.632   7.898   5.989  0.1480  0.0386 -0.0317
  856loPI   GL113357   4.731   7.861   6.374  0.0851 -0.1560  0.2088
  856loPI   GL213358   4.540   7.686   6.421  0.0892  0.3778  0.0068
  856loPI   C1A13359   4.849   8.003   6.752  0.1421  0.0880  0.0234
  856loPI   C2A13360   4.841   7.949   7.250  0.3641 -0.0593 -0.0295
  856loPI   C3A13361   4.817   7.933   7.536 -0.0554 -0.0226 -0.1268
  856loPI   C4A13362   4.812   7.971   7.943 -0.1965  0.0563  0.1445
  856loPI   C5A13363   4.725   7.861   8.331 -0.0906 -0.5554 -0.1118
  856loPI   C6A13364   4.851   7.837   8.702  0.2069  0.0217 -0.0172
  856loPI   C1B13365   4.522   7.664   6.892  0.0700 -0.1116 -0.0072
  856loPI   C2B13366   4.448   7.529   7.333  0.1867 -0.0025  0.2316
  856loPI   C3B13367   4.454   7.586   7.786 -0.1370  0.0166  0.0774
  856loPI   C4B13368   4.444   7.534   8.199 -0.4779  0.0029  0.0445
  857loPI    C113369   1.203   5.988   5.806 -0.2071  0.2276 -0.1357
  857loPI    C213370   0.999   5.719   5.592 -0.0421 -0.0415  0.0388
  857loPI    C313371   1.347   5.861   5.455  0.0006 -0.1172  0.0679
  857loPI   PO413372   1.063   6.161   5.889 -0.1188  0.3096  0.0900
  857loPI   GL113373   0.870   6.269   6.321 -0.2099 -0.0836 -0.1978
  857loPI   GL213374   1.199   6.149   6.362  0.1676 -0.1932 -0.2927
  857loPI   C1A13375   0.593   6.172   6.677 -0.2003  0.0680  0.2131
  857loPI   C2A13376   0.526   6.087   7.109  0.3628 -0.0870 -0.1188
  857loPI   C3A13377   0.485   6.150   7.578 -0.2352  0.0605 -0.1816
  857loPI   C4A13378   0.566   6.269   7.943  0.1179 -0.0653 -0.1642
  857loPI   C5A13379   0.510   6.222   8.416 -0.3246 -0.1038 -0.2962
  857loPI   C6A13380   0.371   6.207   8.845 -0.0674  0.2265 -0.1265
  857loPI   C1B13381   1.161   5.999   6.725 -0.0412  0.1087 -0.1543
  857loPI   C2B13382   1.055   6.132   7.180  0.0947  0.1325 -0.0499
  857loPI   C3B13383   1.014   6.089   7.622  0.0541 -0.3092  0.5093
  857loPI   C4B13384   1.225   6.201   8.014 -0.0592 -0.2042  0.0337
  858loPI    C113385   5.304   3.501   5.776  0.2718 -0.1842 -0.0265
  858loPI    C213386   5.633   3.728   5.788  0.0962  0.0593  0.3299
  858loPI    C313387   5.277   3.896   5.721  0.0284 -0.1893  0.0492
  858loPI   PO413388   5.311   3.360   5.987  0.0844  0.0839 -0.0536
  858loPI   GL113389   5.134   3.361   6.281  0.2402 -0.2342  0.0948
  858loPI   GL213390   5.338   3.287   6.520 -0.1321 -0.1983  0.0787
  858loPI   C1A13391   4.757   3.277   6.486  0.1027 -0.4942 -0.0086
  858loPI   C2A13392   4.692   3.381   6.911 -0.2398  0.0578 -0.0456
  858loPI   C3A13393   4.707   3.393   7.399 -0.1403 -0.1853  0.4541
  858loPI   C4A13394   4.720   3.366   7.808  0.0428  0.1068  0.3577
  858loPI   C5A13395   4.734   3.250   8.244  0.2787 -0.0450  0.2367
  858loPI   C6A13396   4.868   3.065   8.685 -0.0950  0.2995  0.1517
  858loPI   C1B13397   5.207   3.246   6.897  0.0555  0.0277  0.2364
  858loPI   C2B13398   5.250   3.175   7.258 -0.0061 -0.0895 -0.1409
  858loPI   C3B13399   5.166   3.241   7.682 -0.0413  0.0446  0.0070
  858loPI   C4B13400   5.225   3.225   8.114  0.3675  0.0753 -0.0664
  859loPI    C113401  15.801   2.757   5.684  0.0488  0.0005 -0.0965
  859loPI    C213402  15.495   2.983   5.559 -0.0728 -0.1464 -0.0678
  859loPI    C313403  15.717   2.781   5.294 -0.0498 -0.1022 -0.0823
  859loPI   PO413404  15.720   2.708   5.880 -0.0364 -0.0259 -0.1494
  859loPI   GL113405  15.786   2.437   6.283 -0.0280 -0.1338  0.0118
  859loPI   GL213406  15.647   2.793   6.356  0.0548 -0.3107 -0.1880
  859loPI   C1A13407  15.836   2.466   6.731  0.0201  0.0157  0.1628
  859loPI   C2A13408  15.799   2.462   7.175  0.0276  0.0791  0.1234
  859loPI   C3A13409  15.939   2.475   7.611 -0.3364 -0.1377 -0.0946
  859loPI   C4A13410  16.080   2.585   8.040 -0.1751 -0.1808 -0.0920
  859loPI   C5A13411  15.996   2.719   8.434 -0.0812 -0.2387  0.2183
  859loPI   C6A13412  15.826   2.597   8.806  0.1537  0.3048  0.3172
  859loPI   C1B13413  15.613   2.941   6.826 -0.0908  0.2988 -0.0924
  859loPI   C2B13414  15.702   2.916   7.095 -0.1817 -0.3734 -0.3714
  859loPI   C3B13415  15.768   2.972   7.570 -0.3461  0.0099 -0.0608
  859loPI   C4B13416  15.787   3.023   8.058 -0.0593 -0.1721 -0.1802
  860loPI    C113417   6.510  12.746   5.686  0.0903  0.1077 -0.1296
  860loPI    C213418   6.691  12.994   5.429  0.0358 -0.0125 -0.2854
  860loPI    C313419   6.477  12.685   5.292  0.2654 -0.2625 -0.0906
  860loPI   PO413420   6.671  12.766   5.943 -0.1994 -0.0479 -0.0353
  860loPI   GL113421   6.653  12.564   6.417 -0.2688 -0.0399 -0.0134
  860loPI   GL213422   6.325  12.682   6.546 -0.0205  0.1772  0.2968
  860loPI   C1A13423   6.810  12.557   6.909 -0.4664  0.0846  0.1371
  860loPI   C2A13424   6.790  12.586   7.325 -0.0415  0.1145  0.0097
  860loPI   C3A13425   6.869  12.663   7.826  0.2836  0.0987  0.0202
  860loPI   C4A13426   6.801  12.560   8.249 -0.2928  0.0487  0.1217
  860loPI   C5A13427   6.634  12.564   8.683 -0.0610  0.1979 -0.0858
  860loPI   C6A13428   6.521  12.515   9.194 -0.1102  0.1620 -0.2537
  860loPI   C1B13429   6.343  12.706   7.043  0.1572  0.0713 -0.2738
  860loPI   C2B13430   6.309  12.728   7.460 -0.2830 -0.0899 -0.2648
  860loPI   C3B13431   6.262  12.709   7.905 -0.1158  0.0560  0.1113
  860loPI   C4B13432   6.314  12.613   8.332  0.1870 -0.2144  0.1710
  861loPI    C113433  11.896   0.093   5.522  0.0828 -0.1799  0.1792
  861loPI    C213434  12.240  -0.103   5.464  0.1763  0.0606 -0.1036
  861loPI    C313435  12.044   0.053   5.152 -0.2147 -0.1111  0.0504
  861loPI   PO413436  11.818  -0.004   5.790  0.2058  0.0035 -0.0200
  861loPI   GL113437  11.856   0.204   6.230 -0.0879 -0.0021 -0.0227
  861loPI   GL213438  11.478   0.116   6.210 -0.0245  0.0897 -0.1896
  861loPI   C1A13439  11.791   0.268   6.628 -0.2593 -0.2346 -0.0699
  861loPI   C2A13440  11.799   0.274   7.106 -0.1250  0.3582  0.0435
  861loPI   C3A13441  11.844   0.378   7.499 -0.0136  0.1769 -0.2290
  861loPI   C4A13442  11.846   0.292   8.018  0.2305 -0.0673  0.0640
  861loPI   C5A13443  11.565   0.167   8.348 -0.0478 -0.0169 -0.1348
  861loPI   C6A13444  11.156  -0.003   8.318  0.0153 -0.1036  0.0980
  861loPI   C1B13445  11.442  -0.069   6.537  0.1575  0.0141 -0.0061
  861loPI   C2B13446  11.481  -0.093   7.025 -0.3181  0.0950 -0.0546
  861loPI   C3B13447  11.510  -0.019   7.454 -0.0644 -0.1399 -0.0319
  861loPI   C4B13448  11.512  -0.074   7.903 -0.0231  0.2010  0.1020
  862loPI    C113449  13.577  17.211   5.467 -0.0103 -0.0736  0.0837
  862loPI    C213450  13.671  16.906   5.226 -0.1390 -0.1715  0.1567
  862loPI    C313451  13.476  17.222   5.080  0.2651  0.0171  0.0124
  862loPI   PO413452  13.597  17.101   5.676 -0.1552  0.2771  0.0164
  862loPI   GL113453  13.622  17.185   6.074 -0.0208 -0.0617 -0.0097
  862loPI   GL213454  13.941  17.103   6.033  0.1703 -0.0333 -0.2222
  862loPI   C1A13455  13.406  17.401   6.417 -0.1402 -0.0395 -0.1664
  862loPI   C2A13456  13.346  17.371   6.829  0.1071  0.0293 -0.1010
  862loPI   C3A13457  13.406  17.338   7.255 -0.0644 -0.0308  0.2493
  862loPI   C4A13458  13.346  17.415   7.650 -0.3451  0.2054  0.0297
  862loPI   C5A13459  13.492  17.400   8.088 -0.0951 -0.0122 -0.3480
  862loPI   C6A13460  13.921  17.416   8.369  0.0858 -0.1650 -0.2687
  862loPI   C1B13461  13.939  17.157   6.495 -0.2648  0.1780  0.1111
  862loPI   C2B13462  13.952  17.280   6.921  0.1616  0.1889  0.1030
  862loPI   C3B13463  13.839  17.260   7.387 -0.1126  0.1798  0.0895
  862loPI   C4B13464  13.897  17.292   7.791 -0.0200  0.1883  0.0894
  863loPI    C113465   7.293  16.706   5.579 -0.1377 -0.0992  0.0072
  863loPI    C213466   7.310  16.317   5.490 -0.0660 -0.1069  0.0544
  863loPI    C313467   6.958  16.508   5.486 -0.0758 -0.1265 -0.1609
  863loPI   PO413468   7.395  16.720   5.874 -0.0562 -0.1275  0.4833
  863loPI   GL113469   7.275  16.925   6.284  0.0881 -0.2649 -0.2607
  863loPI   GL213470   7.077  16.692   6.532  0.0582  0.1351  0.1064
  863loPI   C1A13471   7.419  17.095   6.647  0.3125  0.1321  0.0578
  863loPI   C2A13472   7.445  17.014   7.126 -0.1057 -0.0615  0.1761
  863loPI   C3A13473   7.315  17.089   7.559  0.1026 -0.1665  0.1536
  863loPI   C4A13474   7.409  17.104   7.976  0.0163 -0.1775  0.2540
  863loPI   C5A13475   7.531  17.046   8.449 -0.2724  0.2173 -0.0273
  863loPI   C6A13476   7.414  16.678   8.771  0.1923 -0.3368  0.0800
  863loPI   C1B13477   7.019  16.610   6.995  0.3843 -0.2370  0.0685
  863loPI   C2B13478   7.027  16.575   7.417  0.2953  0.0677 -0.1292
  863loPI   C3B13479   7.030  16.611   7.917 -0.3144 -0.0492  0.0736
  863loPI   C4B13480   7.095  16.773   8.269  0.0871 -0.2711 -0.1735
  864loPI    C113481   4.622   8.602   5.875 -0.0642  0.3277 -0.1580
  864loPI    C213482   4.541   8.414   5.532  0.0635 -0.0528  0.0144
  864loPI    C313483   4.780   8.735   5.533 -0.0312  0.0216 -0.2645
  864loPI   PO413484   4.648   8.451   6.067 -0.2183 -0.1677 -0.0472
  864loPI   GL113485   4.741   8.368   6.448  0.1187  0.1482 -0.0099
  864loPI   GL213486   4.553   8.595   6.589 -0.0077  0.2027  0.2232
  864loPI   C1A13487   4.694   8.370   7.028 -0.0788 -0.1658 -0.1243
  864loPI   C2A13488   4.724   8.444   7.443 -0.1227  0.0580 -0.2399
  864loPI   C3A13489   4.783   8.459   7.829 -0.0560  0.1800  0.2011
  864loPI   C4A13490   4.695   8.440   8.273  0.0364  0.3731  0.0074
  864loPI   C5A13491   4.462   8.164   8.619  0.1114 -0.3512  0.2069
  864loPI   C6A13492   4.133   8.016   8.794  0.2418  0.2023  0.1832
  864loPI   C1B13493   4.189   8.564   6.891 -0.0969  0.2228  0.2011
  864loPI   C2B13494   4.193   8.570   7.429  0.2046 -0.1559  0.0104
  864loPI   C3B13495   4.304   8.639   7.787 -0.0572  0.0726  0.1661
  864loPI   C4B13496   4.223   8.500   8.108 -0.1806  0.1541  0.0799
  865loPI    C113497  12.270   5.918   5.635 -0.0446 -0.1061 -0.1024
  865loPI    C213498  12.187   6.208   5.372  0.2939  0.1766  0.0943
  865loPI    C313499  12.422   5.902   5.265  0.1642  0.1189 -0.0288
  865loPI   PO413500  12.191   6.061   5.848  0.0648  0.1051  0.0623
  865loPI   GL113501  12.260   6.029   6.300 -0.1917  0.3796  0.0094
  865loPI   GL213502  12.458   5.766   6.394  0.0693 -0.1215  0.3104
  865loPI   C1A13503  12.619   6.284   6.585  0.0314 -0.0188  0.2418
  865loPI   C2A13504  12.768   6.355   6.955  0.0425 -0.1504 -0.1811
  865loPI   C3A13505  12.736   6.378   7.487  0.0382 -0.0695 -0.1145
  865loPI   C4A13506  12.728   6.494   7.896  0.1775 -0.0313 -0.0606
  865loPI   C5A13507  12.823   6.507   8.296  0.2366 -0.2409 -0.0091
  865loPI   C6A13508  12.637   6.412   8.671 -0.0882 -0.3041  0.0550
  865loPI   C1B13509  12.314   5.970   6.822 -0.1009  0.1860 -0.0165
  865loPI   C2B13510  12.371   6.033   7.275 -0.2170  0.1188  0.0474
  865loPI   C3B13511  12.325   6.067   7.749 -0.0142  0.0334 -0.0860
  865loPI   C4B13512  12.437   6.108   8.177  0.0823 -0.0539  0.0788
  866loPI    C113513   8.248   8.278   5.864  0.0295  0.2107  0.2036
  866loPI    C213514   8.463   8.489   5.601  0.1483 -0.1852 -0.0254
  866loPI    C313515   8.064   8.497   5.586  0.1463  0.2120  0.1268
  866loPI   PO413516   8.414   8.363   6.131  0.1558 -0.0092  0.0033
  866loPI   GL113517   8.411   8.152   6.512 -0.0282 -0.4079 -0.0888
  866loPI   GL213518   8.703   7.942   6.597 -0.0231 -0.3974 -0.1855
  866loPI   C1A13519   8.397   8.418   6.869  0.1216 -0.0368 -0.1364
  866loPI   C2A13520   8.414   8.367   7.355 -0.4362 -0.3732  0.0802
  866loPI   C3A13521   8.470   8.388   7.775 -0.1133 -0.2938 -0.3711
  866loPI   C4A13522   8.502   8.427   8.179  0.0907 -0.0478 -0.1505
  866loPI   C5A13523   8.310   8.553   8.491 -0.0678  0.0744 -0.0864
  866loPI   C6A13524   7.958   8.539   8.760 -0.2011  0.0527 -0.0696
  866loPI   C1B13525   8.570   7.878   7.051 -0.3304 -0.1756  0.1765
  866loPI   C2B13526   8.529   7.867   7.516 -0.0507 -0.3189 -0.1298
  866loPI   C3B13527   8.586   7.857   7.989 -0.1318  0.1443  0.3846
  866loPI   C4B13528   8.611   7.952   8.434  0.0334 -0.1312 -0.1665
  867loPI    C113529   2.498   1.304   5.501 -0.1240 -0.0086 -0.1111
  867loPI    C213530   2.874   1.395   5.604 -0.2572  0.2405  0.1696
  867loPI    C313531   2.792   1.273   5.232  0.1648 -0.2326  0.2212
  867loPI   PO413532   2.442   1.202   5.757  0.0961 -0.1794  0.2720
  867loPI   GL113533   2.293   1.288   6.190  0.0009 -0.0143 -0.0263
  867loPI   GL213534   2.249   1.638   6.244 -0.0914 -0.0067  0.2841
  867loPI   C1A13535   2.051   1.141   6.490  0.0199  0.0756 -0.1900
  867loPI   C2A13536   2.081   1.158   6.865 -0.2339  0.1277 -0.1200
  867loPI   C3A13537   2.104   1.238   7.278 -0.0994  0.1402  0.1817
  867loPI   C4A13538   2.112   1.122   7.640 -0.0876  0.1034  0.1815
  867loPI   C5A13539   2.197   1.109   8.097 -0.1524 -0.0402  0.0463
  867loPI   C6A13540   2.068   0.723   8.425  0.0644 -0.1268 -0.1273
  867loPI   C1B13541   2.421   1.549   6.700  0.1693  0.0266 -0.1314
  867loPI   C2B13542   2.522   1.533   7.176  0.0726 -0.1762 -0.1933
  867loPI   C3B13543   2.435   1.525   7.618 -0.3538  0.2600 -0.0697
  867loPI   C4B13544   2.524   1.474   7.967  0.2765 -0.1988  0.1870
  868loPI    C113545   4.137   4.559   5.917  0.0990 -0.1387 -0.1417
  868loPI    C213546   4.213   4.890   5.706 -0.1889  0.0356  0.0214
  868loPI    C313547   4.072   4.565   5.522 -0.3745  0.1647 -0.0677
  868loPI   PO413548   4.276   4.625   6.136  0.0413  0.0550 -0.0459
  868loPI   GL113549   4.300   4.559   6.502  0.0449  0.1183 -0.0706
  868loPI   GL213550   4.329   4.241   6.557  0.1923  0.1097 -0.2951
  868loPI   C1A13551   4.288   4.804   6.817 -0.1806  0.1608  0.3732
  868loPI   C2A13552   4.299   4.794   7.239 -0.1729 -0.0103 -0.0975
  868loPI   C3A13553   4.331   4.858   7.804  0.0757 -0.2069  0.0173
  868loPI   C4A13554   4.294   4.915   8.205  0.0464 -0.1034 -0.4274
  868loPI   C5A13555   4.091   4.721   8.526 -0.1185  0.0335  0.1363
  868loPI   C6A13556   4.056   4.342   8.736  0.2494  0.2417 -0.1699
  868loPI   C1B13557   4.418   4.327   6.972  0.1743  0.0860  0.0775
  868loPI   C2B13558   4.494   4.310   7.387 -0.2634 -0.1928 -0.1298
  868loPI   C3B13559   4.429   4.322   7.811 -0.0873 -0.0990  0.0726
  868loPI   C4B13560   4.323   4.342   8.316 -0.0892  0.2365  0.2544
  869loPI    C113561   1.610  11.911   5.700 -0.2885  0.0641  0.1763
  869loPI    C213562   1.660  12.203   5.968 -0.0564  0.0484  0.1525
  869loPI    C313563   1.639  12.291   5.578  0.1590  0.0218  0.1340
  869loPI   PO413564   1.476  11.712   5.788 -0.0703  0.0248 -0.4359
  869loPI   GL113565   1.328  11.809   6.147 -0.2272  0.2314 -0.2582
  869loPI   GL213566   1.086  11.907   6.207  0.2349  0.0848  0.1594
  869loPI   C1A13567   1.431  12.228   6.422  0.2319 -0.1070 -0.1302
  869loPI   C2A13568   1.489  12.127   6.849 -0.0718 -0.2796  0.0528
  869loPI   C3A13569   1.494  12.179   7.262 -0.0918  0.1413  0.0313
  869loPI   C4A13570   1.484  12.173   7.710  0.0408  0.0669 -0.2572
  869loPI   C5A13571   1.467  12.176   8.113  0.1059 -0.1221  0.0175
  869loPI   C6A13572   1.210  11.892   8.331 -0.1088  0.0125  0.1616
  869loPI   C1B13573   1.120  11.853   6.620 -0.0633  0.0098  0.1160
  869loPI   C2B13574   1.118  11.828   7.062 -0.3502  0.2330  0.0801
  869loPI   C3B13575   1.123  11.854   7.494  0.0889 -0.3904  0.1465
  869loPI   C4B13576   0.962  11.823   7.896 -0.2161 -0.0828  0.1614
  870loPI    C113577   6.975   9.791   5.634 -0.0799 -0.1585 -0.0332
  870loPI    C213578   6.602   9.913   5.554  0.0270  0.1930 -0.0123
  870loPI    C313579   6.810   9.711   5.278 -0.1732  0.0029 -0.0271
  870loPI   PO413580   6.937   9.715   5.908 -0.0945 -0.2653  0.0170
  870loPI   GL113581   6.780   9.865   6.356 -0.3087 -0.0535 -0.0078
  870loPI   GL213582   7.143  10.005   6.431 -0.2261 -0.0384 -0.2531
  870loPI   C1A13583   6.692   9.862   6.671  0.0079 -0.0984  0.1676
  870loPI   C2A13584   6.732   9.752   7.097  0.0907 -0.1967  0.3195
  870loPI   C3A13585   6.699   9.831   7.513 -0.0211  0.4601 -0.3056
  870loPI   C4A13586   6.754   9.825   8.008 -0.2522  0.0333 -0.0386
  870loPI   C5A13587   6.614   9.753   8.330  0.1787  0.0002 -0.0265
  870loPI   C6A13588   6.175   9.810   8.607  0.1160 -0.0903 -0.1475
  870loPI   C1B13589   7.168  10.144   6.878 -0.3961  0.0016 -0.0781
  870loPI   C2B13590   7.071  10.105   7.317 -0.1663 -0.1050  0.0549
  870loPI   C3B13591   6.971  10.196   7.725 -0.0309 -0.3113 -0.2543
  870loPI   C4B13592   6.996  10.204   8.168 -0.2451 -0.0592  0.1356
  871loPI    C113593  10.489   4.724   5.455 -0.2630 -0.0489  0.0108
  871loPI    C213594  10.643   4.941   5.156  0.0889 -0.2145  0.0672
  871loPI    C313595  10.408   4.627   5.075  0.0491 -0.1602 -0.0299
  871loPI   PO413596  10.355   4.843   5.691 -0.0597 -0.0857  0.4159
  871loPI   GL113597  10.134   4.747   6.154 -0.0524  0.0530  0.3321
  871loPI   GL213598   9.873   4.769   6.365  0.1493  0.2093 -0.0947
  871loPI   C1A13599  10.421   4.789   6.480  0.0697 -0.1886 -0.2237
  871loPI   C2A13600  10.392   4.690   6.998 -0.2762  0.1813  0.1506
  871loPI   C3A13601  10.413   4.700   7.412  0.0378  0.0959 -0.1913
  871loPI   C4A13602  10.488   4.747   7.864  0.1157 -0.0657  0.0987
  871loPI   C5A13603  10.420   4.792   8.294 -0.3957 -0.1576  0.3426
  871loPI   C6A13604  10.075   4.939   8.549  0.0087 -0.0367  0.1547
  871loPI   C1B13605   9.853   4.822   6.746 -0.1474  0.2835  0.1747
  871loPI   C2B13606   9.966   4.764   7.120 -0.1516  0.1171 -0.1874
  871loPI   C3B13607   9.935   4.828   7.572 -0.1790  0.1955 -0.2491
  871loPI   C4B13608   9.958   4.901   7.935  0.1530 -0.1329 -0.1367
  872loPI    C113609  17.171   3.088   5.523 -0.0550  0.0965 -0.0346
  872loPI    C213610  17.133   2.691   5.550  0.0527  0.0946  0.0989
  872loPI    C313611  17.490   2.852   5.469 -0.0268  0.1567 -0.1333
  872loPI   PO413612  17.046   3.214   5.781  0.1265 -0.1073  0.0704
  872loPI   GL113613  16.884   3.366   6.339 -0.0896  0.0003 -0.1133
  872loPI   GL213614  16.925   3.091   6.301  0.4043  0.2226  0.0746
  872loPI   C1A13615  16.989   3.633   6.704  0.1078 -0.0748 -0.2592
  872loPI   C2A13616  16.925   3.703   7.267  0.0422 -0.0338  0.0064
  872loPI   C3A13617  17.011   3.617   7.662  0.2623  0.2976 -0.1931
  872loPI   C4A13618  17.060   3.653   8.118  0.4524 -0.0613 -0.2666
  872loPI   C5A13619  16.811   3.809   8.484 -0.1667  0.0480  0.0519
  872loPI   C6A13620  16.667   3.859   8.866  0.0713  0.1219  0.5666
  872loPI   C1B13621  17.055   3.058   6.724 -0.0076 -0.0468 -0.0364
  872loPI   C2B13622  17.034   3.258   7.097 -0.1205  0.1690  0.2566
  872loPI   C3B13623  17.138   3.161   7.443 -0.1164 -0.1794  0.0821
  872loPI   C4B13624  17.154   3.163   7.850 -0.2580 -0.1968  0.0522
  873loPI    C113625  15.658  10.895   5.610  0.0850  0.2829  0.0171
  873loPI    C213626  15.363  10.973   5.351  0.0696  0.1314 -0.0115
  873loPI    C313627  15.718  10.844   5.218 -0.0367 -0.2474  0.0606
  873loPI   PO413628  15.494  11.062   5.858  0.1830 -0.1478  0.1979
  873loPI   GL113629  15.663  11.119   6.260  0.0729  0.0598 -0.1641
  873loPI   GL213630  15.613  11.377   6.299 -0.0686  0.0433 -0.2033
  873loPI   C1A13631  15.680  10.847   6.535  0.1192  0.0983 -0.1463
  873loPI   C2A13632  15.663  10.831   6.981 -0.0062 -0.0747 -0.2249
  873loPI   C3A13633  15.646  10.804   7.490 -0.1548  0.3461 -0.1215
  873loPI   C4A13634  15.587  10.819   7.924 -0.0174  0.0019 -0.0608
  873loPI   C5A13635  15.574  10.809   8.339 -0.1879 -0.0841 -0.0682
  873loPI   C6A13636  15.682  11.176   8.585  0.1521  0.2932  0.0481
  873loPI   C1B13637  15.560  11.257   6.814  0.1333  0.0578  0.1975
  873loPI   C2B13638  15.566  11.296   7.182  0.0664  0.2311  0.1641
  873loPI   C3B13639  15.568  11.309   7.677  0.0180 -0.2040 -0.1098
  873loPI   C4B13640  15.461  11.265   8.101  0.3664  0.1921 -0.1202
  874loPI    C113641  16.098  12.556   5.570  0.1570  0.2193 -0.1757
  874loPI    C213642  16.253  12.206   5.685 -0.0926  0.0579 -0.3221
  874loPI    C313643  16.365  12.370   5.338 -0.0723  0.0585 -0.3151
  874loPI   PO413644  16.178  12.720   5.710  0.0190  0.0159 -0.3030
  874loPI   GL113645  16.155  12.845   6.013 -0.1947 -0.3226  0.0304
  874loPI   GL213646  15.962  12.620   6.294 -0.2606  0.0203 -0.1481
  874loPI   C1A13647  15.979  13.120   6.460  0.4032  0.1270  0.1360
  874loPI   C2A13648  16.120  13.096   6.854  0.1261 -0.1312  0.1470
  874loPI   C3A13649  16.106  13.153   7.312 -0.0994  0.2503 -0.0663
  874loPI   C4A13650  16.020  13.079   7.646  0.1055 -0.0218 -0.3533
  874loPI   C5A13651  16.117  13.002   8.117 -0.2375 -0.1832 -0.1648
  874loPI   C6A13652  15.972  12.767   8.467  0.0013 -0.1291  0.3176
  874loPI   C1B13653  16.152  12.590   6.736  0.1265 -0.1848 -0.2930
  874loPI   C2B13654  16.236  12.552   7.121 -0.3332 -0.1404  0.2325
  874loPI   C3B13655  16.150  12.551   7.628 -0.3239  0.0899  0.2229
  874loPI   C4B13656  16.236  12.494   8.129  0.2962  0.1125 -0.1462
  875loPI    C113657  10.800  10.128   5.954  0.1049 -0.0886  0.1294
  875loPI    C213658  10.493   9.925   6.111 -0.0373  0.0471  0.0293
  875loPI    C313659  10.768   9.733   5.894 -0.0936 -0.0624  0.0539
  875loPI   PO413660  10.809  10.343   6.095 -0.0595  0.1398 -0.0751
  875loPI   GL113661  10.921  10.438   6.426  0.4384  0.3679 -0.1615
  875loPI   GL213662  11.219  10.642   6.536 -0.0037  0.1809 -0.1483
  875loPI   C1A13663  10.733  10.216   6.706  0.1243  0.1587 -0.0397
  875loPI   C2A13664  10.756  10.177   7.139  0.1297 -0.2189  0.0708
  875loPI   C3A13665  10.697  10.181   7.534 -0.1698  0.1220  0.3408
  875loPI   C4A13666  10.676  10.278   7.952  0.1407 -0.1874 -0.2345
  875loPI   C5A13667  10.632  10.370   8.278  0.0748 -0.2762  0.1707
  875loPI   C6A13668  10.587  10.124   8.614  0.0522 -0.0641  0.0024
  875loPI   C1B13669  11.104  10.544   6.965 -0.0831  0.1729  0.2244
  875loPI   C2B13670  11.051  10.538   7.361 -0.0910 -0.2019 -0.1010
  875loPI   C3B13671  11.012  10.648   7.794  0.0594  0.1254 -0.0456
  875loPI   C4B13672  11.012  10.722   8.198  0.3286  0.0417  0.2032
  876loPI    C113673   6.117   8.093   5.800  0.1827 -0.2843  0.0529
  876loPI    C213674   6.329   8.277   5.515  0.1068 -0.2184  0.0386
  876loPI    C313675   6.196   7.904   5.456 -0.0624 -0.1398 -0.0860
  876loPI   PO413676   6.142   8.116   6.101 -0.4332  0.1302  0.2785
  876loPI   GL113677   6.065   8.032   6.497 -0.0553  0.1170 -0.1103
  876loPI   GL213678   5.816   8.233   6.468  0.2140  0.0933 -0.1364
  876loPI   C1A13679   6.165   8.106   6.869 -0.1648  0.0295  0.0390
  876loPI   C2A13680   6.224   7.991   7.284  0.1769 -0.3130  0.0006
  876loPI   C3A13681   6.235   8.043   7.749 -0.1947 -0.1496  0.0373
  876loPI   C4A13682   6.223   8.049   8.118  0.1032 -0.0240 -0.2097
  876loPI   C5A13683   6.286   7.976   8.571  0.0632  0.0094 -0.4477
  876loPI   C6A13684   6.050   8.110   8.980  0.3777 -0.0084  0.0969
  876loPI   C1B13685   5.647   8.247   6.819 -0.1681  0.1971  0.2212
  876loPI   C2B13686   5.740   8.170   7.214  0.1845 -0.0663  0.0198
  876loPI   C3B13687   5.763   8.209   7.625  0.0009 -0.0397 -0.3448
  876loPI   C4B13688   5.682   8.185   8.025 -0.0866  0.2137 -0.0278
  877loPI    C113689   2.570   7.424   5.810  0.2833 -0.1963 -0.0824
  877loPI    C213690   2.368   7.200   5.548  0.0611 -0.2286  0.1125
  877loPI    C313691   2.521   7.551   5.434 -0.1580 -0.1752 -0.0236
  877loPI   PO413692   2.496   7.420   6.050  0.0852  0.0136 -0.1658
  877loPI   GL113693   2.291   7.463   6.480  0.0915  0.1873 -0.0075
  877loPI   GL213694   2.173   7.742   6.434 -0.0536 -0.2911 -0.1727
  877loPI   C1A13695   2.206   7.250   6.821  0.1895 -0.1248 -0.2844
  877loPI   C2A13696   2.267   7.350   7.180 -0.0397 -0.2563 -0.0252
  877loPI   C3A13697   2.256   7.408   7.623  0.3182 -0.3292  0.0930
  877loPI   C4A13698   2.341   7.342   8.044  0.2232  0.3497  0.0030
  877loPI   C5A13699   2.104   7.304   8.400 -0.1917 -0.2975  0.3434
  877loPI   C6A13700   1.921   7.180   8.769  0.4458  0.0769  0.3679
  877loPI   C1B13701   2.184   7.791   6.869 -0.0413  0.2589  0.2250
  877loPI   C2B13702   2.100   7.843   7.205 -0.2142  0.3890  0.0673
  877loPI   C3B13703   2.179   7.926   7.613 -0.0349  0.1515  0.2817
  877loPI   C4B13704   2.252   7.845   8.046  0.3216  0.1913  0.0263
  878loPI    C113705  15.624   9.534   5.712  0.4534  0.1036 -0.0830
  878loPI    C213706  15.821   9.306   5.448  0.0686 -0.1109 -0.1925
  878loPI    C313707  15.443   9.415   5.376  0.0529  0.0679  0.1398
  878loPI   PO413708  15.684   9.446   5.963  0.1120  0.2961 -0.0347
  878loPI   GL113709  15.794   9.653   6.322  0.2459  0.1349 -0.0876
  878loPI   GL213710  15.994   9.385   6.329  0.0467 -0.3427 -0.0672
  878loPI   C1A13711  15.934   9.775   6.684  0.1667  0.3389 -0.2577
  878loPI   C2A13712  15.962   9.877   7.017 -0.2342 -0.0200  0.1058
  878loPI   C3A13713  15.942   9.868   7.443  0.3593 -0.2439  0.3053
  878loPI   C4A13714  15.907   9.781   7.877 -0.1561  0.0484  0.1291
  878loPI   C5A13715  15.759   9.817   8.305  0.0793  0.4932 -0.3656
  878loPI   C6A13716  15.585   9.664   8.598  0.0169  0.1667 -0.1764
  878loPI   C1B13717  16.062   9.300   6.737 -0.0336 -0.3485  0.0529
  878loPI   C2B13718  16.038   9.391   7.173  0.0372  0.1019  0.2453
  878loPI   C3B13719  16.088   9.374   7.602  0.3992 -0.4393 -0.3359
  878loPI   C4B13720  15.990   9.352   8.072  0.2975 -0.0509 -0.2650
  879loPI    C113721  16.808  11.877   5.733  0.0863  0.0495 -0.0684
  879loPI    C213722  16.780  11.569   5.987 -0.2277  0.0928 -0.0465
  879loPI    C313723  16.823  11.502   5.596  0.1654  0.0258  0.0038
  879loPI   PO413724  16.691  12.042   5.902 -0.2036 -0.0781 -0.1465
  879loPI   GL113725  16.664  12.051   6.271  0.0321  0.1293  0.1502
  879loPI   GL213726  16.534  12.370   6.304 -0.1434  0.1671  0.1341
  879loPI   C1A13727  16.775  11.888   6.654 -0.1868  0.2468  0.2068
  879loPI   C2A13728  16.725  11.913   7.046  0.1006 -0.0066  0.3009
  879loPI   C3A13729  16.729  11.970   7.459 -0.0995 -0.0397  0.4942
  879loPI   C4A13730  16.762  11.803   7.805  0.1823 -0.2193 -0.1721
  879loPI   C5A13731  16.677  12.137   8.149  0.0431 -0.2117  0.0329
  879loPI   C6A13732  16.724  12.380   8.535 -0.3966 -0.1261 -0.2040
  879loPI   C1B13733  16.642  12.394   6.740  0.2391 -0.0883 -0.0821
  879loPI   C2B13734  16.675  12.407   7.122  0.0828 -0.0733 -0.0568
  879loPI   C3B13735  16.615  12.416   7.615  0.0031  0.1035 -0.3564
  879loPI   C4B13736  16.734  12.560   7.940  0.3616  0.0627 -0.3476
  880loPI    C113737  11.153   9.810   5.538  0.0867 -0.0611 -0.0109
  880loPI    C213738  10.840  10.055   5.492 -0.0789 -0.2731 -0.0310
  880loPI    C313739  10.978   9.846   5.180  0.0735 -0.1928 -0.0183
  880loPI   PO413740  11.276   9.971   5.825  0.0941 -0.0590 -0.3314
  880loPI   GL113741  11.111   9.961   6.281 -0.0695 -0.1763  0.2928
  880loPI   GL213742  10.879   9.783   6.430  0.0280 -0.0102  0.1587
  880loPI   C1A13743  11.204  10.077   6.743  0.1224  0.0987  0.1700
  880loPI   C2A13744  11.305  10.036   7.103  0.1673 -0.2091 -0.0390
  880loPI   C3A13745  11.169  10.046   7.591 -0.2162 -0.1746 -0.0516
  880loPI   C4A13746  11.205  10.189   7.977  0.1171  0.2231 -0.2955
  880loPI   C5A13747  11.186  10.293   8.414 -0.2654  0.0069  0.0047
  880loPI   C6A13748  10.992  10.488   8.650 -0.0623  0.0286 -0.0369
  880loPI   C1B13749  10.911   9.595   6.848  0.0285  0.1081  0.0474
  880loPI   C2B13750  10.870   9.617   7.306 -0.3566  0.0109 -0.0428
  880loPI   C3B13751  10.863   9.708   7.820  0.0393 -0.4576  0.1881
  880loPI   C4B13752  10.811   9.879   8.188  0.1047  0.1391 -0.3036
  881loPI    C113753  14.439  13.854   5.683 -0.0633  0.0488  0.1531
  881loPI    C213754  14.690  14.097   5.488  0.0763 -0.1499  0.0815
  881loPI    C313755  14.356  13.968   5.309 -0.0511  0.0703  0.1569
  881loPI   PO413756  14.438  13.987   5.899  0.1233  0.2396 -0.2768
  881loPI   GL113757  14.547  14.059   6.249  0.0383 -0.1075  0.3666
  881loPI   GL213758  14.378  13.933   6.454 -0.0898 -0.1166 -0.3207
  881loPI   C1A13759  14.787  14.311   6.490 -0.0497 -0.0294 -0.2040
  881loPI   C2A13760  14.785  14.355   6.932  0.2215  0.1611 -0.0292
  881loPI   C3A13761  14.784  14.216   7.357  0.0191 -0.1128  0.1547
  881loPI   C4A13762  14.801  14.266   7.729  0.1685 -0.0637  0.1633
  881loPI   C5A13763  14.843  14.438   8.116 -0.0782  0.0792  0.2299
  881loPI   C6A13764  14.906  14.487   8.563  0.2810  0.1759  0.2093
  881loPI   C1B13765  14.499  13.926   6.990 -0.0182  0.0429  0.1216
  881loPI   C2B13766  14.455  13.885   7.466  0.3109  0.2904 -0.2228
  881loPI   C3B13767  14.492  13.839   7.816 -0.0014  0.3560  0.0799
  881loPI   C4B13768  14.355  13.971   8.090  0.1930  0.1177 -0.2983
  882loPI    C113769  14.337   5.624   5.683 -0.0856 -0.0407  0.3209
  882loPI    C213770  14.320   5.989   5.518  0.1553 -0.2305 -0.1431
  882loPI    C313771  14.026   5.725   5.452  0.1674 -0.2491 -0.1229
  882loPI   PO413772  14.447   5.734   5.974 -0.0620  0.0047 -0.2396
  882loPI   GL113773  14.342   5.737   6.327  0.1252  0.2316 -0.0089
  882loPI   GL213774  14.359   5.535   6.618  0.2748 -0.2206  0.1070
  882loPI   C1A13775  14.273   6.054   6.564  0.0054 -0.0754 -0.1679
  882loPI   C2A13776  14.291   6.086   6.979 -0.0181  0.1553 -0.0940
  882loPI   C3A13777  14.207   5.940   7.361 -0.3690 -0.0053 -0.2694
  882loPI   C4A13778  14.185   6.062   7.782 -0.1595 -0.1445 -0.1836
  882loPI   C5A13779  14.294   6.020   8.228  0.0390 -0.0031  0.0132
  882loPI   C6A13780  14.047   6.043   8.604 -0.1549 -0.2572  0.1954
  882loPI   C1B13781  14.452   5.553   7.085  0.1137 -0.0037 -0.0797
  882loPI   C2B13782  14.394   5.455   7.408 -0.0071  0.0489 -0.0683
  882loPI   C3B13783  14.339   5.562   7.800 -0.2275 -0.1971 -0.1376
  882loPI   C4B13784  14.334   5.502   8.229  0.3325 -0.1617 -0.1214
  883loPI    C113785   9.249   1.705   5.834 -0.1296  0.2129  0.0024
  883loPI    C213786   9.429   1.426   5.611 -0.1078  0.1756  0.0663
  883loPI    C313787   9.326   1.776   5.448 -0.1953  0.1051 -0.0309
  883loPI   PO413788   9.353   1.707   6.072 -0.3245 -0.0809  0.0087
  883loPI   GL113789   9.071   1.755   6.471 -0.3742  0.1131  0.0032
  883loPI   GL213790   9.142   2.057   6.586  0.1480  0.0234 -0.0607
  883loPI   C1A13791   8.932   1.800   6.929  0.0446  0.0755  0.1803
  883loPI   C2A13792   9.023   1.738   7.346  0.1570 -0.0229 -0.1255
  883loPI   C3A13793   9.042   1.807   7.741 -0.0852 -0.2285  0.0569
  883loPI   C4A13794   9.021   1.817   8.189  0.3014  0.2056  0.0873
  883loPI   C5A13795   9.170   1.780   8.603 -0.2218  0.3086 -0.1326
  883loPI   C6A13796   9.074   1.565   8.947 -0.0277  0.0045 -0.0385
  883loPI   C1B13797   9.360   2.118   6.964  0.0659 -0.1205  0.0217
  883loPI   C2B13798   9.306   2.136   7.497 -0.0710 -0.2655  0.1026
  883loPI   C3B13799   9.325   2.217   7.898 -0.0282  0.1137  0.3351
  883loPI   C4B13800   9.328   2.268   8.297 -0.0841 -0.0067  0.0757
  884loPI    C113801   3.201   8.710   5.914 -0.2615  0.2641  0.1448
  884loPI    C213802   3.426   8.913   5.653 -0.0936 -0.2980 -0.1631
  884loPI    C313803   3.067   9.053   5.758  0.1050  0.2599 -0.1956
  884loPI   PO413804   3.294   8.670   6.107 -0.0609 -0.3917 -0.5008
  884loPI   GL113805   3.330   8.832   6.474  0.3102 -0.0476  0.0981
  884loPI   GL213806   3.372   8.435   6.551  0.0494  0.2956  0.0615
  884loPI   C1A13807   3.269   8.843   6.931 -0.0908 -0.3583 -0.1219
  884loPI   C2A13808   3.283   8.843   7.365 -0.0197 -0.1878  0.0279
  884loPI   C3A13809   3.242   8.892   7.896 -0.3011 -0.0495  0.1382
  884loPI   C4A13810   3.225   8.893   8.368 -0.0447 -0.3892  0.0032
  884loPI   C5A13811   3.361   8.843   8.717 -0.0954 -0.0513 -0.0376
  884loPI   C6A13812   3.427   8.572   9.061 -0.3228  0.0748 -0.0021
  884loPI   C1B13813   3.373   8.362   6.886  0.1414  0.1131 -0.2823
  884loPI   C2B13814   3.433   8.351   7.397  0.3897 -0.0701  0.2512
  884loPI   C3B13815   3.405   8.390   7.928 -0.1159  0.2722  0.0779
  884loPI   C4B13816   3.416   8.374   8.438 -0.3093  0.2327 -0.1850
  885loPI    C113817   9.403   8.657   5.898 -0.0742  0.1376 -0.1217
  885loPI    C213818   9.513   8.448   5.575 -0.0183 -0.0759  0.0331
  885loPI    C313819   9.162   8.640   5.579  0.0654  0.0882 -0.2256
  885loPI   PO413820   9.526   8.585   6.080  0.1753 -0.2674 -0.4144
  885loPI   GL113821   9.420   8.623   6.558  0.1776 -0.1191  0.4121
  885loPI   GL213822   9.203   8.767   6.733 -0.1468 -0.1533 -0.1688
  885loPI   C1A13823   9.807   8.609   6.811 -0.0763 -0.0352 -0.0185
  885loPI   C2A13824   9.821   8.533   7.250 -0.2196 -0.0901  0.2059
  885loPI   C3A13825   9.788   8.559   7.640  0.0027 -0.2171  0.2324
  885loPI   C4A13826   9.791   8.757   7.932 -0.1555  0.2290  0.0590
  885loPI   C5A13827   9.696   8.777   8.405  0.1675 -0.1426  0.0840
  885loPI   C6A13828   9.672   9.208   8.703  0.1068  0.1414  0.1114
  885loPI   C1B13829   9.264   8.743   7.123 -0.2473  0.0708  0.1154
  885loPI   C2B13830   9.274   8.677   7.615  0.3937  0.0426  0.0840
  885loPI   C3B13831   9.269   8.815   8.021 -0.1568 -0.0230  0.0747
  885loPI   C4B13832   9.214   8.708   8.484 -0.1273  0.0134  0.2854
  886loPI    C113833  10.416  15.874   5.848  0.0761 -0.1037 -0.0510
  886loPI    C213834  10.538  15.622   5.563 -0.1296 -0.0540 -0.1855
  886loPI    C313835  10.391  15.980   5.463 -0.0877  0.0135 -0.0091
  886loPI   PO413836  10.246  15.721   6.006 -0.0980 -0.0425  0.0267
  886loPI   GL113837  10.162  15.335   6.211 -0.3364 -0.0127 -0.1295
  886loPI   GL213838  10.389  15.081   6.287  0.3471  0.1481  0.2003
  886loPI   C1A13839  10.235  15.466   6.625 -0.0842  0.0242  0.2856
  886loPI   C2A13840  10.256  15.424   7.045  0.2529 -0.2349  0.2035
  886loPI   C3A13841  10.222  15.435   7.458 -0.2969 -0.0443  0.1995
  886loPI   C4A13842  10.253  15.378   7.804 -0.2383 -0.1055  0.2593
  886loPI   C5A13843  10.256  15.267   8.258 -0.0962  0.3000  0.1061
  886loPI   C6A13844   9.981  15.211   8.539 -0.3844 -0.2104 -0.1625
  886loPI   C1B13845  10.345  14.907   6.783  0.0526  0.1885 -0.1962
  886loPI   C2B13846  10.380  14.940   7.188 -0.3974 -0.1247  0.0616
  886loPI   C3B13847  10.424  14.961   7.589  0.0267 -0.2364 -0.2833
  886loPI   C4B13848  10.373  14.882   8.006 -0.0657  0.3095  0.1041
  887loPI    C113849   7.738   4.907   5.952  0.1084 -0.2576  0.1644
  887loPI    C213850   7.829   4.817   5.573  0.0329  0.1499  0.0435
  887loPI    C313851   7.447   4.868   5.680  0.0529  0.0211  0.1804
  887loPI   PO413852   7.932   5.031   6.046  0.0862 -0.2514  0.1921
  887loPI   GL113853   8.003   5.074   6.420  0.1174  0.1906  0.1223
  887loPI   GL213854   8.072   4.809   6.510 -0.1354  0.1837  0.1431
  887loPI   C1A13855   8.023   5.326   6.814 -0.2695  0.1984 -0.2029
  887loPI   C2A13856   7.987   5.292   7.299  0.2161 -0.0097 -0.2304
  887loPI   C3A13857   7.932   5.332   7.811 -0.2504  0.0908  0.0663
  887loPI   C4A13858   7.852   5.504   8.259  0.2053 -0.0874 -0.1459
  887loPI   C5A13859   7.629   5.599   8.674 -0.2081  0.1586  0.2562
  887loPI   C6A13860   7.924   5.618   8.956  0.2541  0.0193 -0.0892
  887loPI   C1B13861   8.097   4.844   6.940  0.2949 -0.1293 -0.1698
  887loPI   C2B13862   8.175   4.794   7.269  0.0871 -0.1545 -0.1771
  887loPI   C3B13863   8.149   4.846   7.770 -0.1859 -0.0121 -0.0167
  887loPI   C4B13864   8.094   5.012   8.117  0.3860 -0.0647  0.1232
  888loPI    C113865  17.184   1.494   5.882 -0.0741 -0.1231  0.1472
  888loPI    C213866  17.378   1.181   5.725 -0.0165  0.0449 -0.1216
  888loPI    C313867  17.478   1.554   5.618 -0.2753  0.1459 -0.0211
  888loPI   PO413868  17.193   1.472   6.149  0.0864 -0.3450 -0.0180
  888loPI   GL113869  17.399   1.456   6.545  0.2338  0.1828  0.2500
  888loPI   GL213870  17.610   1.625   6.633  0.2369  0.0922  0.2043
  888loPI   C1A13871  17.194   1.270   6.936 -0.1221  0.3292  0.1673
  888loPI   C2A13872  17.175   1.218   7.381 -0.1875  0.1739 -0.0160
  888loPI   C3A13873  17.258   1.267   7.805 -0.0786  0.0541  0.1277
  888loPI   C4A13874  17.195   1.070   8.279 -0.1007 -0.1517  0.2086
  888loPI   C5A13875  17.410   1.085   8.654 -0.1575  0.2121  0.1391
  888loPI   C6A13876  17.309   1.320   8.933  0.2802  0.0392 -0.1447
  888loPI   C1B13877  17.544   1.561   7.017 -0.0534  0.1670  0.0864
  888loPI   C2B13878  17.544   1.602   7.425 -0.0291 -0.0267  0.3725
  888loPI   C3B13879  17.592   1.652   7.792 -0.4179  0.3479 -0.2181
  888loPI   C4B13880  17.529   1.488   8.207 -0.0702  0.1064  0.1591
  889loPI    C113881   6.260   8.759   5.723 -0.0026 -0.1323  0.0834
  889loPI    C213882   5.961   8.651   5.481 -0.0555  0.0532  0.0647
  889loPI    C313883   6.321   8.732   5.328  0.0359 -0.2740  0.0984
  889loPI   PO413884   6.227   8.608   5.906 -0.1440 -0.0105 -0.3182
  889loPI   GL113885   6.283   8.620   6.288  0.1442  0.0509  0.0448
  889loPI   GL213886   5.968   8.723   6.388 -0.1974 -0.0337  0.0746
  889loPI   C1A13887   6.480   8.393   6.665  0.2180 -0.0317  0.2006
  889loPI   C2A13888   6.515   8.370   7.147  0.1149 -0.2535  0.1286
  889loPI   C3A13889   6.610   8.423   7.489 -0.1613 -0.0637  0.2691
  889loPI   C4A13890   6.610   8.342   7.905  0.0424 -0.0963  0.0672
  889loPI   C5A13891   6.606   8.390   8.365 -0.0490  0.1729  0.1495
  889loPI   C6A13892   6.795   8.669   8.633 -0.0368  0.0623  0.0341
  889loPI   C1B13893   6.041   8.638   6.776 -0.2052 -0.1852  0.1314
  889loPI   C2B13894   6.074   8.537   7.250 -0.0903  0.0505 -0.1829
  889loPI   C3B13895   6.124   8.614   7.662  0.0850  0.1863 -0.0940
  889loPI   C4B13896   6.125   8.497   8.151 -0.1703  0.0334  0.1060
  890loPI    C113897  10.572  14.844   5.865  0.0847 -0.0528 -0.0342
  890loPI    C213898  10.755  14.715   5.534  0.0602 -0.0896 -0.0335
  890loPI    C313899  10.363  14.790   5.529  0.0361 -0.2102  0.0207
  890loPI   PO413900  10.793  14.852   6.012  0.2140 -0.4257  0.0250
  890loPI   GL113901  10.851  14.995   6.453  0.4145 -0.1579 -0.3300
  890loPI   GL213902  10.749  14.746   6.536 -0.1681 -0.0684 -0.3535
  890loPI   C1A13903  10.712  15.301   6.705 -0.0676 -0.1280 -0.0233
  890loPI   C2A13904  10.728  15.277   7.137  0.0430 -0.1228 -0.2076
  890loPI   C3A13905  10.739  15.359   7.638  0.2157  0.0001 -0.0295
  890loPI   C4A13906  10.742  15.229   8.103  0.1147 -0.0490  0.1425
  890loPI   C5A13907  10.711  15.168   8.588 -0.2313 -0.1674 -0.1596
  890loPI   C6A13908  10.956  15.449   8.969 -0.0936 -0.0424 -0.1669
  890loPI   C1B13909  10.825  14.822   6.996  0.2349  0.1049 -0.0668
  890loPI   C2B13910  10.874  14.808   7.359  0.2827 -0.3440 -0.1712
  890loPI   C3B13911  10.945  14.779   7.826  0.1152  0.0105 -0.0716
  890loPI   C4B13912  10.897  14.664   8.270 -0.0249  0.1700  0.1747
  891loPI    C113913   0.183   2.119   6.078 -0.1556  0.2852 -0.1091
  891loPI    C213914  -0.106   1.967   5.846 -0.1946 -0.0081  0.1261
  891loPI    C313915   0.272   1.976   5.715 -0.2430 -0.0160 -0.0153
  891loPI   PO413916   0.043   2.338   6.210  0.2287 -0.0194  0.2581
  891loPI   GL113917  -0.126   2.198   6.500 -0.1367 -0.0256  0.1216
  891loPI   GL213918  -0.192   1.932   6.396  0.0149 -0.1582  0.1553
  891loPI   C1A13919  -0.071   2.105   6.891 -0.0590  0.2355 -0.0830
  891loPI   C2A13920  -0.100   2.091   7.343 -0.3171 -0.3951  0.1560
  891loPI   C3A13921  -0.042   2.135   7.704  0.3306 -0.0585 -0.0889
  891loPI   C4A13922   0.010   2.073   8.062  0.0180  0.1101  0.1339
  891loPI   C5A13923   0.263   2.228   8.330  0.1585 -0.1425 -0.0251
  891loPI   C6A13924   0.411   2.157   8.733 -0.0799 -0.1116  0.0319
  891loPI   C1B13925  -0.424   1.735   6.767 -0.1599 -0.0317 -0.2434
  891loPI   C2B13926  -0.443   1.679   7.166  0.1333 -0.1496  0.0044
  891loPI   C3B13927  -0.396   1.809   7.550  0.0001  0.0659 -0.1442
  891loPI   C4B13928  -0.374   1.744   7.968  0.1785 -0.5484 -0.0686
  892loPI    C113929  14.395  17.080   5.493  0.2067  0.1253 -0.1174
  892loPI    C213930  14.050  16.915   5.611  0.3406 -0.0345  0.0554
  892loPI    C313931  14.188  16.847   5.242  0.2342 -0.0461  0.0175
  892loPI   PO413932  14.383  17.314   5.674 -0.0721 -0.4741 -0.1202
  892loPI   GL113933  14.411  17.400   6.108  0.0868 -0.0184  0.0902
  892loPI   GL213934  14.575  17.562   6.256 -0.0222 -0.0314  0.2439
  892loPI   C1A13935  14.426  17.152   6.535  0.1463 -0.1050 -0.1166
  892loPI   C2A13936  14.444  17.146   6.979  0.0636  0.0401  0.3263
  892loPI   C3A13937  14.308  17.180   7.452  0.2407  0.5826  0.4100
  892loPI   C4A13938  14.361  17.139   7.852 -0.2106 -0.0322 -0.3678
  892loPI   C5A13939  14.343  17.200   8.287  0.0451 -0.0513  0.0797
  892loPI   C6A13940  14.633  17.153   8.659 -0.0567  0.1582  0.2706
  892loPI   C1B13941  14.294  17.620   6.642 -0.2317 -0.1371  0.1896
  892loPI   C2B13942  14.277  17.584   7.116 -0.1038  0.1191  0.2893
  892loPI   C3B13943  14.210  17.635   7.580  0.1987  0.4285 -0.0828
  892loPI   C4B13944  14.247  17.644   8.024  0.1309  0.2514  0.1189
  893loPI    C113945   1.500  15.890   5.790  0.0160  0.0398 -0.0398
  893loPI    C213946   1.366  15.545   5.940  0.2077 -0.1126 -0.2133
  893loPI    C313947   1.200  15.890   6.054 -0.1807 -0.2802 -0.2565
  893loPI   PO413948   1.744  15.921   5.867 -0.0429 -0.0108  0.1860
  893loPI   GL113949   1.991  16.211   6.081  0.0228 -0.3884 -0.5347
  893loPI   GL213950   1.999  15.913   6.342  0.0466  0.0954 -0.1228
  893loPI   C1A13951   2.260  16.369   6.425  0.0074 -0.1862 -0.1552
  893loPI   C2A13952   2.423  16.320   6.807  0.3465 -0.1045 -0.1130
  893loPI   C3A13953   2.401  16.242   7.193 -0.0322  0.6000  0.0981
  893loPI   C4A13954   2.411  16.210   7.688  0.0252  0.0985 -0.2205
  893loPI   C5A13955   2.278  16.370   8.127 -0.1155  0.0477 -0.0053
  893loPI   C6A13956   2.319  16.731   8.297  0.1198 -0.1377  0.1454
  893loPI   C1B13957   1.945  15.963   6.793  0.0241 -0.0212  0.0795
  893loPI   C2B13958   2.024  15.899   7.257  0.2467  0.1622 -0.0735
  893loPI   C3B13959   2.043  15.846   7.693 -0.0761  0.3690  0.0425
  893loPI   C4B13960   2.032  15.838   8.039 -0.0434 -0.1148 -0.3639
  894loPI    C113961  15.759   5.887   5.876  0.0215 -0.0873  0.0832
  894loPI    C213962  15.752   5.768   5.494 -0.0683 -0.1262  0.0967
  894loPI    C313963  15.788   6.157   5.582  0.1390 -0.1341  0.0511
  894loPI   PO413964  15.540   5.768   6.015  0.2127 -0.2000 -0.1259
  894loPI   GL113965  15.420   5.727   6.367 -0.2425 -0.2777 -0.2466
  894loPI   GL213966  15.260   5.405   6.503 -0.1139 -0.2025 -0.0841
  894loPI   C1A13967  15.291   5.810   6.838 -0.1784 -0.0481 -0.0289
  894loPI   C2A13968  15.331   5.845   7.317 -0.2527  0.1127  0.1544
  894loPI   C3A13969  15.218   5.822   7.765  0.1987 -0.0475 -0.0755
  894loPI   C4A13970  15.265   5.657   8.213 -0.3173 -0.1276 -0.2586
  894loPI   C5A13971  15.568   5.389   8.488 -0.1034 -0.1494 -0.2053
  894loPI   C6A13972  15.721   5.142   8.937  0.0471 -0.1561 -0.2516
  894loPI   C1B13973  15.426   5.332   6.876  0.2908  0.0751  0.2828
  894loPI   C2B13974  15.456   5.344   7.279  0.1462 -0.1359 -0.1695
  894loPI   C3B13975  15.429   5.333   7.704  0.1481 -0.0771  0.0772
  894loPI   C4B13976  15.297   5.161   8.140  0.0208  0.1948  0.1393
  895loPI    C113977  15.691  12.765   5.893 -0.0350  0.1919  0.1774
  895loPI    C213978  15.788  13.132   6.018  0.2052  0.1732  0.0506
  895loPI    C313979  15.800  13.044   5.628  0.0050  0.0721  0.0664
  895loPI   PO413980  15.458  12.763   6.027  0.2903  0.0166 -0.0145
  895loPI   GL113981  15.421  13.018   6.385  0.2591  0.0408  0.2355
  895loPI   GL213982  15.515  13.308   6.440 -0.1280  0.4854 -0.1904
  895loPI   C1A13983  15.666  12.753   6.747  0.2559  0.3795 -0.1404
  895loPI   C2A13984  15.771  12.749   7.100 -0.0268  0.2887  0.2993
  895loPI   C3A13985  15.726  12.722   7.496  0.0623  0.0937  0.2350
  895loPI   C4A13986  15.772  12.712   7.952  0.2142  0.2428  0.3117
  895loPI   C5A13987  15.551  12.584   8.404  0.1358 -0.1742 -0.2135
  895loPI   C6A13988  15.082  12.587   8.507 -0.2120 -0.1078  0.0696
  895loPI   C1B13989  15.574  13.207   6.861 -0.0544  0.1974  0.1721
  895loPI   C2B13990  15.598  13.229   7.228 -0.0512 -0.1287 -0.1330
  895loPI   C3B13991  15.544  13.198   7.754  0.1389 -0.0037 -0.3862
  895loPI   C4B13992  15.548  13.066   8.183 -0.1379  0.0303  0.0557
  896loPI    C113993  16.677   2.756   5.718  0.0321 -0.0895  0.0256
  896loPI    C213994  16.303   2.777   5.578 -0.0142 -0.2166  0.1277
  896loPI    C313995  16.589   3.010   5.423 -0.1034 -0.2258 -0.0527
  896loPI   PO413996  16.678   2.783   6.008  0.5479  0.3096 -0.2753
  896loPI   GL113997  16.771   2.626   6.351 -0.1576 -0.0072  0.2377
  896loPI   GL213998  16.982   2.531   6.401 -0.1998 -0.1038  0.3783
  896loPI   C1A13999  16.688   2.727   6.784  0.2607 -0.0219 -0.1728
  896loPI   C2A14000  16.750   2.691   7.246  0.2028 -0.2348  0.1933
  896loPI   C3A14001  16.791   2.800   7.655 -0.0300  0.1866  0.0566
  896loPI   C4A14002  16.818   2.746   8.152 -0.2729 -0.0577 -0.2414
  896loPI   C5A14003  16.595   2.778   8.535  0.2431 -0.1264  0.2613
  896loPI   C6A14004  16.278   3.126   8.511  0.2434  0.2921  0.3208
  896loPI   C1B14005  17.139   2.537   6.836  0.2868  0.0646  0.1613
  896loPI   C2B14006  17.208   2.580   7.298  0.0110 -0.2794  0.2487
  896loPI   C3B14007  17.256   2.583   7.748  0.1764 -0.0627 -0.2891
  896loPI   C4B14008  17.250   2.494   8.191  0.1562  0.0854  0.1141
  897loPI    C114009  15.590  16.578   5.910  0.1019  0.2680 -0.0121
  897loPI    C214010  15.972  16.482   5.842  0.0685  0.1594 -0.0481
  897loPI    C314011  15.714  16.501   5.538 -0.0320 -0.1094  0.0182
  897loPI   PO414012  15.522  16.418   6.123 -0.0651  0.0960 -0.1483
  897loPI   GL114013  15.563  16.365   6.471  0.1785  0.1287 -0.1255
  897loPI   GL214014  15.474  16.739   6.516 -0.1572  0.1656  0.2816
  897loPI   C1A14015  15.600  16.370   6.931 -0.3245 -0.2229 -0.3015
  897loPI   C2A14016  15.563  16.449   7.324  0.0961  0.1415 -0.0644
  897loPI   C3A14017  15.563  16.398   7.729 -0.0430  0.2594  0.1314
  897loPI   C4A14018  15.551  16.278   8.170  0.0908  0.0380 -0.0858
  897loPI   C5A14019  15.831  16.316   8.547  0.1811 -0.0742 -0.0546
  897loPI   C6A14020  16.086  16.200   8.942 -0.5454 -0.0844  0.0120
  897loPI   C1B14021  15.435  16.868   6.945 -0.0897 -0.1267  0.0458
  897loPI   C2B14022  15.509  16.920   7.360 -0.0859  0.1688  0.1436
  897loPI   C3B14023  15.400  16.864   7.827 -0.0892  0.3734 -0.0399
  897loPI   C4B14024  15.447  16.720   8.106  0.1150 -0.1674  0.0548
  898loPI    C114025   9.838  13.275   5.871  0.0210  0.2799  0.1858
  898loPI    C214026  10.220  13.238   5.984  0.0497  0.0123  0.0123
  898loPI    C314027  10.131  13.393   5.626  0.0125 -0.2443 -0.0911
  898loPI   PO414028   9.750  13.036   5.979 -0.2605  0.0822  0.3605
  898loPI   GL114029   9.584  12.833   6.329  0.0089  0.0022 -0.0199
  898loPI   GL214030   9.836  12.664   6.293 -0.0433 -0.1515 -0.0102
  898loPI   C1A14031   9.505  12.714   6.764  0.0808  0.2676 -0.1121
  898loPI   C2A14032   9.534  12.722   7.280 -0.0473 -0.1176 -0.1948
  898loPI   C3A14033   9.563  12.834   7.711 -0.0640 -0.0155  0.2279
  898loPI   C4A14034   9.544  12.664   8.127 -0.1004 -0.2216 -0.0026
  898loPI   C5A14035   9.718  12.446   8.489  0.1402 -0.1187 -0.2496
  898loPI   C6A14036  10.134  12.599   8.439  0.0482  0.0993  0.1543
  898loPI   C1B14037  10.041  12.670   6.653  0.2830 -0.3353 -0.2240
  898loPI   C2B14038  10.095  12.682   7.059 -0.0303 -0.0284 -0.0078
  898loPI   C3B14039  10.067  12.736   7.518  0.0094 -0.2796 -0.2723
  898loPI   C4B14040  10.001  12.677   7.964 -0.0107 -0.1368  0.0021
  899loPI    C114041  17.104   8.297   5.521  0.0179 -0.0687  0.0009
  899loPI    C214042  17.441   8.178   5.342  0.0098 -0.0086 -0.0543
  899loPI    C314043  17.098   8.186   5.136 -0.0064  0.0253 -0.0259
  899loPI   PO414044  17.060   8.209   5.695  0.1365  0.2605  0.2599
  899loPI   GL114045  17.119   8.236   6.073 -0.2831 -0.0188  0.0778
  899loPI   GL214046  17.376   8.098   6.195 -0.0445  0.2469  0.0321
  899loPI   C1A14047  16.953   8.266   6.525 -0.0122  0.2055 -0.1004
  899loPI   C2A14048  16.819   8.250   6.913  0.1213 -0.1130  0.1128
  899loPI   C3A14049  16.828   8.206   7.398 -0.1481 -0.1723  0.1255
  899loPI   C4A14050  16.821   8.216   7.788 -0.0513 -0.0087  0.2095
  899loPI   C5A14051  16.783   8.184   8.186  0.0645 -0.1284  0.1417
  899loPI   C6A14052  17.187   8.105   8.384 -0.1822 -0.0003  0.2304
  899loPI   C1B14053  17.399   8.098   6.525  0.0111 -0.3201  0.0143
  899loPI   C2B14054  17.299   8.108   6.981 -0.2272 -0.2643 -0.0274
  899loPI   C3B14055  17.322   8.071   7.434 -0.0956  0.0505 -0.2612
  899loPI   C4B14056  17.312   8.084   7.919 -0.1349  0.3294  0.1614
  900loPI    C114057   1.826   6.663   5.715 -0.0990 -0.2778 -0.0566
  900loPI    C214058   1.935   6.998   5.526 -0.0886 -0.1182  0.2257
  900loPI    C314059   1.665   6.754   5.360 -0.0761  0.0148  0.0050
  900loPI   PO414060   1.777   6.772   5.964 -0.3023 -0.0470 -0.1392
  900loPI   GL114061   1.720   6.755   6.423  0.0716 -0.2259  0.3508
  900loPI   GL214062   1.465   6.483   6.546 -0.0303 -0.2489 -0.0416
  900loPI   C1A14063   1.749   6.909   6.871 -0.0673 -0.3229 -0.0888
  900loPI   C2A14064   1.911   7.005   7.279  0.3503 -0.1738 -0.0487
  900loPI   C3A14065   1.923   6.974   7.607 -0.0951  0.0471 -0.6135
  900loPI   C4A14066   1.915   7.000   8.045 -0.0297  0.1642  0.0360
  900loPI   C5A14067   1.923   6.825   8.374 -0.1975  0.0967 -0.2249
  900loPI   C6A14068   1.729   6.412   8.652  0.1314  0.1899 -0.0938
  900loPI   C1B14069   1.510   6.401   6.983  0.1350  0.2321 -0.0658
  900loPI   C2B14070   1.443   6.539   7.474  0.0953 -0.2201 -0.0223
  900loPI   C3B14071   1.596   6.598   7.881  0.0195 -0.2055 -0.0561
  900loPI   C4B14072   1.744   6.220   8.153 -0.1177  0.2354 -0.0623
  901loPI    C114073  14.669   2.506   5.624 -0.1627  0.0863 -0.1439
  901loPI    C214074  14.497   2.867   5.643  0.0463  0.1794  0.0238
  901loPI    C314075  14.666   2.743   5.302 -0.0503  0.2277 -0.0421
  901loPI   PO414076  14.829   2.430   5.874 -0.1030 -0.1472 -0.0130
  901loPI   GL114077  14.829   2.345   6.273 -0.1300 -0.1284  0.0907
  901loPI   GL214078  14.803   2.564   6.374 -0.1048 -0.1548 -0.3692
  901loPI   C1A14079  14.981   2.238   6.744  0.0521 -0.1191  0.1046
  901loPI   C2A14080  14.948   2.227   7.108  0.0175 -0.0832  0.0004
  901loPI   C3A14081  14.976   2.225   7.601 -0.1200 -0.3539 -0.0817
  901loPI   C4A14082  15.182   2.340   7.971 -0.1338  0.0934 -0.0534
  901loPI   C5A14083  15.017   2.400   8.444 -0.1353 -0.1936 -0.3610
  901loPI   C6A14084  14.651   2.632   8.624  0.3153  0.3189 -0.0255
  901loPI   C1B14085  14.747   2.674   6.889  0.0294 -0.0433  0.0984
  901loPI   C2B14086  14.774   2.745   7.264 -0.1531  0.2723 -0.2020
  901loPI   C3B14087  14.932   2.691   7.639  0.0105 -0.0577 -0.1043
  901loPI   C4B14088  14.774   2.686   8.016 -0.2648 -0.1448 -0.0056
  902loPI    C114089  15.059   8.755   5.789 -0.0939 -0.1720 -0.0249
  902loPI    C214090  14.728   8.978   5.768  0.1262  0.1620 -0.0240
  902loPI    C314091  14.789   8.686   5.502 -0.1583  0.1097 -0.0348
  902loPI   PO414092  15.178   8.832   5.985  0.0812 -0.0613 -0.1094
  902loPI   GL114093  15.234   8.794   6.422  0.0846 -0.2073  0.0672
  902loPI   GL214094  15.487   8.507   6.514 -0.4288  0.2091  0.1190
  902loPI   C1A14095  15.206   9.046   6.854 -0.1134  0.0749  0.0640
  902loPI   C2A14096  15.202   9.208   7.270  0.2472 -0.1061  0.1893
  902loPI   C3A14097  15.143   9.132   7.687  0.1663 -0.3273 -0.1197
  902loPI   C4A14098  15.098   9.028   8.113 -0.0253 -0.1335 -0.2466
  902loPI   C5A14099  15.113   8.922   8.486 -0.0941  0.1751  0.2390
  902loPI   C6A14100  15.315   9.015   8.818  0.2414 -0.0277 -0.0768
  902loPI   C1B14101  15.370   8.543   6.970  0.1314  0.2049  0.2816
  902loPI   C2B14102  15.286   8.669   7.445  0.1019  0.2170  0.1748
  902loPI   C3B14103  15.211   8.622   7.845  0.0413 -0.2045 -0.1039
  902loPI   C4B14104  15.306   8.520   8.284  0.0643 -0.0934  0.3559
  903loPI    C114105  14.883   6.158   5.594  0.0643 -0.2005  0.1376
  903loPI    C214106  14.832   5.762   5.577  0.0177 -0.1861 -0.0970
  903loPI    C314107  14.965   5.960   5.256  0.1248 -0.0225  0.0466
  903loPI   PO414108  14.720   6.227   5.824  0.0845 -0.0074  0.2737
  903loPI   GL114109  14.499   6.624   5.988 -0.1516 -0.0115  0.3228
  903loPI   GL214110  14.229   6.647   6.300  0.0830 -0.1874  0.2227
  903loPI   C1A14111  14.680   6.577   6.442 -0.1589  0.2862  0.0012
  903loPI   C2A14112  14.684   6.307   6.797  0.2969 -0.2809  0.3061
  903loPI   C3A14113  14.637   6.458   7.172  0.0954 -0.2112 -0.0083
  903loPI   C4A14114  14.647   6.439   7.623  0.1744  0.1327 -0.1072
  903loPI   C5A14115  14.610   6.302   8.022  0.1623  0.0292 -0.1338
  903loPI   C6A14116  14.644   6.469   8.439  0.3401 -0.2197 -0.0585
  903loPI   C1B14117  14.203   6.516   6.695 -0.1560 -0.3494  0.2202
  903loPI   C2B14118  14.060   6.447   7.196  0.1072 -0.1521  0.0342
  903loPI   C3B14119  14.192   6.578   7.671  0.0377 -0.0412  0.1460
  903loPI   C4B14120  14.130   6.508   8.091 -0.1633 -0.0631 -0.2554
  904loPI    C114121   6.536   9.419   5.558 -0.0024  0.0416 -0.1037
  904loPI    C214122   6.198   9.211   5.504 -0.0689  0.1505 -0.1091
  904loPI    C314123   6.476   9.220   5.217 -0.0099 -0.0333 -0.0589
  904loPI   PO414124   6.544   9.412   5.846  0.3419 -0.3033  0.3033
  904loPI   GL114125   6.639   9.380   6.270 -0.2186  0.2629 -0.0260
  904loPI   GL214126   6.400   9.537   6.336  0.0885 -0.0235  0.0241
  904loPI   C1A14127   6.780   9.278   6.744  0.2539  0.0729  0.0274
  904loPI   C2A14128   6.778   9.219   7.189  0.0907  0.3340  0.1110
  904loPI   C3A14129   6.850   9.323   7.521  0.1137 -0.1406  0.1942
  904loPI   C4A14130   6.817   9.274   7.927  0.0378 -0.0791 -0.1041
  904loPI   C5A14131   6.799   9.289   8.332  0.0380  0.0503  0.1097
  904loPI   C6A14132   6.591   9.427   8.709  0.0788  0.0577 -0.2012
  904loPI   C1B14133   6.329   9.471   6.734 -0.0967  0.1773 -0.0135
  904loPI   C2B14134   6.304   9.499   7.156 -0.3527 -0.0782  0.0333
  904loPI   C3B14135   6.380   9.413   7.546 -0.0076 -0.1180 -0.6959
  904loPI   C4B14136   6.351   9.481   8.005  0.2879 -0.0612  0.1788
  905loPI    C114137   1.517  13.424   5.687 -0.0338  0.0672 -0.0379
  905loPI    C214138   1.623  13.801   5.604  0.0036  0.0966  0.1386
  905loPI    C314139   1.597  13.530   5.310  0.0456  0.2192  0.0208
  905loPI   PO414140   1.487  13.438   5.898 -0.1917  0.2373 -0.1474
  905loPI   GL114141   1.701  13.381   6.245 -0.2779 -0.1711 -0.1764
  905loPI   GL214142   1.698  13.102   6.258 -0.2102 -0.1414  0.0013
  905loPI   C1A14143   2.107  13.332   6.520  0.1640 -0.0921 -0.2103
  905loPI   C2A14144   2.085  13.220   6.931 -0.0298 -0.1073  0.0879
  905loPI   C3A14145   2.139  13.313   7.350 -0.1369  0.1321 -0.0752
  905loPI   C4A14146   2.053  13.453   7.825 -0.0174 -0.2626 -0.1204
  905loPI   C5A14147   2.469  13.748   8.066 -0.0334 -0.0956 -0.2900
  905loPI   C6A14148   2.603  14.117   8.226 -0.0683  0.2232  0.2072
  905loPI   C1B14149   1.667  13.028   6.668  0.2218 -0.2263 -0.1992
  905loPI   C2B14150   1.792  12.934   7.227 -0.2254  0.1094 -0.0172
  905loPI   C3B14151   1.807  13.070   7.635  0.0501 -0.0665 -0.0695
  905loPI   C4B14152   1.664  13.048   8.064 -0.0947  0.0216 -0.1366
  906loPI    C114153  12.498  13.511   5.689 -0.2932 -0.2211  0.0898
  906loPI    C214154  12.640  13.209   5.468  0.0694 -0.0603  0.0949
  906loPI    C314155  12.433  13.504   5.295  0.4055  0.0973 -0.0472
  906loPI   PO414156  12.521  13.376   5.952  0.0134  0.2483 -0.1419
  906loPI   GL114157  12.284  13.328   6.305 -0.2451 -0.1953 -0.3159
  906loPI   GL214158  12.369  12.970   6.286  0.0248 -0.2755  0.0834
  906loPI   C1A14159  12.123  13.405   6.684  0.2615 -0.1626 -0.0203
  906loPI   C2A14160  12.124  13.554   7.094 -0.0574  0.0278 -0.1039
  906loPI   C3A14161  12.163  13.498   7.529 -0.1595  0.0622  0.1316
  906loPI   C4A14162  12.178  13.574   7.888  0.0685  0.3732 -0.2018
  906loPI   C5A14163  12.258  13.552   8.253  0.1514 -0.0816 -0.2804
  906loPI   C6A14164  12.222  13.676   8.678  0.0963 -0.0006 -0.4293
  906loPI   C1B14165  12.165  12.917   6.601  0.0851  0.0587  0.1320
  906loPI   C2B14166  12.253  12.905   7.015 -0.0924  0.0968  0.1748
  906loPI   C3B14167  12.287  13.048   7.427 -0.1614 -0.3130  0.1568
  906loPI   C4B14168  12.299  13.117   7.883 -0.0919  0.0813  0.0579
  907loPI    C114169  10.042   0.067   5.849  0.1951  0.1680 -0.0873
  907loPI    C214170   9.684   0.002   5.681  0.1521  0.2358 -0.0228
  907loPI    C314171   9.822   0.376   5.722  0.0904  0.2319  0.2389
  907loPI   PO414172  10.077  -0.018   6.065  0.1742  0.3538 -0.2661
  907loPI   GL114173   9.966   0.120   6.547 -0.2910 -0.0898  0.0238
  907loPI   GL214174  10.378   0.063   6.446 -0.2617  0.2735  0.2502
  907loPI   C1A14175   9.986   0.222   7.037  0.2432 -0.0630 -0.0884
  907loPI   C2A14176  10.004   0.212   7.427  0.0617 -0.3321  0.1081
  907loPI   C3A14177   9.993   0.290   7.877 -0.3742 -0.1186  0.0865
  907loPI   C4A14178  10.024   0.190   8.316 -0.2823  0.0572  0.0828
  907loPI   C5A14179   9.843  -0.091   8.564  0.1628 -0.0752 -0.2296
  907loPI   C6A14180   9.457  -0.252   8.705 -0.0892 -0.0842  0.0052
  907loPI   C1B14181  10.497   0.135   6.800  0.0470  0.0651  0.1263
  907loPI   C2B14182  10.512   0.130   7.295 -0.0274 -0.0985 -0.1526
  907loPI   C3B14183  10.485   0.210   7.677  0.1207  0.1950  0.1562
  907loPI   C4B14184  10.535   0.136   8.072 -0.1386  0.3032 -0.1260
  908loPI    C114185  10.760   5.164   5.634 -0.2063  0.1294 -0.0412
  908loPI    C214186  10.912   4.798   5.685 -0.1456  0.1588 -0.0096
  908loPI    C314187  11.083   5.051   5.427 -0.0716  0.2321  0.1103
  908loPI   PO414188  10.715   5.297   5.877  0.1018  0.0532 -0.2521
  908loPI   GL114189  10.561   5.245   6.229  0.3243  0.0334  0.1420
  908loPI   GL214190  10.207   5.192   6.329  0.0767 -0.1354 -0.2572
  908loPI   C1A14191  10.822   5.110   6.531 -0.0039 -0.1073  0.1881
  908loPI   C2A14192  10.747   5.024   7.043  0.0036 -0.1221 -0.0918
  908loPI   C3A14193  10.797   4.997   7.502 -0.0145 -0.3062 -0.0399
  908loPI   C4A14194  10.882   5.153   7.879 -0.1370  0.0307  0.1035
  908loPI   C5A14195  10.930   5.211   8.350  0.1375 -0.0125  0.0491
  908loPI   C6A14196  11.197   5.555   8.416 -0.1219 -0.2840 -0.4029
  908loPI   C1B14197  10.232   5.156   6.699 -0.0025  0.0858  0.0447
  908loPI   C2B14198  10.237   5.148   7.156  0.3145 -0.3711 -0.2317
  908loPI   C3B14199  10.326   5.215   7.513  0.0584  0.0235  0.1818
  908loPI   C4B14200  10.373   5.266   7.940  0.0325  0.1128 -0.0940
  909loPI    C114201   8.076  13.397   5.769  0.0327  0.1025  0.0018
  909loPI    C214202   8.040  13.251   5.398 -0.3436  0.1320  0.0228
  909loPI    C314203   7.801  13.547   5.521 -0.0451  0.3027  0.2059
  909loPI   PO414204   8.126  13.227   5.944 -0.3352 -0.2864 -0.2427
  909loPI   GL114205   7.897  13.214   6.294  0.1249 -0.1661 -0.1632
  909loPI   GL214206   7.847  13.558   6.219 -0.3805 -0.2349  0.1498
  909loPI   C1A14207   8.045  13.096   6.740  0.0416  0.1197  0.2511
  909loPI   C2A14208   8.072  13.124   7.229 -0.2613  0.0703 -0.0039
  909loPI   C3A14209   8.075  13.139   7.678  0.0520  0.1022 -0.0254
  909loPI   C4A14210   8.097  13.213   8.142 -0.2046  0.3623  0.2235
  909loPI   C5A14211   8.313  13.181   8.582  0.0506 -0.0540  0.0409
  909loPI   C6A14212   8.485  13.176   8.920 -0.1142 -0.1117  0.0058
  909loPI   C1B14213   7.816  13.642   6.630  0.1032  0.2711  0.1393
  909loPI   C2B14214   7.933  13.679   7.036  0.0981 -0.0382  0.2124
  909loPI   C3B14215   7.982  13.663   7.479  0.0079  0.0321  0.0600
  909loPI   C4B14216   7.957  13.700   7.982  0.1436  0.4450 -0.0631
  910loPI    C114217  11.185   8.862   5.777  0.1601 -0.1826  0.0463
  910loPI    C214218  11.441   9.038   5.525  0.0740 -0.1626 -0.0279
  910loPI    C314219  11.087   8.909   5.392  0.0214 -0.1373  0.0865
  910loPI   PO414220  11.293   8.980   6.014  0.1372  0.2755 -0.5316
  910loPI   GL114221  11.324   8.647   6.275  0.3256 -0.2054  0.1592
  910loPI   GL214222  11.555   8.555   6.377 -0.0696 -0.0805 -0.1068
  910loPI   C1A14223  11.114   8.682   6.687  0.0174  0.2017  0.1650
  910loPI   C2A14224  11.157   8.620   7.123  0.0093 -0.1838 -0.0748
  910loPI   C3A14225  11.165   8.620   7.482 -0.0685 -0.1905  0.0682
  910loPI   C4A14226  11.161   8.739   7.936 -0.0270 -0.1463 -0.0217
  910loPI   C5A14227  11.195   8.867   8.227  0.1244  0.0615  0.2205
  910loPI   C6A14228  11.190   8.945   8.567  0.2509  0.1349 -0.3526
  910loPI   C1B14229  11.753   8.487   6.843  0.0799 -0.4011  0.0439
  910loPI   C2B14230  11.621   8.499   7.330 -0.1455  0.1559  0.1144
  910loPI   C3B14231  11.774   8.498   7.658 -0.0392  0.0732 -0.3716
  910loPI   C4B14232  11.711   8.650   8.034 -0.1458  0.2603 -0.0194
  911loPI    C114233   7.906  16.672   5.690  0.1626  0.1272  0.1021
  911loPI    C214234   8.299  16.670   5.615  0.1354 -0.1812 -0.0451
  911loPI    C314235   8.042  16.787   5.332  0.1245  0.1107  0.0823
  911loPI   PO414236   7.886  16.736   5.986 -0.1730  0.0752  0.1982
  911loPI   GL114237   7.858  16.944   6.412 -0.1365  0.1664  0.0004
  911loPI   GL214238   8.047  17.199   6.295  0.0797 -0.2210 -0.2180
  911loPI   C1A14239   7.873  16.940   6.863 -0.3522  0.0809  0.1675
  911loPI   C2A14240   7.912  16.866   7.298  0.0600  0.0517 -0.2207
  911loPI   C3A14241   7.909  16.871   7.746 -0.1338 -0.1966 -0.0276
  911loPI   C4A14242   7.901  16.859   8.122 -0.2023  0.0277  0.1859
  911loPI   C5A14243   7.883  16.621   8.483  0.0386 -0.1499  0.0398
  911loPI   C6A14244   7.839  16.797   8.950 -0.0479  0.0881 -0.1584
  911loPI   C1B14245   8.222  17.235   6.655  0.2089 -0.1836 -0.1075
  911loPI   C2B14246   8.150  17.249   7.107  0.1371 -0.2035  0.4034
  911loPI   C3B14247   8.174  17.218   7.519 -0.0650 -0.2503  0.1084
  911loPI   C4B14248   8.249  17.232   7.938 -0.0798  0.0986  0.1233
  912loPI    C114249   3.728  15.828   5.401  0.1883 -0.1299 -0.0411
  912loPI    C214250   3.522  15.497   5.312 -0.0402 -0.0172  0.0604
  912loPI    C314251   3.914  15.514   5.238 -0.0097 -0.3413  0.1326
  912loPI   PO414252   3.616  15.891   5.611  0.2125 -0.2867  0.0589
  912loPI   GL114253   3.362  16.045   6.033  0.1569  0.2918 -0.3422
  912loPI   GL214254   3.750  16.058   6.092 -0.0356 -0.0114  0.0904
  912loPI   C1A14255   3.365  16.155   6.453  0.0795 -0.4299 -0.0670
  912loPI   C2A14256   3.389  16.187   6.890  0.2101  0.2905  0.0486
  912loPI   C3A14257   3.342  16.199   7.322 -0.2099  0.4305 -0.1348
  912loPI   C4A14258   3.299  16.108   7.748 -0.1156  0.0128 -0.0458
  912loPI   C5A14259   3.284  16.316   8.013  0.0450 -0.0858 -0.1974
  912loPI   C6A14260   3.383  16.591   8.388  0.0169 -0.2808 -0.0527
  912loPI   C1B14261   3.853  16.029   6.445 -0.1614  0.0965  0.1162
  912loPI   C2B14262   3.926  16.001   6.895 -0.2475 -0.2678 -0.1026
  912loPI   C3B14263   3.885  16.016   7.271 -0.1877 -0.0252 -0.0373
  912loPI   C4B14264   3.912  15.918   7.724 -0.0625  0.1168 -0.0472
  913loPI    C114265   7.165   8.462   5.784 -0.0756  0.0169 -0.1297
  913loPI    C214266   7.264   8.793   5.986  0.0857 -0.0210 -0.1453
  913loPI    C314267   7.172   8.816   5.598 -0.0673  0.0288 -0.1067
  913loPI   PO414268   7.128   8.283   5.974  0.2776  0.0508 -0.0814
  913loPI   GL114269   7.062   7.992   6.363 -0.1214  0.0409 -0.3183
  913loPI   GL214270   7.169   7.740   6.539 -0.1131 -0.1336  0.1098
  913loPI   C1A14271   7.046   8.226   6.741  0.1314  0.1378 -0.4018
  913loPI   C2A14272   7.061   8.298   7.211 -0.1056  0.1767  0.0160
  913loPI   C3A14273   7.159   8.359   7.677  0.0199  0.0754 -0.0566
  913loPI   C4A14274   7.148   8.394   8.166  0.1295  0.0469  0.0656
  913loPI   C5A14275   7.145   8.301   8.587 -0.1847 -0.1272 -0.1003
  913loPI   C6A14276   7.033   8.259   8.968 -0.0792 -0.0680 -0.3810
  913loPI   C1B14277   7.152   7.757   6.985 -0.3363  0.2290  0.0505
  913loPI   C2B14278   7.249   7.818   7.447  0.1683  0.0784  0.1258
  913loPI   C3B14279   7.269   7.850   7.866 -0.0176  0.1912  0.2455
  913loPI   C4B14280   7.289   7.911   8.278 -0.0612  0.5467 -0.3040
  914loPI    C114281   5.798   3.121   5.415 -0.0538  0.1639  0.1014
  914loPI    C214282   5.401   3.159   5.393 -0.0967 -0.2561  0.0711
  914loPI    C314283   5.573   2.807   5.314  0.3018 -0.0223 -0.1330
  914loPI   PO414284   5.834   3.273   5.662  0.0210 -0.1132  0.2604
  914loPI   GL114285   5.835   3.242   6.026 -0.1115  0.2159  0.0314
  914loPI   GL214286   5.803   3.470   6.211  0.2678  0.2011 -0.1347
  914loPI   C1A14287   5.764   3.034   6.433 -0.0891 -0.0472  0.1125
  914loPI   C2A14288   5.839   3.111   6.897 -0.3532 -0.1194  0.2847
  914loPI   C3A14289   5.753   3.111   7.288 -0.2259  0.0705  0.0335
  914loPI   C4A14290   5.643   3.092   7.783  0.0419 -0.1210  0.0814
  914loPI   C5A14291   5.752   3.040   8.167 -0.2128 -0.3680 -0.0054
  914loPI   C6A14292   5.762   2.785   8.598  0.1909 -0.1241  0.0356
  914loPI   C1B14293   5.728   3.615   6.573 -0.1071  0.0548 -0.0601
  914loPI   C2B14294   5.603   3.558   6.998  0.0926  0.0317  0.0395
  914loPI   C3B14295   5.512   3.552   7.458  0.0172  0.1262 -0.0953
  914loPI   C4B14296   5.565   3.579   7.950  0.3426 -0.2841 -0.1419
  915loPI    C114297   6.186   7.114   5.962  0.0531 -0.1750 -0.0944
  915loPI    C214298   6.287   7.310   5.628  0.0157 -0.0588 -0.0378
  915loPI    C314299   6.498   7.364   5.963 -0.0720 -0.0173  0.0113
  915loPI   PO414300   6.182   6.863   6.006  0.2731  0.1072  0.0045
  915loPI   GL114301   6.291   6.652   6.388  0.2320 -0.2010 -0.2407
  915loPI   GL214302   6.035   6.724   6.437 -0.2083  0.2808  0.0312
  915loPI   C1A14303   6.459   6.466   6.741  0.0716  0.2020 -0.2213
  915loPI   C2A14304   6.616   6.546   7.056  0.2531  0.1603  0.1072
  915loPI   C3A14305   6.593   6.566   7.505  0.1790  0.0013 -0.1213
  915loPI   C4A14306   6.653   6.575   7.969 -0.1474 -0.2944 -0.4582
  915loPI   C5A14307   6.569   6.491   8.359  0.1370  0.1216 -0.1059
  915loPI   C6A14308   6.556   6.704   8.774 -0.2223  0.1772 -0.1633
  915loPI   C1B14309   6.039   6.682   6.903  0.0730 -0.0350  0.0414
  915loPI   C2B14310   6.132   6.646   7.241 -0.0147  0.3514  0.1683
  915loPI   C3B14311   6.115   6.736   7.695  0.1493 -0.3914 -0.2151
  915loPI   C4B14312   6.175   6.735   8.080  0.2920 -0.2303 -0.0456
  916loPI    C114313  17.058  12.946   5.460  0.0498 -0.2100  0.1678
  916loPI    C214314  16.977  12.812   5.092  0.0636 -0.1922  0.1583
  916loPI    C314315  17.287  13.058   5.152 -0.0719 -0.0162  0.1460
  916loPI   PO414316  17.048  12.737   5.741  0.1099 -0.1074  0.1078
  916loPI   GL114317  16.990  12.653   6.127  0.1182  0.0964 -0.5852
  916loPI   GL214318  17.103  12.928   6.169 -0.2177 -0.1421  0.1645
  916loPI   C1A14319  17.037  12.308   6.471  0.3009  0.0031 -0.0995
  916loPI   C2A14320  17.152  12.266   6.865 -0.3961  0.1639 -0.1322
  916loPI   C3A14321  17.144  12.270   7.310 -0.1488 -0.1506  0.0278
  916loPI   C4A14322  17.102  12.287   7.700  0.0386  0.0979 -0.1025
  916loPI   C5A14323  17.213  12.352   8.109 -0.0266 -0.0527  0.1724
  916loPI   C6A14324  17.361  12.471   8.505 -0.1925  0.1440 -0.0276
  916loPI   C1B14325  16.927  12.858   6.607 -0.3876 -0.1053 -0.2242
  916loPI   C2B14326  17.014  12.711   6.952  0.2283 -0.1614 -0.3446
  916loPI   C3B14327  16.992  12.723   7.385 -0.2585 -0.1530  0.2341
  916loPI   C4B14328  17.060  12.846   7.791  0.3232  0.1819 -0.0962
  917loPI    C114329   9.206  10.915   5.852  0.1225  0.0118 -0.2014
  917loPI    C214330   8.887  11.016   5.633  0.0462 -0.0642 -0.1262
  917loPI    C314331   9.255  11.112   5.507 -0.0148  0.1667 -0.1338
  917loPI   PO414332   9.176  11.001   6.121  0.0577  0.0410  0.1841
  917loPI   GL114333   9.143  10.897   6.496  0.1906  0.2261 -0.0427
  917loPI   GL214334   8.884  10.797   6.612  0.1087 -0.1149  0.0486
  917loPI   C1A14335   9.094  11.151   6.921  0.0420  0.1536  0.1278
  917loPI   C2A14336   9.043  11.153   7.357  0.0452  0.0209 -0.0594
  917loPI   C3A14337   9.014  11.063   7.791  0.1682 -0.3074  0.0565
  917loPI   C4A14338   9.089  11.116   8.141  0.0164 -0.1384 -0.1701
  917loPI   C5A14339   9.395  10.901   8.409 -0.2274 -0.1137 -0.1668
  917loPI   C6A14340   9.659  10.545   8.369  0.0249  0.2463  0.0847
  917loPI   C1B14341   8.718  10.786   7.029 -0.0935  0.1137  0.0818
  917loPI   C2B14342   8.736  10.654   7.449 -0.1414  0.2594  0.0369
  917loPI   C3B14343   8.777  10.649   7.802  0.3045  0.1394 -0.3819
  917loPI   C4B14344   8.638  10.863   8.176 -0.0741  0.0558  0.0089
  918loPI    C114345   6.017  11.480   5.866  0.0294  0.0777  0.0530
  918loPI    C214346   5.883  11.540   5.494  0.1398  0.4345  0.0670
  918loPI    C314347   6.276  11.522   5.564  0.1160  0.1346  0.1345
  918loPI   PO414348   5.763  11.545   6.024 -0.1406 -0.1411  0.1463
  918loPI   GL114349   5.542  11.536   6.373 -0.2353 -0.1248 -0.0207
  918loPI   GL214350   5.489  11.293   6.538 -0.0983 -0.0583  0.0897
  918loPI   C1A14351   5.307  11.594   6.831  0.0009 -0.1634  0.0045
  918loPI   C2A14352   5.346  11.649   7.362 -0.0476  0.1324  0.1340
  918loPI   C3A14353   5.336  11.628   7.706 -0.0930 -0.0720 -0.2182
  918loPI   C4A14354   5.358  11.593   8.177  0.0268 -0.0828  0.0096
  918loPI   C5A14355   5.180  11.442   8.577 -0.1621 -0.0215 -0.0223
  918loPI   C6A14356   5.222  11.258   9.091  0.2644  0.2309 -0.0724
  918loPI   C1B14357   5.417  11.126   6.998 -0.0754 -0.1723 -0.2018
  918loPI   C2B14358   5.497  11.099   7.431 -0.0150  0.3011  0.0463
  918loPI   C3B14359   5.471  11.152   7.851  0.0109  0.1447  0.1118
  918loPI   C4B14360   5.483  11.104   8.278  0.1885 -0.1930  0.1196
  919loPI    C114361   2.856  15.200   5.587 -0.0161  0.1105  0.1844
  919loPI    C214362   2.940  14.821   5.685  0.0264  0.1123  0.1554
  919loPI    C314363   2.569  14.963   5.736 -0.0118  0.0398  0.0813
  919loPI   PO414364   2.966  15.323   5.647  0.0104  0.1036 -0.2448
  919loPI   GL114365   3.065  15.198   6.059 -0.5039 -0.1211  0.0217
  919loPI   GL214366   2.837  14.994   6.142  0.2216 -0.2871 -0.0269
  919loPI   C1A14367   3.142  15.286   6.460  0.2427 -0.3515 -0.0292
  919loPI   C2A14368   3.144  15.254   6.908  0.1402  0.1298 -0.0097
  919loPI   C3A14369   3.299  15.182   7.336 -0.1540 -0.0352 -0.2368
  919loPI   C4A14370   3.138  15.200   7.801 -0.2594  0.0433  0.0158
  919loPI   C5A14371   3.368  15.267   8.195  0.4559  0.1486  0.1449
  919loPI   C6A14372   3.638  15.190   8.612 -0.1532 -0.1121 -0.0633
  919loPI   C1B14373   2.859  14.879   6.493 -0.0443 -0.0801 -0.2609
  919loPI   C2B14374   2.794  14.880   6.872  0.0014 -0.0743 -0.0318
  919loPI   C3B14375   2.852  14.925   7.411  0.0987 -0.1348  0.3443
  919loPI   C4B14376   2.727  14.861   7.837 -0.1376  0.1586  0.1510
  920loPI    C114377   3.058  12.116   5.509  0.4432  0.1757  0.0822
  920loPI    C214378   3.234  12.253   5.177  0.2362  0.1684 -0.0327
  920loPI    C314379   3.033  11.907   5.169 -0.0123  0.3094  0.0265
  920loPI   PO414380   3.109  12.333   5.672  0.1753 -0.2019 -0.1675
  920loPI   GL114381   3.043  12.549   6.037 -0.1066  0.0242 -0.2438
  920loPI   GL214382   2.928  12.257   6.171 -0.0745 -0.3227  0.3574
  920loPI   C1A14383   3.154  12.617   6.497  0.3433 -0.0599  0.0615
  920loPI   C2A14384   3.233  12.524   6.954 -0.0883  0.0745  0.0792
  920loPI   C3A14385   3.135  12.518   7.343 -0.0117  0.1448 -0.0137
  920loPI   C4A14386   3.172  12.558   7.760 -0.1794  0.0299  0.0758
  920loPI   C5A14387   3.220  12.589   8.157  0.1253  0.2347  0.2924
  920loPI   C6A14388   3.332  12.740   8.590 -0.0876  0.2038  0.1673
  920loPI   C1B14389   2.901  12.224   6.654 -0.1505  0.1489 -0.2426
  920loPI   C2B14390   2.865  12.102   7.123  0.1129 -0.1760  0.1297
  920loPI   C3B14391   2.792  12.194   7.539 -0.1455  0.1419  0.2755
  920loPI   C4B14392   2.791  12.199   7.959  0.1047  0.1654 -0.2829
  921loPI    C114393   8.099  12.289   5.869 -0.0418 -0.0688  0.0455
  921loPI    C214394   8.319  12.499   5.608 -0.1205  0.0169  0.0473
  921loPI    C314395   7.936  12.418   5.527 -0.1757  0.1364  0.1841
  921loPI   PO414396   8.239  12.369   6.056 -0.1584  0.1572  0.1477
  921loPI   GL114397   8.010  12.327   6.374  0.0453  0.2297 -0.0925
  921loPI   GL214398   8.197  12.078   6.466 -0.1016 -0.3371  0.0577
  921loPI   C1A14399   7.850  12.387   6.822 -0.3729 -0.0089 -0.0101
  921loPI   C2A14400   7.855  12.355   7.249  0.2047  0.0175  0.1413
  921loPI   C3A14401   7.800  12.416   7.627 -0.2580 -0.2782  0.0840
  921loPI   C4A14402   7.781  12.405   8.160 -0.2493 -0.3075 -0.0805
  921loPI   C5A14403   7.805  12.385   8.591 -0.0832 -0.4544  0.1001
  921loPI   C6A14404   8.149  12.252   8.845 -0.3867  0.0543  0.2364
  921loPI   C1B14405   8.347  12.234   6.804  0.4376  0.0302 -0.0790
  921loPI   C2B14406   8.303  12.165   7.126 -0.0204  0.0944 -0.1104
  921loPI   C3B14407   8.335  12.270   7.541  0.5856  0.0525  0.2311
  921loPI   C4B14408   8.326  12.149   7.938 -0.2773 -0.0180  0.0439
  922loPI    C114409   1.944   8.811   5.626  0.1201 -0.1700 -0.1780
  922loPI    C214410   1.869   9.175   5.476  0.2334 -0.0804 -0.0202
  922loPI    C314411   1.947   8.869   5.230  0.1795  0.0111 -0.1520
  922loPI   PO414412   2.186   8.817   5.825  0.0907  0.0630  0.0861
  922loPI   GL114413   2.272   8.875   6.248  0.0212  0.0932  0.3054
  922loPI   GL214414   2.014   8.697   6.389 -0.3463 -0.1067 -0.0959
  922loPI   C1A14415   2.432   8.735   6.681  0.1145  0.1017 -0.0297
  922loPI   C2A14416   2.438   8.624   7.090  0.0117  0.0412 -0.0197
  922loPI   C3A14417   2.429   8.694   7.653 -0.0577  0.2370  0.2262
  922loPI   C4A14418   2.400   8.678   8.078 -0.0558 -0.0147 -0.4453
  922loPI   C5A14419   2.601   8.740   8.379  0.3955 -0.0023 -0.2397
  922loPI   C6A14420   2.917   8.482   8.570 -0.1460 -0.1540 -0.0437
  922loPI   C1B14421   1.961   8.842   6.755 -0.0295 -0.1764  0.1730
  922loPI   C2B14422   1.986   8.855   7.187  0.2831  0.4834 -0.0929
  922loPI   C3B14423   1.905   8.770   7.647 -0.2010  0.1367 -0.1502
  922loPI   C4B14424   1.882   8.799   8.089 -0.0750  0.0383 -0.0531
  923loPI    C114425   5.223  13.967   5.622  0.1522 -0.0526  0.0257
  923loPI    C214426   5.491  14.177   5.413 -0.0604  0.1646 -0.0333
  923loPI    C314427   5.270  13.898   5.231 -0.0507  0.1601 -0.0382
  923loPI   PO414428   5.194  14.140   5.824  0.0430  0.1456 -0.1531
  923loPI   GL114429   5.467  14.266   6.183  0.0185  0.4864  0.1630
  923loPI   GL214430   5.496  14.634   6.237  0.0757  0.0117  0.1882
  923loPI   C1A14431   5.468  14.347   6.651  0.0571  0.0216  0.0258
  923loPI   C2A14432   5.524  14.351   7.053  0.0769 -0.2984  0.0834
  923loPI   C3A14433   5.453  14.301   7.545 -0.1930 -0.0940  0.0225
  923loPI   C4A14434   5.461  14.391   7.962  0.2571 -0.0745 -0.2701
  923loPI   C5A14435   5.277  14.289   8.360 -0.3063  0.2939 -0.1989
  923loPI   C6A14436   4.992  14.589   8.596 -0.2648  0.4050  0.3861
  923loPI   C1B14437   5.391  14.855   6.526  0.0794 -0.1234  0.1094
  923loPI   C2B14438   5.262  14.835   6.946  0.0691  0.3411 -0.0878
  923loPI   C3B14439   5.312  14.801   7.363 -0.0128  0.0408 -0.1252
  923loPI   C4B14440   5.281  14.765   7.685  0.1543 -0.3015 -0.2582
  924loPI    C114441  12.793   0.674   5.507  0.0843  0.1085 -0.2549
  924loPI    C214442  12.816   1.053   5.380 -0.1160  0.1306 -0.2286
  924loPI    C314443  12.645   0.774   5.150 -0.2796  0.1260 -0.1029
  924loPI   PO414444  12.651   0.634   5.889 -0.0563 -0.0618 -0.2079
  924loPI   GL114445  12.661   0.921   6.239 -0.0863  0.0792  0.1356
  924loPI   GL214446  12.268   0.827   6.168  0.0282  0.1728  0.0339
  924loPI   C1A14447  12.455   0.961   6.649 -0.0402 -0.1445 -0.1028
  924loPI   C2A14448  12.520   0.881   7.061 -0.0497 -0.3684 -0.1145
  924loPI   C3A14449  12.542   1.007   7.507  0.1656 -0.2789  0.1156
  924loPI   C4A14450  12.547   1.047   7.928 -0.0708 -0.1334 -0.0126
  924loPI   C5A14451  12.260   0.817   8.260  0.0349  0.2199  0.1996
  924loPI   C6A14452  12.178   0.353   8.436  0.2686  0.3255  0.1525
  924loPI   C1B14453  12.148   0.650   6.441 -0.1550  0.1818  0.0830
  924loPI   C2B14454  12.121   0.638   6.858  0.1423  0.2320  0.0227
  924loPI   C3B14455  12.156   0.641   7.301 -0.0787 -0.0805  0.0489
  924loPI   C4B14456  12.171   0.695   7.741  0.1657  0.0490  0.0711
  925loPI    C114457   2.071  15.652   5.531  0.0251 -0.2403 -0.2019
  925loPI    C214458   2.295  15.694   5.202 -0.0317  0.2716 -0.1828
  925loPI    C314459   1.958  15.905   5.243 -0.2239 -0.0689  0.0420
  925loPI   PO414460   2.259  15.402   5.637  0.1648  0.0636 -0.1178
  925loPI   GL114461   2.146  15.260   6.164 -0.1797  0.1693 -0.0621
  925loPI   GL214462   1.863  15.453   6.035 -0.0645  0.4717  0.0886
  925loPI   C1A14463   2.084  15.366   6.584 -0.0451 -0.2026 -0.4192
  925loPI   C2A14464   2.104  15.431   7.041 -0.0424 -0.2928  0.0722
  925loPI   C3A14465   2.087  15.384   7.476  0.1229 -0.1765 -0.0759
  925loPI   C4A14466   2.039  15.356   7.815  0.1214 -0.2601  0.0403
  925loPI   C5A14467   1.788  15.427   8.189 -0.1922  0.0998  0.1453
  925loPI   C6A14468   1.625  15.474   8.601  0.0925  0.0283  0.0042
  925loPI   C1B14469   1.682  15.532   6.473 -0.1680 -0.3348  0.1090
  925loPI   C2B14470   1.616  15.520   6.884 -0.2870  0.2730 -0.1970
  925loPI   C3B14471   1.540  15.496   7.290 -0.0996  0.0940  0.1477
  925loPI   C4B14472   1.565  15.491   7.699  0.0049 -0.1207  0.2927
  926loPI    C114473   7.026  14.812   5.631  0.0400 -0.1737 -0.0567
  926loPI    C214474   7.220  15.151   5.542 -0.2847  0.0722  0.1454
  926loPI    C314475   6.935  15.013   5.297 -0.0684 -0.1269  0.0006
  926loPI   PO414476   7.005  14.818   5.860 -0.1131 -0.0277 -0.0850
  926loPI   GL114477   6.940  14.768   6.324  0.0490  0.1753 -0.1885
  926loPI   GL214478   6.725  14.864   6.448  0.1794 -0.1720  0.1213
  926loPI   C1A14479   7.128  14.811   6.709  0.0141 -0.1020  0.0465
  926loPI   C2A14480   7.147  14.891   7.208  0.0532  0.1434 -0.0321
  926loPI   C3A14481   7.147  14.843   7.619  0.1302  0.1925 -0.1922
  926loPI   C4A14482   7.104  14.808   7.994  0.2144 -0.1227  0.0438
  926loPI   C5A14483   7.069  14.881   8.510 -0.1790  0.1246  0.0110
  926loPI   C6A14484   6.907  14.768   8.873 -0.1815 -0.0839  0.0946
  926loPI   C1B14485   6.676  14.965   6.881 -0.0186 -0.1558 -0.1225
  926loPI   C2B14486   6.675  14.908   7.357  0.1459  0.2180 -0.1934
  926loPI   C3B14487   6.602  14.997   7.833 -0.2064  0.1841  0.0021
  926loPI   C4B14488   6.695  15.062   8.204  0.0211  0.0907 -0.2064
  927loPI    C114489   2.015  10.990   5.680  0.2120  0.0813 -0.0503
  927loPI    C214490   2.142  11.230   5.386  0.0182  0.0215 -0.1854
  927loPI    C314491   1.815  11.007   5.334 -0.0288  0.0235  0.0842
  927loPI   PO414492   2.165  11.036   5.837  0.2375 -0.1036 -0.0175
  927loPI   GL114493   2.110  11.261   6.182 -0.1605 -0.1980 -0.1878
  927loPI   GL214494   2.176  11.040   6.399 -0.0143 -0.0638 -0.2458
  927loPI   C1A14495   1.761  11.205   6.660 -0.2643  0.0603 -0.0578
  927loPI   C2A14496   1.705  11.116   6.983  0.0648  0.1979  0.1371
  927loPI   C3A14497   1.749  11.179   7.378  0.1768  0.0553  0.2741
  927loPI   C4A14498   1.776  11.206   7.787  0.1229  0.1226 -0.0782
  927loPI   C5A14499   1.909  11.148   8.164  0.1871  0.1985  0.0175
  927loPI   C6A14500   2.180  11.332   8.394 -0.0789 -0.0531 -0.2479
  927loPI   C1B14501   2.287  11.016   6.834 -0.0093 -0.3025 -0.2102
  927loPI   C2B14502   2.206  10.964   7.243 -0.0880  0.1101  0.0752
  927loPI   C3B14503   2.288  11.056   7.600 -0.1748  0.0769 -0.0840
  927loPI   C4B14504   2.371  10.976   8.023 -0.0939  0.0349  0.1749
  928loPI    C114505   4.489   0.635   5.691  0.2101 -0.1164  0.0148
  928loPI    C214506   4.418   0.244   5.653  0.1298 -0.0902 -0.1076
  928loPI    C314507   4.618   0.440   5.367  0.1557 -0.0388 -0.0542
  928loPI   PO414508   4.497   0.667   5.899  0.2690  0.1116  0.0347
  928loPI   GL114509   4.582   0.567   6.264  0.1512 -0.0837  0.1471
  928loPI   GL214510   4.867   0.665   6.280  0.1047 -0.2290  0.0598
  928loPI   C1A14511   4.691   0.568   6.756  0.0447  0.0578 -0.0731
  928loPI   C2A14512   4.696   0.599   7.265 -0.0742 -0.1036  0.1786
  928loPI   C3A14513   4.573   0.685   7.752 -0.1243  0.5223 -0.1943
  928loPI   C4A14514   4.615   0.689   8.206  0.3223 -0.2958 -0.0601
  928loPI   C5A14515   4.877   0.888   8.387  0.0192  0.0294 -0.1964
  928loPI   C6A14516   5.229   1.185   8.206  0.0219 -0.3003  0.0966
  928loPI   C1B14517   4.989   0.926   6.573  0.0177 -0.1353  0.3790
  928loPI   C2B14518   4.952   0.932   7.056 -0.1907  0.1381 -0.2763
  928loPI   C3B14519   5.083   1.001   7.421  0.0372  0.1311  0.2601
  928loPI   C4B14520   4.955   1.092   7.798  0.1536 -0.2004  0.0156
  929loPI    C114521  11.698   6.438   5.743  0.3467  0.1783  0.0168
  929loPI    C214522  11.694   6.721   5.460 -0.0240  0.0232 -0.1397
  929loPI    C314523  11.640   6.337   5.360  0.2939 -0.0859  0.0920
  929loPI   PO414524  11.912   6.480   5.843 -0.1638  0.3550 -0.3651
  929loPI   GL114525  11.974   6.650   6.205  0.1643 -0.2224  0.0771
  929loPI   GL214526  12.241   6.565   6.449  0.0989 -0.1723  0.3978
  929loPI   C1A14527  11.790   6.666   6.648 -0.0648  0.0150  0.0748
  929loPI   C2A14528  11.786   6.639   7.072  0.0026  0.0224 -0.2495
  929loPI   C3A14529  11.795   6.652   7.510 -0.1234 -0.0472 -0.0785
  929loPI   C4A14530  11.745   6.758   7.892  0.2852  0.2897 -0.0978
  929loPI   C5A14531  11.791   6.665   8.303 -0.1759 -0.1783  0.0315
  929loPI   C6A14532  11.993   6.807   8.669 -0.3740  0.2820 -0.0850
  929loPI   C1B14533  12.258   6.588   6.930 -0.5676  0.0769 -0.0605
  929loPI   C2B14534  12.246   6.577   7.342 -0.1817 -0.0356 -0.0210
  929loPI   C3B14535  12.215   6.577   7.811 -0.0761  0.0552 -0.2549
  929loPI   C4B14536  12.296   6.629   8.249 -0.0257  0.2376 -0.1697
  930loPI    C114537   9.432  14.751   5.738 -0.0622 -0.1637 -0.1673
  930loPI    C214538   9.595  14.846   5.385  0.0598 -0.0498 -0.0814
  930loPI    C314539   9.468  15.135   5.631 -0.0736 -0.1309 -0.0543
  930loPI   PO414540   9.570  14.597   5.947  0.1377 -0.2118 -0.4389
  930loPI   GL114541   9.633  14.617   6.391 -0.0080  0.0106  0.0576
  930loPI   GL214542   9.597  14.303   6.461 -0.1673 -0.1129  0.0650
  930loPI   C1A14543   9.515  14.736   6.796 -0.1429  0.1426 -0.1440
  930loPI   C2A14544   9.547  14.693   7.242  0.0657 -0.0612  0.2610
  930loPI   C3A14545   9.440  14.701   7.650 -0.0554  0.2152 -0.0300
  930loPI   C4A14546   9.397  14.632   8.113  0.3596  0.0570  0.1878
  930loPI   C5A14547   9.403  14.460   8.624 -0.0942 -0.1269  0.4050
  930loPI   C6A14548   9.239  14.088   8.784 -0.0628 -0.0366  0.0547
  930loPI   C1B14549   9.599  14.223   6.924 -0.0923 -0.0251 -0.3140
  930loPI   C2B14550   9.649  14.220   7.314 -0.1591 -0.0086 -0.1835
  930loPI   C3B14551   9.659  14.165   7.747  0.2727  0.3090 -0.0104
  930loPI   C4B14552   9.492  14.157   8.229 -0.2721  0.2462  0.3098
  931loPI    C114553  17.181   3.674   5.757  0.0959  0.0169  0.0380
  931loPI    C214554  17.381   3.924   5.518 -0.0250  0.0295 -0.0513
  931loPI    C314555  17.288   3.556   5.390 -0.2806  0.1116 -0.1071
  931loPI   PO414556  17.292   3.640   5.975 -0.1191 -0.1571 -0.2952
  931loPI   GL114557  17.278   3.801   6.279 -0.0680 -0.0213 -0.1451
  931loPI   GL214558  16.979   3.885   6.309 -0.1467 -0.2145 -0.1776
  931loPI   C1A14559  17.518   3.694   6.620 -0.1018 -0.0988 -0.1255
  931loPI   C2A14560  17.415   3.546   7.103 -0.1391 -0.1809  0.0498
  931loPI   C3A14561  17.442   3.537   7.511  0.1412 -0.0727  0.1987
  931loPI   C4A14562  17.537   3.519   7.919  0.1609  0.0025 -0.0914
  931loPI   C5A14563  17.618   3.465   8.324 -0.0398  0.0429 -0.0174
  931loPI   C6A14564  17.720   3.496   8.765 -0.1770 -0.1411 -0.0777
  931loPI   C1B14565  16.842   4.104   6.711  0.0265  0.2650  0.2120
  931loPI   C2B14566  16.783   4.169   7.170 -0.2585  0.0615  0.0219
  931loPI   C3B14567  16.897   4.073   7.608  0.0983  0.3316  0.1109
  931loPI   C4B14568  16.851   4.163   8.042 -0.4876  0.1644  0.2060
  932loPI    C114569   7.331  11.941   5.798  0.3077  0.0440  0.0442
  932loPI    C214570   7.614  11.664   5.742  0.3064  0.0859 -0.1785
  932loPI    C314571   7.641  12.017   5.558  0.0325  0.0351 -0.3222
  932loPI   PO414572   7.271  11.959   6.125 -0.0699 -0.2494  0.0595
  932loPI   GL114573   7.225  11.804   6.458 -0.1067  0.1158  0.0616
  932loPI   GL214574   7.160  11.582   6.586  0.0584 -0.1477 -0.4281
  932loPI   C1A14575   7.076  11.994   6.855  0.1177  0.0390  0.0349
  932loPI   C2A14576   6.999  12.113   7.320  0.0085  0.0098  0.0642
  932loPI   C3A14577   6.984  12.223   7.720 -0.2562 -0.1186  0.2064
  932loPI   C4A14578   6.984  12.054   8.088  0.2127  0.0027  0.1036
  932loPI   C5A14579   7.165  12.122   8.488 -0.3060 -0.0954 -0.1159
  932loPI   C6A14580   7.476  11.994   8.805  0.0474 -0.0291 -0.0162
  932loPI   C1B14581   7.126  11.557   7.054  0.1753  0.0190 -0.1013
  932loPI   C2B14582   7.135  11.580   7.501 -0.4049 -0.3152 -0.1451
  932loPI   C3B14583   7.061  11.606   7.916 -0.0506  0.1197 -0.0407
  932loPI   C4B14584   7.135  11.597   8.408  0.1253 -0.0732 -0.0849
  933loPI    C114585   7.123   1.941   5.664  0.0768 -0.0377  0.0197
  933loPI    C214586   6.902   1.920   5.331 -0.0124  0.1191  0.0683
  933loPI    C314587   7.143   2.233   5.392 -0.0978  0.1576  0.2136
  933loPI   PO414588   6.929   1.924   5.875  0.0718  0.2501 -0.3137
  933loPI   GL114589   6.759   1.770   6.307  0.0990 -0.0263  0.1138
  933loPI   GL214590   6.719   1.484   6.398 -0.2355  0.0260  0.1369
  933loPI   C1A14591   6.678   1.961   6.756 -0.0813  0.0923  0.1796
  933loPI   C2A14592   6.505   2.014   6.999 -0.1555  0.0462 -0.0786
  933loPI   C3A14593   6.575   2.051   7.370  0.2165 -0.0180  0.1237
  933loPI   C4A14594   6.674   1.937   7.760  0.2102 -0.2069  0.0658
  933loPI   C5A14595   6.735   1.982   8.207  0.1141 -0.1704  0.2429
  933loPI   C6A14596   6.621   2.072   8.667  0.1764 -0.1958  0.2112
  933loPI   C1B14597   6.683   1.465   6.776 -0.1412 -0.0780 -0.0005
  933loPI   C2B14598   6.703   1.486   7.220 -0.1821  0.0762 -0.0698
  933loPI   C3B14599   6.671   1.451   7.655 -0.1672  0.0880  0.1229
  933loPI   C4B14600   6.775   1.409   8.121 -0.1086 -0.0489 -0.0785
  934loPI    C114601   7.968   7.819   5.868  0.0198 -0.0604  0.0324
  934loPI    C214602   8.256   7.781   5.594 -0.0264 -0.0936 -0.0117
  934loPI    C314603   7.945   8.023   5.525 -0.1027 -0.1998 -0.0436
  934loPI   PO414604   7.942   7.732   6.073 -0.2892 -0.0033 -0.3291
  934loPI   GL114605   7.995   7.633   6.462 -0.1879 -0.0187  0.0052
  934loPI   GL214606   8.313   7.532   6.639 -0.0128  0.1758  0.0292
  934loPI   C1A14607   7.999   7.962   6.856 -0.3127 -0.1572 -0.1432
  934loPI   C2A14608   8.085   8.060   7.266  0.0570 -0.3345 -0.1624
  934loPI   C3A14609   8.055   8.055   7.740  0.0163  0.2635  0.0902
  934loPI   C4A14610   8.105   8.145   8.129 -0.0353  0.0501  0.0926
  934loPI   C5A14611   8.136   8.080   8.653  0.1510  0.0218  0.2749
  934loPI   C6A14612   8.301   7.798   8.951 -0.2072  0.0360 -0.1222
  934loPI   C1B14613   8.199   7.511   7.036  0.2866  0.0694  0.1463
  934loPI   C2B14614   8.104   7.572   7.460 -0.1858 -0.1023  0.3569
  934loPI   C3B14615   8.151   7.532   7.893 -0.2767  0.2127 -0.2072
  934loPI   C4B14616   8.222   7.646   8.346  0.1107  0.2194 -0.0324
  935loPI    C114617  12.470  11.715   5.756  0.3526 -0.3857  0.2186
  935loPI    C214618  12.658  11.760   5.406  0.2428 -0.1252  0.1907
  935loPI    C314619  12.305  11.573   5.420  0.1296  0.0800  0.1225
  935loPI   PO414620  12.506  11.922   5.829  0.0508 -0.4413 -0.4606
  935loPI   GL114621  12.667  12.134   6.277 -0.1175  0.0930  0.1592
  935loPI   GL214622  12.640  11.853   6.348  0.0924  0.2948 -0.1423
  935loPI   C1A14623  12.834  12.331   6.703 -0.2525 -0.0218 -0.0237
  935loPI   C2A14624  13.049  12.402   7.137 -0.1367 -0.1660  0.1699
  935loPI   C3A14625  13.006  12.469   7.563  0.0896 -0.0889  0.1424
  935loPI   C4A14626  12.888  12.590   8.015 -0.0422  0.1247  0.0360
  935loPI   C5A14627  12.975  12.515   8.420  0.0053 -0.1739  0.2628
  935loPI   C6A14628  13.080  12.377   8.819  0.0570  0.3916 -0.2973
  935loPI   C1B14629  12.535  11.962   6.743 -0.0249 -0.0303  0.0853
  935loPI   C2B14630  12.627  12.026   7.195 -0.0657 -0.2563  0.0877
  935loPI   C3B14631  12.576  12.092   7.586 -0.4583  0.0974  0.4308
  935loPI   C4B14632  12.576  12.183   8.072  0.1091 -0.0714 -0.0429
  936loPI    C114633   2.611  10.445   5.819  0.0582  0.3260  0.3016
  936loPI    C214634   2.565  10.795   5.630 -0.0252  0.0428 -0.2198
  936loPI    C314635   2.799  10.511   5.472  0.0340 -0.1449  0.1923
  936loPI   PO414636   2.605  10.531   6.059  0.1654  0.0670  0.2299
  936loPI   GL114637   2.327  10.548   6.397  0.0824  0.1228 -0.0731
  936loPI   GL214638   2.093  10.590   6.215 -0.0812  0.2598 -0.0071
  936loPI   C1A14639   2.442  10.462   6.762 -0.0981 -0.3311  0.1411
  936loPI   C2A14640   2.385  10.487   7.260  0.0242  0.1015  0.1127
  936loPI   C3A14641   2.424  10.539   7.709 -0.0992 -0.2292  0.1605
  936loPI   C4A14642   2.498  10.470   8.065 -0.0175  0.1834 -0.0409
  936loPI   C5A14643   2.374  10.479   8.571  0.1259  0.0329 -0.0643
  936loPI   C6A14644   2.333  10.408   9.013  0.0869  0.1081  0.3557
  936loPI   C1B14645   1.923  10.678   6.661  0.0525  0.1764 -0.0321
  936loPI   C2B14646   1.949  10.604   7.113  0.0814  0.3811  0.0248
  936loPI   C3B14647   1.902  10.710   7.532 -0.1673 -0.0510 -0.1002
  936loPI   C4B14648   1.997  10.661   7.996  0.0852 -0.2563 -0.2036
  937loPI    C114649  15.713  15.985   5.645 -0.2919 -0.0954  0.0450
  937loPI    C214650  15.527  15.729   5.401 -0.1489 -0.0362 -0.1278
  937loPI    C314651  15.698  16.059   5.253  0.1180 -0.1040  0.0233
  937loPI   PO414652  15.598  16.022   5.860  0.4580 -0.1472 -0.0313
  937loPI   GL114653  15.694  15.804   6.270  0.2397  0.1634 -0.0566
  937loPI   GL214654  15.361  15.955   6.281 -0.1069 -0.2668 -0.0864
  937loPI   C1A14655  15.721  15.903   6.695 -0.0066 -0.2510 -0.1062
  937loPI   C2A14656  15.771  15.814   7.053 -0.1560  0.0627 -0.0463
  937loPI   C3A14657  15.690  15.933   7.497  0.2239  0.0676 -0.0604
  937loPI   C4A14658  15.667  15.897   7.910  0.2343 -0.1186 -0.0124
  937loPI   C5A14659  15.551  15.806   8.234  0.0032 -0.3315  0.3978
  937loPI   C6A14660  15.486  15.901   8.689  0.0101  0.1603  0.1016
  937loPI   C1B14661  15.227  16.067   6.690 -0.0521  0.0308  0.1661
  937loPI   C2B14662  15.278  16.079   7.154  0.2004  0.0012 -0.0895
  937loPI   C3B14663  15.160  15.958   7.490  0.2538 -0.2012 -0.0950
  937loPI   C4B14664  15.231  16.069   7.862 -0.0195 -0.0326 -0.0137
  938loPI    C114665   3.024  14.170   5.645  0.2001  0.0271  0.1797
  938loPI    C214666   2.983  14.415   5.331  0.2535  0.0043  0.1550
  938loPI    C314667   2.880  14.029   5.300  0.1549  0.0268  0.1985
  938loPI   PO414668   3.067  14.318   5.824 -0.1330 -0.0444 -0.1237
  938loPI   GL114669   3.263  14.402   6.163  0.1222  0.1895 -0.0215
  938loPI   GL214670   3.281  14.683   6.102 -0.1155 -0.1771 -0.1954
  938loPI   C1A14671   3.081  14.412   6.584  0.0794 -0.1109 -0.1984
  938loPI   C2A14672   3.019  14.427   7.010  0.1316 -0.0397 -0.0560
  938loPI   C3A14673   2.963  14.439   7.473  0.0562  0.0468 -0.0470
  938loPI   C4A14674   2.955  14.468   7.958  0.0848  0.0188 -0.1233
  938loPI   C5A14675   3.071  14.389   8.386  0.1137 -0.0285  0.1229
  938loPI   C6A14676   3.349  14.259   8.646  0.0942 -0.0723 -0.2149
  938loPI   C1B14677   3.328  14.867   6.510 -0.1906  0.1620  0.0753
  938loPI   C2B14678   3.343  14.772   6.962  0.3248 -0.3013  0.1404
  938loPI   C3B14679   3.356  14.697   7.457 -0.1373 -0.0141 -0.0976
  938loPI   C4B14680   3.383  14.730   7.918  0.1264 -0.1693  0.3571
  939loPI    C114681  10.337   1.637   5.723  0.0364 -0.1553  0.0527
  939loPI    C214682  10.633   1.843   5.550 -0.0014 -0.0997  0.0538
  939loPI    C314683  10.305   1.751   5.341 -0.2207  0.3111  0.2056
  939loPI   PO414684  10.282   1.769   5.931  0.0467  0.0717 -0.1867
  939loPI   GL114685  10.351   1.888   6.379  0.2495  0.0630  0.4691
  939loPI   GL214686  10.109   1.712   6.426 -0.0800 -0.0576 -0.2240
  939loPI   C1A14687  10.379   1.920   6.895 -0.1977 -0.0139 -0.0750
  939loPI   C2A14688  10.320   2.070   7.295  0.1729  0.0958  0.0527
  939loPI   C3A14689  10.326   2.037   7.785  0.1815 -0.1393  0.3587
  939loPI   C4A14690  10.268   2.095   8.170  0.1395  0.0917  0.1411
  939loPI   C5A14691  10.377   2.161   8.538  0.3865 -0.1448  0.2722
  939loPI   C6A14692  10.789   2.090   8.866 -0.0909 -0.0745 -0.0023
  939loPI   C1B14693   9.980   1.569   6.843  0.0139  0.1281  0.0421
  939loPI   C2B14694  10.084   1.544   7.331 -0.1255 -0.0298  0.0345
  939loPI   C3B14695  10.023   1.644   7.814 -0.0347  0.2299  0.1757
  939loPI   C4B14696  10.107   1.641   8.213  0.3401 -0.0247 -0.1819
  940loPI    C114697   2.625   3.411   5.723 -0.2443  0.0063 -0.0155
  940loPI    C214698   2.669   3.422   5.326 -0.1781  0.0634 -0.0067
  940loPI    C314699   2.442   3.139   5.494 -0.0981 -0.0424 -0.0753
  940loPI   PO414700   2.592   3.646   5.807 -0.1418 -0.0903  0.0602
  940loPI   GL114701   2.454   3.723   6.214 -0.0325 -0.2051  0.0020
  940loPI   GL214702   2.450   3.417   6.227  0.1613 -0.1721 -0.2461
  940loPI   C1A14703   2.238   3.775   6.629  0.0435  0.1197 -0.3033
  940loPI   C2A14704   2.132   3.936   7.071  0.0293  0.1076  0.0987
  940loPI   C3A14705   2.140   3.929   7.480  0.2577  0.1064  0.1150
  940loPI   C4A14706   2.229   3.893   7.896 -0.2202  0.2413  0.3306
  940loPI   C5A14707   2.306   3.799   8.315  0.1323 -0.0481  0.1323
  940loPI   C6A14708   2.154   3.418   8.591  0.1886 -0.1028 -0.1593
  940loPI   C1B14709   2.412   3.301   6.637  0.2056  0.3443 -0.4302
  940loPI   C2B14710   2.286   3.443   7.027 -0.0642  0.0273 -0.2104
  940loPI   C3B14711   2.276   3.390   7.495  0.1225 -0.1487 -0.0306
  940loPI   C4B14712   2.397   3.426   7.894 -0.0683  0.0418  0.0490
  941loPI    C114713   5.152   8.505   5.862  0.0017 -0.0651 -0.0000
  941loPI    C214714   4.970   8.179   5.719 -0.0498 -0.0412  0.0109
  941loPI    C314715   5.254   8.361   5.503 -0.1681  0.0286 -0.0874
  941loPI   PO414716   5.277   8.387   6.114  0.0965  0.0913 -0.0485
  941loPI   GL114717   5.312   8.447   6.455 -0.1110  0.3137  0.1977
  941loPI   GL214718   5.479   8.631   6.537 -0.0513  0.3711  0.3047
  941loPI   C1A14719   5.134   8.399   6.855 -0.0353 -0.0295 -0.0739
  941loPI   C2A14720   5.252   8.389   7.296 -0.1228  0.2416  0.1283
  941loPI   C3A14721   5.259   8.329   7.757  0.2960 -0.1520 -0.0848
  941loPI   C4A14722   5.247   8.328   8.201  0.0418  0.1518  0.1019
  941loPI   C5A14723   5.279   8.245   8.578  0.2718  0.0234  0.0244
  941loPI   C6A14724   5.288   8.537   8.874  0.0730 -0.1464  0.2704
  941loPI   C1B14725   5.598   8.700   7.044  0.0175  0.1692 -0.2232
  941loPI   C2B14726   5.582   8.689   7.459 -0.0552  0.1438 -0.2049
  941loPI   C3B14727   5.644   8.641   7.848 -0.0950  0.2640  0.2398
  941loPI   C4B14728   5.568   8.729   8.274  0.0581 -0.1136  0.1786
  942loPI    C114729   0.293   2.624   5.869  0.0169 -0.1719  0.1055
  942loPI    C214730  -0.003   2.407   5.710  0.0153 -0.0361 -0.0799
  942loPI    C314731   0.347   2.439   5.518  0.0094  0.1390 -0.0626
  942loPI   PO414732   0.241   2.812   6.008  0.1745  0.0810 -0.0009
  942loPI   GL114733   0.430   2.824   6.348 -0.2021  0.2388  0.0145
  942loPI   GL214734   0.340   2.504   6.602  0.1406  0.0777 -0.0001
  942loPI   C1A14735   0.640   2.940   6.710 -0.1145  0.0076 -0.3477
  942loPI   C2A14736   0.529   2.856   7.091 -0.1260 -0.1579 -0.1961
  942loPI   C3A14737   0.610   2.923   7.539 -0.3421 -0.0814  0.1910
  942loPI   C4A14738   0.723   2.815   7.958 -0.0912  0.0809  0.3184
  942loPI   C5A14739   0.708   2.793   8.306  0.0006 -0.1247 -0.1842
  942loPI   C6A14740   0.495   3.008   8.608  0.2485 -0.1649 -0.0940
  942loPI   C1B14741   0.232   2.520   6.954  0.3107  0.1078  0.0720
  942loPI   C2B14742   0.190   2.512   7.459 -0.5225  0.0558 -0.1469
  942loPI   C3B14743   0.335   2.508   7.796  0.3571  0.0218 -0.0318
  942loPI   C4B14744   0.213   2.705   8.152  0.1817  0.0529 -0.2118
  943loPI    C114745   1.180  10.905   5.696  0.0016  0.0738 -0.1217
  943loPI    C214746   1.524  10.734   5.583  0.0319  0.0929 -0.0589
  943loPI    C314747   1.322  10.967   5.327  0.0411  0.0431 -0.1117
  943loPI   PO414748   1.181  10.986   6.024  0.1849 -0.1415  0.0803
  943loPI   GL114749   1.366  10.835   6.426 -0.1161  0.0638  0.0639
  943loPI   GL214750   1.008  10.841   6.561 -0.0353 -0.0952 -0.0952
  943loPI   C1A14751   1.392  10.793   6.846  0.3078  0.3544 -0.1988
  943loPI   C2A14752   1.411  10.801   7.255  0.1085 -0.0130  0.0361
  943loPI   C3A14753   1.419  10.849   7.702 -0.1742 -0.3573  0.0977
  943loPI   C4A14754   1.518  10.845   8.030 -0.2797 -0.0197 -0.0696
  943loPI   C5A14755   1.508  10.787   8.457  0.0964  0.1104 -0.1023
  943loPI   C6A14756   1.601  10.762   8.941 -0.0461 -0.1854 -0.0555
  943loPI   C1B14757   0.947  10.970   7.022 -0.1321 -0.0360  0.2548
  943loPI   C2B14758   0.834  11.019   7.479 -0.2790 -0.0816 -0.1622
  943loPI   C3B14759   0.910  10.989   7.861 -0.0124  0.2614 -0.1043
  943loPI   C4B14760   1.056  11.034   8.323  0.3520  0.3469 -0.3736
  944loPI    C114761   2.339   9.201   5.509 -0.1948  0.0472  0.0903
  944loPI    C214762   2.614   9.150   5.223 -0.1638  0.0856  0.1133
  944loPI    C314763   2.261   9.315   5.133 -0.1896  0.0115  0.0784
  944loPI   PO414764   2.539   9.205   5.710  0.0425 -0.2014  0.1360
  944loPI   GL114765   2.617   9.200   6.100 -0.0391 -0.0596 -0.0679
  944loPI   GL214766   2.950   9.033   6.226 -0.1849 -0.2268  0.2217
  944loPI   C1A14767   2.340   9.193   6.570  0.0228  0.0868 -0.0133
  944loPI   C2A14768   2.302   9.208   7.036 -0.0412  0.1496 -0.3421
  944loPI   C3A14769   2.200   9.200   7.486  0.1593 -0.0454 -0.0063
  944loPI   C4A14770   2.222   9.188   7.948  0.1089 -0.0427  0.0907
  944loPI   C5A14771   2.304   9.208   8.349  0.0404  0.2050  0.0578
  944loPI   C6A14772   2.576   9.374   8.566 -0.1588 -0.0486 -0.3304
  944loPI   C1B14773   2.820   9.054   6.576 -0.2376 -0.0474 -0.1224
  944loPI   C2B14774   2.802   9.026   7.047  0.0606  0.2095  0.0559
  944loPI   C3B14775   2.790   8.972   7.490  0.1423 -0.0775  0.3972
  944loPI   C4B14776   2.702   9.127   7.957 -0.0238  0.0890 -0.1122
  945loPI    C114777   6.086   3.806   5.528  0.2314  0.0593  0.0023
  945loPI    C214778   6.186   3.477   5.324 -0.0936 -0.0275 -0.0229
  945loPI    C314779   6.357   3.827   5.235  0.3880 -0.2166  0.1237
  945loPI   PO414780   6.186   3.701   5.797  0.2519 -0.0006  0.0531
  945loPI   GL114781   6.260   3.551   6.244 -0.2599 -0.0390  0.3079
  945loPI   GL214782   6.473   3.346   6.151  0.3315  0.0132 -0.1230
  945loPI   C1A14783   6.173   3.333   6.604  0.0296  0.2534 -0.0465
  945loPI   C2A14784   6.085   3.521   7.007 -0.0399 -0.1598  0.0824
  945loPI   C3A14785   6.109   3.420   7.420 -0.1507  0.1501 -0.1450
  945loPI   C4A14786   6.098   3.456   7.897 -0.2173  0.1468  0.0967
  945loPI   C5A14787   6.196   3.468   8.284  0.0678 -0.1374 -0.1603
  945loPI   C6A14788   6.240   3.378   8.707  0.1228 -0.0638  0.1128
  945loPI   C1B14789   6.295   2.964   6.306  0.0198 -0.1639  0.0757
  945loPI   C2B14790   6.326   2.881   6.735 -0.0301 -0.0443  0.1222
  945loPI   C3B14791   6.339   3.024   7.169 -0.1617 -0.1452  0.1487
  945loPI   C4B14792   6.363   2.998   7.609  0.1237 -0.2187 -0.2762
  946loPI    C114793  16.921   6.729   5.362 -0.0715  0.0123  0.0455
  946loPI    C214794  17.024   6.822   5.738  0.1518 -0.1562  0.0283
  946loPI    C314795  17.297   6.838   5.446  0.0961 -0.4744 -0.0442
  946loPI   PO414796  16.713   6.504   5.478 -0.0677 -0.2082 -0.2951
  946loPI   GL114797  16.714   6.514   5.983  0.2784 -0.0062 -0.2035
  946loPI   GL214798  16.537   6.404   6.285  0.1561  0.0290  0.0314
  946loPI   C1A14799  16.812   6.843   6.245 -0.1374 -0.1326 -0.1264
  946loPI   C2A14800  16.809   6.875   6.787  0.0781  0.0032  0.2076
  946loPI   C3A14801  16.774   6.835   7.189 -0.0056  0.3057  0.2473
  946loPI   C4A14802  16.760   6.897   7.600 -0.3706  0.0132 -0.2789
  946loPI   C5A14803  16.702   6.917   8.038  0.3557 -0.2176  0.1255
  946loPI   C6A14804  16.685   7.200   8.412  0.2654 -0.1983  0.0240
  946loPI   C1B14805  16.489   6.502   6.752 -0.3220  0.1063  0.1744
  946loPI   C2B14806  16.459   6.453   7.168  0.0392 -0.0656  0.0398
  946loPI   C3B14807  16.425   6.467   7.553  0.2650  0.0051  0.0248
  946loPI   C4B14808  16.370   6.458   8.029 -0.1871 -0.3534 -0.0957
  947loPI    C114809  10.738   6.140   5.695  0.1743 -0.1551  0.0883
  947loPI    C214810  10.703   6.510   5.547  0.0679 -0.1877  0.0310
  947loPI    C314811  10.892   6.227   5.337 -0.1271 -0.2469 -0.0670
  947loPI   PO414812  10.852   6.145   5.916 -0.0994 -0.2866  0.1822
  947loPI   GL114813  11.089   5.881   6.113 -0.2814  0.0821  0.1865
  947loPI   GL214814  11.041   5.546   6.205  0.2716 -0.1667 -0.1441
  947loPI   C1A14815  11.015   5.976   6.545 -0.2850 -0.0089  0.2767
  947loPI   C2A14816  11.022   5.908   6.905 -0.1688  0.0345 -0.2515
  947loPI   C3A14817  11.010   5.921   7.311  0.0040  0.0587  0.2752
  947loPI   C4A14818  11.047   5.979   7.815  0.0392 -0.1655  0.4053
  947loPI   C5A14819  11.055   6.123   8.226  0.2050  0.1240  0.0416
  947loPI   C6A14820  11.119   6.216   8.660 -0.1798 -0.0400 -0.0642
  947loPI   C1B14821  11.225   5.458   6.559 -0.0067 -0.2562  0.0363
  947loPI   C2B14822  11.114   5.408   7.026 -0.1060  0.1566 -0.2900
  947loPI   C3B14823  11.092   5.451   7.457  0.2572  0.0438 -0.2757
  947loPI   C4B14824  11.222   5.484   7.904 -0.1809 -0.2936  0.4195
  948loPI    C114825  16.654   5.529   5.618 -0.2134  0.0341 -0.2786
  948loPI    C214826  16.855   5.239   5.429 -0.0839  0.0195 -0.1203
  948loPI    C314827  16.638   5.502   5.219 -0.0398 -0.0700 -0.2795
  948loPI   PO414828  16.674   5.457   5.894  0.0395 -0.4264  0.0672
  948loPI   GL114829  16.448   5.448   6.252  0.1447 -0.0115  0.0681
  948loPI   GL214830  16.633   5.139   6.316 -0.2126 -0.0830 -0.0526
  948loPI   C1A14831  16.331   5.606   6.659  0.0235  0.0228  0.1402
  948loPI   C2A14832  16.214   5.594   7.066 -0.0776  0.0744  0.1156
  948loPI   C3A14833  16.310   5.568   7.469 -0.1161  0.2027  0.1130
  948loPI   C4A14834  16.206   5.622   7.930  0.1051 -0.1745  0.1221
  948loPI   C5A14835  16.467   5.495   8.254 -0.0631 -0.1773 -0.2154
  948loPI   C6A14836  16.822   5.266   8.305 -0.2946 -0.0509  0.0332
  948loPI   C1B14837  16.875   5.084   6.734  0.2566  0.2295 -0.2997
  948loPI   C2B14838  17.025   5.081   7.179 -0.2012  0.0456 -0.0901
  948loPI   C3B14839  16.991   4.954   7.547  0.1102  0.1275 -0.1836
  948loPI   C4B14840  17.049   4.964   7.952  0.2195 -0.3503  0.0450
  949loPI    C114841  16.105   9.665   5.699  0.0713  0.1321 -0.1649
  949loPI    C214842  16.235  10.018   5.562  0.0928  0.0660 -0.3163
  949loPI    C314843  15.957   9.814   5.358  0.0022  0.0450 -0.1734
  949loPI   PO414844  16.132   9.762   5.969  0.1005  0.0966 -0.2185
  949loPI   GL114845  16.378   9.685   6.237 -0.1931 -0.0315  0.0780
  949loPI   GL214846  16.711   9.653   6.223  0.2032 -0.1884  0.0563
  949loPI   C1A14847  16.405   9.680   6.742  0.1051 -0.1540  0.1262
  949loPI   C2A14848  16.423   9.727   7.158 -0.0483  0.1332  0.0017
  949loPI   C3A14849  16.443   9.719   7.578  0.1677 -0.3438  0.2955
  949loPI   C4A14850  16.412   9.680   8.009 -0.1605  0.2444 -0.1093
  949loPI   C5A14851  16.277   9.568   8.416  0.1054 -0.3485 -0.2539
  949loPI   C6A14852  16.264   9.527   8.826 -0.1669 -0.0795 -0.0921
  949loPI   C1B14853  16.886   9.628   6.610  0.3056 -0.1409  0.1015
  949loPI   C2B14854  16.856   9.559   7.064 -0.0721 -0.0830  0.0615
  949loPI   C3B14855  16.938   9.600   7.464 -0.1529  0.1040 -0.1230
  949loPI   C4B14856  16.893   9.554   7.961  0.0425  0.2880  0.2254
  950loPI    C114857   8.362   9.969   5.960 -0.1073  0.1303 -0.1068
  950loPI    C214858   8.181  10.288   5.801 -0.2294 -0.0011 -0.2343
  950loPI    C314859   8.475  10.105   5.601 -0.1172  0.0677 -0.1336
  950loPI   PO414860   8.322   9.995   6.247 -0.0664 -0.2363 -0.1921
  950loPI   GL114861   7.908   9.896   6.601  0.0222 -0.0404 -0.2246
  950loPI   GL214862   7.563   9.802   6.648 -0.2215  0.2162  0.0243
  950loPI   C1A14863   8.115   9.899   7.019 -0.0071  0.0212  0.1916
  950loPI   C2A14864   8.082   9.912   7.405  0.2797 -0.1463 -0.3310
  950loPI   C3A14865   8.027   9.920   7.797 -0.0782  0.0441  0.0733
  950loPI   C4A14866   8.007   9.952   8.225 -0.1436  0.2046 -0.1436
  950loPI   C5A14867   7.970  10.058   8.635 -0.0824  0.0159 -0.0290
  950loPI   C6A14868   7.968   9.883   9.148 -0.0800 -0.3429 -0.0899
  950loPI   C1B14869   7.640   9.547   6.987 -0.1655  0.3092  0.0079
  950loPI   C2B14870   7.714   9.540   7.443  0.0666 -0.2899  0.2603
  950loPI   C3B14871   7.671   9.512   7.925 -0.2212 -0.3343 -0.2339
  950loPI   C4B14872   7.666   9.592   8.361 -0.1210 -0.1530 -0.3311
  951loPI    C114873   9.825  15.480   5.826 -0.1092  0.1131  0.0254
  951loPI    C214874   9.568  15.643   5.566 -0.1863  0.1625  0.1318
  951loPI    C314875   9.962  15.694   5.516 -0.1954  0.0706 -0.0425
  951loPI   PO414876   9.724  15.595   6.062 -0.0146 -0.0325  0.2091
  951loPI   GL114877   9.532  15.533   6.407  0.0434  0.0780 -0.0373
  951loPI   GL214878   9.195  15.631   6.464  0.2177  0.0741 -0.0107
  951loPI   C1A14879   9.718  15.537   6.840  0.1942  0.1050  0.2061
  951loPI   C2A14880   9.693  15.544   7.282 -0.2726 -0.3159  0.2591
  951loPI   C3A14881   9.770  15.457   7.752 -0.1968 -0.0389  0.2161
  951loPI   C4A14882   9.793  15.425   8.081 -0.2627 -0.1215 -0.1388
  951loPI   C5A14883   9.630  15.603   8.506 -0.2602 -0.0597  0.0886
  951loPI   C6A14884   9.222  15.639   8.706 -0.0421 -0.3672 -0.0636
  951loPI   C1B14885   9.194  15.701   6.928  0.2066  0.1278 -0.4221
  951loPI   C2B14886   9.131  15.628   7.278  0.2984  0.1931 -0.0744
  951loPI   C3B14887   9.282  15.660   7.728  0.1905  0.0543 -0.1609
  951loPI   C4B14888   9.243  15.587   8.217 -0.1310  0.0716  0.1940
  952loPI    C114889   0.053  13.754   5.518  0.0781 -0.0371 -0.0848
  952loPI    C214890  -0.121  13.401   5.587  0.1598 -0.0886 -0.1410
  952loPI    C314891   0.121  13.447   5.272  0.0577  0.0500 -0.2000
  952loPI   PO414892   0.111  13.793   5.794  0.2246  0.1221  0.1418
  952loPI   GL114893   0.147  14.047   6.135 -0.0172 -0.0192 -0.0855
  952loPI   GL214894   0.293  14.014   6.352 -0.2084 -0.0098  0.0738
  952loPI   C1A14895  -0.162  14.205   6.432  0.0059  0.2029 -0.1466
  952loPI   C2A14896  -0.255  14.179   6.997 -0.0158 -0.2080 -0.1143
  952loPI   C3A14897  -0.325  14.228   7.367 -0.1059 -0.3065 -0.0739
  952loPI   C4A14898  -0.356  14.143   7.681 -0.2491  0.0563 -0.0845
  952loPI   C5A14899  -0.377  14.107   8.124 -0.2376  0.1980  0.0792
  952loPI   C6A14900  -0.438  14.277   8.528 -0.0525 -0.1748 -0.3896
  952loPI   C1B14901   0.216  14.010   6.757 -0.0474  0.1054 -0.1782
  952loPI   C2B14902   0.205  14.056   7.158 -0.0840 -0.0417 -0.0220
  952loPI   C3B14903   0.201  14.022   7.614 -0.0839  0.1856 -0.0906
  952loPI   C4B14904   0.100  13.974   8.051  0.0994  0.1311 -0.0205
  953loPI    C114905  11.981   0.987   5.631  0.0668 -0.0449  0.1895
  953loPI    C214906  11.946   0.875   5.249 -0.2157  0.1713  0.1487
  953loPI    C314907  12.251   0.740   5.469  0.0398  0.1713 -0.1969
  953loPI   PO414908  11.680   1.054   5.778  0.0166  0.1900  0.1361
  953loPI   GL114909  11.568   1.026   6.297 -0.0422  0.1433  0.0879
  953loPI   GL214910  11.384   1.268   6.285  0.1389  0.0426  0.2490
  953loPI   C1A14911  11.666   0.734   6.723 -0.0567 -0.1160  0.1493
  953loPI   C2A14912  11.695   0.757   7.131 -0.0454  0.0553 -0.1006
  953loPI   C3A14913  11.624   0.838   7.614  0.3803 -0.0387 -0.2085
  953loPI   C4A14914  11.770   0.804   8.049  0.1027  0.0140 -0.2913
  953loPI   C5A14915  11.728   0.598   8.482  0.0520 -0.1496 -0.1769
  953loPI   C6A14916  11.918   0.328   8.815  0.0261  0.1212 -0.2161
  953loPI   C1B14917  11.507   1.259   6.718  0.2360 -0.5326 -0.1369
  953loPI   C2B14918  11.599   1.229   7.161 -0.2005 -0.2797 -0.3872
  953loPI   C3B14919  11.451   1.307   7.533  0.1485  0.2532  0.1446
  953loPI   C4B14920  11.542   1.311   7.931 -0.0593  0.1098  0.2452
  954loPI    C114921  13.609   8.417   5.744  0.0778 -0.0542 -0.1595
  954loPI    C214922  13.608   8.060   5.564 -0.1932 -0.0493 -0.1729
  954loPI    C314923  13.634   8.393   5.345 -0.1662 -0.0539 -0.1767
  954loPI   PO414924  13.651   8.310   5.988 -0.1668  0.2380 -0.0774
  954loPI   GL114925  13.725   8.380   6.378 -0.1736 -0.1051  0.1796
  954loPI   GL214926  13.477   8.470   6.486 -0.1642 -0.0003 -0.0108
  954loPI   C1A14927  13.955   8.455   6.687 -0.0050 -0.2019  0.1078
  954loPI   C2A14928  13.942   8.347   7.135  0.0491 -0.0192  0.0947
  954loPI   C3A14929  14.008   8.461   7.574  0.1728  0.2155  0.2609
  954loPI   C4A14930  13.968   8.520   7.960  0.2844 -0.1509 -0.0424
  954loPI   C5A14931  13.939   8.688   8.463  0.2374  0.0446  0.0684
  954loPI   C6A14932  14.075   8.841   8.743 -0.0915  0.2371 -0.0426
  954loPI   C1B14933  13.487   8.564   6.908 -0.0823  0.0714  0.1118
  954loPI   C2B14934  13.525   8.544   7.416  0.0438 -0.0924  0.3044
  954loPI   C3B14935  13.507   8.608   7.774 -0.0707  0.3401  0.1766
  954loPI   C4B14936  13.444   8.557   8.260  0.2670 -0.1228  0.3993
  955loPI    C114937   8.295   2.870   5.650 -0.1841  0.0913 -0.0634
  955loPI    C214938   8.374   2.732   5.283 -0.0711 -0.1666  0.0557
  955loPI    C314939   8.514   3.089   5.396  0.3289 -0.3070  0.0195
  955loPI   PO414940   8.272   2.733   5.787 -0.4322  0.0689 -0.0903
  955loPI   GL114941   8.075   2.745   6.165 -0.1403 -0.2859 -0.0985
  955loPI   GL214942   8.240   2.957   6.273 -0.3157  0.1060  0.0485
  955loPI   C1A14943   7.877   2.579   6.507 -0.2739  0.2809 -0.1064
  955loPI   C2A14944   7.812   2.558   6.937 -0.1347  0.1072  0.3008
  955loPI   C3A14945   7.813   2.565   7.404  0.1120 -0.0776 -0.2071
  955loPI   C4A14946   7.724   2.581   7.835  0.0912  0.0246  0.0196
  955loPI   C5A14947   7.875   2.625   8.286 -0.0395  0.2381 -0.1272
  955loPI   C6A14948   8.170   2.857   8.535 -0.0286  0.0873 -0.0585
  955loPI   C1B14949   8.201   3.019   6.716  0.1860  0.0979 -0.0365
  955loPI   C2B14950   8.126   2.896   7.176  0.2489  0.2076  0.0241
  955loPI   C3B14951   8.183   2.922   7.651 -0.4378 -0.0389  0.1026
  955loPI   C4B14952   8.207   3.026   8.083  0.1436 -0.1910 -0.2426
  956loPI    C114953   8.739  15.545   5.552  0.1682 -0.2380  0.2827
  956loPI    C214954   9.105  15.448   5.422  0.1292  0.1906 -0.1786
  956loPI    C314955   8.783  15.343   5.210 -0.0004  0.0833  0.0663
  956loPI   PO414956   8.667  15.462   5.811  0.0980 -0.0171 -0.1100
  956loPI   GL114957   8.749  15.419   6.259  0.2403 -0.1848 -0.1937
  956loPI   GL214958   8.428  15.331   6.389  0.0517 -0.0594  0.2328
  956loPI   C1A14959   8.802  15.313   6.680 -0.1416 -0.1422 -0.2716
  956loPI   C2A14960   8.806  15.348   7.037 -0.1468  0.0486 -0.3111
  956loPI   C3A14961   8.780  15.280   7.563  0.0176  0.0618 -0.0837
  956loPI   C4A14962   8.897  15.275   7.964 -0.2166  0.3009 -0.0464
  956loPI   C5A14963   8.931  15.186   8.344  0.2749 -0.2801 -0.1237
  956loPI   C6A14964   8.901  15.269   8.811  0.2050 -0.1280  0.2078
  956loPI   C1B14965   8.376  15.393   6.883  0.0170  0.0758 -0.1296
  956loPI   C2B14966   8.243  15.431   7.374 -0.0470 -0.0755  0.1087
  956loPI   C3B14967   8.357  15.483   7.794 -0.0170  0.3252  0.1287
  956loPI   C4B14968   8.450  15.328   8.309  0.2646  0.0635 -0.2240
  957loPI    C114969   1.567   3.191   5.779 -0.1024  0.1829 -0.0124
  957loPI    C214970   1.898   3.153   5.557 -0.1056 -0.0088  0.0138
  957loPI    C314971   1.664   3.475   5.515  0.1984  0.2358  0.1505
  957loPI   PO414972   1.703   3.143   6.028  0.3081  0.3410 -0.2552
  957loPI   GL114973   1.961   3.163   6.440 -0.0233  0.3056  0.0920
  957loPI   GL214974   2.146   2.933   6.433  0.0956  0.1504  0.2050
  957loPI   C1A14975   1.910   3.011   6.872 -0.3590 -0.0541 -0.2512
  957loPI   C2A14976   1.982   3.017   7.308  0.5423  0.0562 -0.0543
  957loPI   C3A14977   1.996   3.090   7.770 -0.0812  0.1196 -0.1503
  957loPI   C4A14978   2.072   3.067   8.200 -0.0404 -0.1106 -0.1053
  957loPI   C5A14979   2.091   2.860   8.567  0.1148 -0.2524  0.1346
  957loPI   C6A14980   2.108   2.929   9.018  0.0748  0.2758  0.1999
  957loPI   C1B14981   2.449   2.878   6.846 -0.0629 -0.1640 -0.0147
  957loPI   C2B14982   2.476   2.859   7.236 -0.0797 -0.1013 -0.0351
  957loPI   C3B14983   2.443   2.924   7.632  0.0114 -0.0687  0.0787
  957loPI   C4B14984   2.504   2.894   8.009  0.0879  0.0654  0.0168
  958loPI    C114985   3.783   1.400   5.541  0.2715 -0.1872 -0.2814
  958loPI    C214986   3.908   1.732   5.358  0.0475 -0.0054 -0.1110
  958loPI    C314987   3.588   1.536   5.220 -0.0331  0.0492 -0.0026
  958loPI   PO414988   3.756   1.363   5.746 -0.0893 -0.1404  0.2377
  958loPI   GL114989   3.572   1.350   6.133  0.0259  0.0245  0.2294
  958loPI   GL214990   3.225   1.472   6.109 -0.0082  0.0625 -0.1262
  958loPI   C1A14991   3.490   1.320   6.563  0.0940 -0.2832 -0.3130
  958loPI   C2A14992   3.464   1.322   7.029  0.0609  0.1894  0.2160
  958loPI   C3A14993   3.439   1.311   7.413 -0.1662 -0.0932  0.3652
  958loPI   C4A14994   3.487   1.246   7.904  0.1233 -0.0644 -0.1131
  958loPI   C5A14995   3.532   0.911   8.057 -0.0585  0.1720 -0.1230
  958loPI   C6A14996   3.517   0.493   8.398 -0.3226 -0.2863 -0.1191
  958loPI   C1B14997   3.002   1.502   6.535 -0.1534 -0.0899 -0.0777
  958loPI   C2B14998   2.986   1.446   7.029 -0.1711  0.0333  0.0811
  958loPI   C3B14999   2.917   1.382   7.528 -0.2509 -0.2691 -0.0167
  958loPI   C4B15000   3.068   1.421   8.045  0.1989  0.1613 -0.1455
  959loPI    C115001   4.642  14.884   5.711  0.0485 -0.0358 -0.0601
  959loPI    C215002   4.770  15.129   5.422  0.2682  0.0775  0.1298
  959loPI    C315003   4.547  14.810   5.330  0.2792  0.1496 -0.1563
  959loPI   PO415004   4.667  15.037   5.890  0.3776 -0.1128 -0.0616
  959loPI   GL115005   4.733  15.305   6.236  0.2875 -0.1577  0.3664
  959loPI   GL215006   4.691  15.073   6.369 -0.1459  0.1489 -0.1657
  959loPI   C1A15007   4.529  15.413   6.702 -0.0174 -0.2003 -0.0215
  959loPI   C2A15008   4.521  15.386   7.124 -0.0852 -0.2762  0.1314
  959loPI   C3A15009   4.542  15.381   7.592  0.0705  0.2238 -0.1407
  959loPI   C4A15010   4.672  15.479   7.962  0.0706 -0.4442  0.0378
  959loPI   C5A15011   4.707  15.446   8.367  0.0075 -0.0506 -0.1710
  959loPI   C6A15012   4.554  15.371   8.798  0.5346 -0.0518 -0.0394
  959loPI   C1B15013   4.676  14.935   6.795 -0.2313 -0.2099  0.3339
  959loPI   C2B15014   4.730  14.936   7.237 -0.1629  0.1824 -0.0035
  959loPI   C3B15015   4.731  14.890   7.668  0.1159  0.0966 -0.1272
  959loPI   C4B15016   4.843  14.926   8.111  0.3044  0.1570  0.0372
  960loPI    C115017   2.885   8.317   5.598  0.0449  0.0067  0.1188
  960loPI    C215018   2.599   8.039   5.562 -0.0119  0.0752  0.0369
  960loPI    C315019   2.669   8.294   5.262  0.2392 -0.0397 -0.0047
  960loPI   PO415020   2.853   8.321   5.923  0.0984 -0.0456 -0.3697
  960loPI   GL115021   2.905   8.259   6.343  0.1168 -0.4735 -0.1050
  960loPI   GL215022   2.847   8.569   6.412  0.3151 -0.4638  0.0370
  960loPI   C1A15023   3.028   8.019   6.645  0.0824  0.1541  0.0711
  960loPI   C2A15024   3.039   7.916   7.095 -0.1866  0.0021  0.2792
  960loPI   C3A15025   3.019   7.987   7.533 -0.4014 -0.1531 -0.1420
  960loPI   C4A15026   3.041   7.991   7.973 -0.3289 -0.3470 -0.2945
  960loPI   C5A15027   3.066   8.001   8.395 -0.0277  0.0887  0.1905
  960loPI   C6A15028   2.669   8.055   8.703  0.0362 -0.0265 -0.1343
  960loPI   C1B15029   2.855   8.498   6.810 -0.1521  0.2578  0.2335
  960loPI   C2B15030   2.944   8.442   7.144 -0.1001  0.2705 -0.2658
  960loPI   C3B15031   3.021   8.537   7.619 -0.0682 -0.1281 -0.0961
  960loPI   C4B15032   2.887   8.586   8.039 -0.1413 -0.1126  0.1141
  961loPI    C115033   5.717  13.883   5.824  0.1928 -0.0404  0.2065
  961loPI    C215034   6.001  13.668   5.642  0.0668 -0.1604  0.1494
  961loPI    C315035   5.969  14.060   5.569 -0.1329 -0.2512 -0.2764
  961loPI   PO415036   5.731  13.800   6.057  0.2351  0.0663  0.2828
  961loPI   GL115037   5.581  13.864   6.435 -0.1945 -0.2372  0.1252
  961loPI   GL215038   5.940  13.773   6.506  0.1098 -0.0408 -0.0623
  961loPI   C1A15039   5.623  13.891   6.879  0.0231  0.3819  0.1862
  961loPI   C2A15040   5.641  13.851   7.296 -0.0555  0.3939  0.2008
  961loPI   C3A15041   5.537  13.848   7.744 -0.0991  0.1787 -0.1096
  961loPI   C4A15042   5.600  13.839   8.235  0.0319  0.0191  0.1552
  961loPI   C5A15043   5.770  13.484   8.491  0.1238 -0.2648  0.2351
  961loPI   C6A15044   6.061  13.434   8.849  0.0584  0.1125  0.0676
  961loPI   C1B15045   6.068  13.701   6.905 -0.2923  0.1730  0.0812
  961loPI   C2B15046   6.126  13.720   7.366  0.0232  0.0670 -0.2613
  961loPI   C3B15047   6.110  13.669   7.769  0.1578  0.0675 -0.0757
  961loPI   C4B15048   6.096  13.750   8.148  0.0025  0.0406 -0.0462
  962loPI    C115049  16.649   9.308   5.411 -0.1759 -0.1860 -0.1436
  962loPI    C215050  16.277   9.263   5.549 -0.1497  0.0655  0.0152
  962loPI    C315051  16.360   9.558   5.293 -0.1637 -0.2995 -0.4229
  962loPI   PO415052  16.799   9.272   5.633 -0.3375  0.1653  0.0891
  962loPI   GL115053  16.641   9.199   5.999 -0.1299  0.0506 -0.0183
  962loPI   GL215054  16.912   9.120   6.136 -0.0142 -0.4425  0.2812
  962loPI   C1A15055  16.520   9.263   6.484 -0.0478 -0.1078  0.0562
  962loPI   C2A15056  16.551   9.257   6.880  0.2047  0.0992 -0.1672
  962loPI   C3A15057  16.562   9.268   7.318  0.3258  0.1088 -0.3305
  962loPI   C4A15058  16.571   9.237   7.771  0.2187  0.1444  0.1897
  962loPI   C5A15059  16.675   9.145   8.145  0.1845 -0.0058  0.0049
  962loPI   C6A15060  17.024   9.028   8.393 -0.0714 -0.1039  0.0915
  962loPI   C1B15061  17.017   9.142   6.516  0.1213  0.1083 -0.1149
  962loPI   C2B15062  17.065   9.127   6.917 -0.2383 -0.1636  0.2639
  962loPI   C3B15063  17.045   9.059   7.320 -0.1979  0.0901  0.2523
  962loPI   C4B15064  16.972   9.040   7.793  0.1494 -0.3235 -0.1390
  963loPI    C115065   4.817  17.477   5.471 -0.0089 -0.1629  0.1849
  963loPI    C215066   4.483  17.371   5.279 -0.0143  0.0192  0.0913
  963loPI    C315067   4.827  17.409   5.077  0.0358 -0.0416  0.1645
  963loPI   PO415068   4.807  17.405   5.682 -0.2535 -0.0600 -0.2670
  963loPI   GL115069   4.550  17.551   6.146 -0.2579 -0.0417  0.3762
  963loPI   GL215070   4.436  17.245   6.273 -0.2558  0.0371  0.1448
  963loPI   C1A15071   4.782  17.585   6.461  0.3351 -0.1446 -0.3711
  963loPI   C2A15072   4.864  17.517   6.853 -0.0573  0.0310  0.0328
  963loPI   C3A15073   4.832  17.571   7.293 -0.0927  0.2212  0.1565
  963loPI   C4A15074   4.745  17.636   7.781 -0.1049  0.2760 -0.0513
  963loPI   C5A15075   4.883  17.605   8.203  0.0771  0.2838  0.1068
  963loPI   C6A15076   4.763  17.408   8.554 -0.1796 -0.0750 -0.1641
  963loPI   C1B15077   4.487  17.226   6.726  0.3970  0.0148 -0.2427
  963loPI   C2B15078   4.575  17.162   7.125 -0.2059 -0.0589  0.1099
  963loPI   C3B15079   4.526  17.229   7.508 -0.0840 -0.0537  0.2211
  963loPI   C4B15080   4.451  17.281   7.931  0.0512  0.0931 -0.1245
  964loPI    C115081   8.095  11.702   5.816 -0.0302  0.0811  0.1256
  964loPI    C215082   8.157  11.952   5.510  0.1357  0.0559  0.1376
  964loPI    C315083   8.065  11.569   5.439 -0.3056  0.1597  0.1172
  964loPI   PO415084   8.245  11.828   6.052  0.2395  0.4017  0.1285
  964loPI   GL115085   8.613  11.774   6.302 -0.0489  0.0561 -0.0059
  964loPI   GL215086   8.442  11.654   6.468  0.0498  0.3997 -0.3119
  964loPI   C1A15087   8.730  12.024   6.549  0.0077 -0.1588 -0.0784
  964loPI   C2A15088   8.851  12.039   7.007  0.2768 -0.3273 -0.0395
  964loPI   C3A15089   8.774  12.024   7.385  0.0293 -0.1383 -0.1197
  964loPI   C4A15090   8.831  12.041   7.761  0.0438 -0.0126  0.0288
  964loPI   C5A15091   8.820  12.062   8.246  0.2711 -0.2622  0.2063
  964loPI   C6A15092   8.692  12.214   8.645 -0.0294  0.2972 -0.0150
  964loPI   C1B15093   8.455  11.734   6.868  0.0347  0.1794 -0.0492
  964loPI   C2B15094   8.436  11.659   7.250  0.1042  0.2080 -0.0382
  964loPI   C3B15095   8.415  11.766   7.603  0.1944 -0.0139 -0.0771
  964loPI   C4B15096   8.426  11.675   8.042  0.2235 -0.2086  0.0325
  965loPI    C115097  11.415   4.259   5.898 -0.0075  0.0482 -0.1223
  965loPI    C215098  11.091   4.279   5.664 -0.0374 -0.3137 -0.1178
  965loPI    C315099  11.431   4.124   5.522  0.0873 -0.0892 -0.0699
  965loPI   PO415100  11.387   4.503   6.079 -0.0017 -0.1753  0.0305
  965loPI   GL115101  11.330   4.405   6.551 -0.2660 -0.0854 -0.2896
  965loPI   GL215102  11.043   4.603   6.486  0.0391 -0.0467  0.1541
  965loPI   C1A15103  11.321   4.483   6.938  0.0274  0.0973  0.0423
  965loPI   C2A15104  11.344   4.388   7.286 -0.0221 -0.1492  0.2294
  965loPI   C3A15105  11.480   4.513   7.651 -0.0334  0.0228 -0.2130
  965loPI   C4A15106  11.493   4.536   8.065  0.2188  0.2535  0.0153
  965loPI   C5A15107  11.373   4.590   8.396  0.3797 -0.0930  0.0732
  965loPI   C6A15108  11.412   4.491   8.822 -0.1531 -0.1374 -0.2469
  965loPI   C1B15109  10.824   4.578   6.781 -0.2412  0.1887  0.0536
  965loPI   C2B15110  10.901   4.542   7.209  0.1894 -0.0974 -0.0278
  965loPI   C3B15111  10.996   4.608   7.685  0.0506  0.1287 -0.1175
  965loPI   C4B15112  10.927   4.618   8.097 -0.0799  0.2823  0.1072
  966loPI    C115113   2.124   2.257   5.709 -0.0200  0.0223 -0.1126
  966loPI    C215114   2.501   2.202   5.587  0.0512  0.2397  0.0047
  966loPI    C315115   2.202   2.199   5.321  0.1055 -0.1845 -0.0582
  966loPI   PO415116   2.089   2.087   5.950  0.0091  0.0161  0.1083
  966loPI   GL115117   2.106   2.172   6.354  0.2680 -0.0664 -0.1304
  966loPI   GL215118   1.763   2.204   6.503  0.1233 -0.2788  0.2744
  966loPI   C1A15119   2.251   2.031   6.691  0.3657 -0.2776  0.0936
  966loPI   C2A15120   2.288   1.993   7.163  0.0834 -0.1683 -0.0634
  966loPI   C3A15121   2.303   2.049   7.605 -0.2640 -0.0944 -0.0066
  966loPI   C4A15122   2.352   2.032   7.986  0.0399  0.1358 -0.1177
  966loPI   C5A15123   2.307   1.749   8.351 -0.0036 -0.0394  0.1797
  966loPI   C6A15124   2.614   1.587   8.658 -0.2880 -0.1439 -0.2711
  966loPI   C1B15125   1.851   2.133   6.952 -0.1895 -0.1818  0.2979
  966loPI   C2B15126   1.770   2.167   7.437 -0.1346  0.0754 -0.2038
  966loPI   C3B15127   1.858   2.193   7.901 -0.0072  0.1994 -0.0696
  966loPI   C4B15128   1.843   1.984   8.263  0.1434  0.2649  0.0584
  967loPI    C115129   0.704  11.154   5.746 -0.1247  0.2448 -0.0509
  967loPI    C215130   0.435  11.091   5.457  0.0087 -0.1032 -0.1047
  967loPI    C315131   0.824  11.105   5.368  0.0377 -0.0224  0.0321
  967loPI   PO415132   0.589  11.310   5.908 -0.3613 -0.0330  0.0997
  967loPI   GL115133   0.790  11.465   6.303  0.1758 -0.0702 -0.0193
  967loPI   GL215134   1.092  11.343   6.368 -0.1912 -0.0601 -0.4612
  967loPI   C1A15135   0.833  11.467   6.790  0.1658  0.1923  0.0643
  967loPI   C2A15136   0.759  11.472   7.150 -0.4088  0.1799 -0.0233
  967loPI   C3A15137   0.646  11.492   7.619  0.1439 -0.1675 -0.0092
  967loPI   C4A15138   0.752  11.398   8.123  0.0587  0.0292 -0.1991
  967loPI   C5A15139   0.521  11.073   8.374  0.0974  0.1008 -0.0829
  967loPI   C6A15140   0.087  11.072   8.614 -0.1143  0.0823 -0.2763
  967loPI   C1B15141   1.304  11.296   6.688 -0.3097  0.1836 -0.1480
  967loPI   C2B15142   1.250  11.317   7.120  0.3876 -0.1661  0.2336
  967loPI   C3B15143   1.179  11.351   7.520 -0.1251 -0.0832  0.0164
  967loPI   C4B15144   1.186  11.327   7.911 -0.1815 -0.1239  0.2538
  968loPI    C115145   0.608  14.752   5.824  0.1200 -0.1332 -0.1162
  968loPI    C215146   0.730  14.825   5.450 -0.0590 -0.0965 -0.1683
  968loPI    C315147   0.372  14.659   5.514 -0.1665  0.1917 -0.0019
  968loPI   PO415148   0.708  14.898   5.957 -0.0746  0.2167  0.1628
  968loPI   GL115149   0.856  14.759   6.338 -0.1910 -0.2090  0.1243
  968loPI   GL215150   0.562  14.734   6.361  0.1044 -0.2872  0.2165
  968loPI   C1A15151   0.956  14.784   6.723 -0.1362 -0.4051 -0.1366
  968loPI   C2A15152   0.925  14.752   7.160  0.0135  0.1323  0.3406
  968loPI   C3A15153   0.894  14.772   7.524 -0.1530 -0.2359 -0.1537
  968loPI   C4A15154   0.856  14.826   7.938  0.2006  0.0534  0.1530
  968loPI   C5A15155   0.773  14.814   8.402 -0.0701 -0.0969 -0.1408
  968loPI   C6A15156   0.703  15.035   8.762  0.0860  0.2216 -0.2427
  968loPI   C1B15157   0.499  14.912   6.692  0.2120  0.0572  0.1131
  968loPI   C2B15158   0.454  14.842   7.108 -0.2523  0.2252  0.0978
  968loPI   C3B15159   0.382  14.906   7.597  0.1200  0.1275  0.3689
  968loPI   C4B15160   0.381  14.954   8.055  0.0920  0.2269  0.2968
  969loPI    C115161   8.253   9.083   6.146  0.2238 -0.2139 -0.0090
  969loPI    C215162   8.059   8.757   6.022 -0.0044 -0.0447 -0.1031
  969loPI    C315163   8.263   8.980   5.760 -0.0585  0.0270 -0.0846
  969loPI   PO415164   8.331   9.044   6.341 -0.2472  0.1563  0.1602
  969loPI   GL115165   8.265   8.893   6.725 -0.1240 -0.1533  0.3103
  969loPI   GL215166   8.121   8.572   6.548  0.0951  0.1645  0.1985
  969loPI   C1A15167   8.268   8.828   7.212  0.2770  0.1325  0.4746
  969loPI   C2A15168   8.298   8.851   7.679 -0.2023 -0.1352  0.0907
  969loPI   C3A15169   8.357   8.967   8.021  0.0690  0.0632 -0.0419
  969loPI   C4A15170   8.251   9.042   8.376 -0.0579  0.1148  0.1729
  969loPI   C5A15171   8.514   9.155   8.794  0.2582 -0.3970 -0.1518
  969loPI   C6A15172   8.974   9.156   8.718 -0.0349  0.1386 -0.0156
  969loPI   C1B15173   7.955   8.485   6.976 -0.0941  0.2319 -0.0494
  969loPI   C2B15174   7.961   8.509   7.492 -0.0263 -0.0520  0.1602
  969loPI   C3B15175   7.945   8.526   7.867  0.1827 -0.0777  0.1725
  969loPI   C4B15176   7.902   8.664   8.214  0.0189  0.2210  0.0034
  970loPI    C115177  15.115  16.646   5.709  0.1209 -0.0160 -0.0821
  970loPI    C215178  14.786  16.735   5.499  0.1173  0.1519 -0.0067
  970loPI    C315179  15.144  16.740   5.321  0.0724 -0.1070 -0.1081
  970loPI   PO415180  14.953  16.668   5.962 -0.0045  0.0938  0.0865
  970loPI   GL115181  15.052  16.531   6.336 -0.0294  0.0206  0.1605
  970loPI   GL215182  15.006  16.854   6.394 -0.2759 -0.2944  0.1680
  970loPI   C1A15183  15.022  16.542   6.749  0.2067 -0.1516 -0.0035
  970loPI   C2A15184  15.099  16.567   7.171  0.0644  0.1394 -0.1690
  970loPI   C3A15185  15.124  16.563   7.605  0.0514  0.1797 -0.2940
  970loPI   C4A15186  14.945  16.567   7.996 -0.2348 -0.1226 -0.0214
  970loPI   C5A15187  15.056  16.332   8.250  0.0440 -0.2322 -0.1225
  970loPI   C6A15188  15.102  15.916   8.309 -0.2248  0.2003  0.2356
  970loPI   C1B15189  15.011  17.019   6.801 -0.0009 -0.1814 -0.4441
  970loPI   C2B15190  14.854  17.068   7.196  0.0267 -0.1938  0.1348
  970loPI   C3B15191  14.834  17.005   7.622  0.3111  0.0920 -0.0046
  970loPI   C4B15192  14.793  17.054   8.081  0.3220  0.1262 -0.1001
  971loPI    C115193  11.922  17.026   5.522 -0.1276 -0.0254 -0.0662
  971loPI    C215194  11.678  17.231   5.281 -0.2738  0.0280  0.1258
  971loPI    C315195  11.951  16.985   5.125 -0.4926 -0.0823 -0.0905
  971loPI   PO415196  11.818  16.905   5.705  0.2918  0.0655  0.0678
  971loPI   GL115197  11.727  17.051   6.135 -0.1166 -0.0343 -0.2145
  971loPI   GL215198  12.002  17.219   6.375  0.1564  0.6201 -0.1655
  971loPI   C1A15199  11.562  16.912   6.569  0.3523  0.0952 -0.0197
  971loPI   C2A15200  11.591  16.870   7.045  0.0781  0.0294  0.1317
  971loPI   C3A15201  11.676  16.909   7.477 -0.0056  0.3642  0.0005
  971loPI   C4A15202  11.689  16.928   7.975 -0.0171  0.4721 -0.0316
  971loPI   C5A15203  11.563  17.059   8.362  0.0674  0.1478  0.0210
  971loPI   C6A15204  11.720  17.360   8.737  0.0193  0.1041  0.0994
  971loPI   C1B15205  11.931  17.208   6.839  0.0923 -0.1254  0.0527
  971loPI   C2B15206  11.993  17.253   7.265  0.0488 -0.1219 -0.0793
  971loPI   C3B15207  11.967  17.328   7.696 -0.0151 -0.0201 -0.0291
  971loPI   C4B15208  11.996  17.291   8.179  0.1482  0.1820  0.0137
  972loPI    C115209  11.969   6.982   5.828  0.3868  0.1164 -0.1214
  972loPI    C215210  12.336   6.942   5.981  0.3114 -0.2446 -0.0265
  972loPI    C315211  12.251   6.789   5.622  0.2596 -0.1393 -0.0595
  972loPI   PO415212  11.865   7.189   6.043  0.3968  0.1031 -0.3326
  972loPI   GL115213  11.853   7.097   6.408 -0.3775 -0.3596 -0.1932
  972loPI   GL215214  12.232   7.143   6.441  0.2276 -0.3988  0.0046
  972loPI   C1A15215  11.569   7.089   6.852 -0.1822  0.0801 -0.0185
  972loPI   C2A15216  11.636   7.128   7.319  0.2736  0.0738 -0.0430
  972loPI   C3A15217  11.596   7.233   7.797 -0.1855 -0.0035  0.0517
  972loPI   C4A15218  11.593   7.366   8.207 -0.0505 -0.0143 -0.0359
  972loPI   C5A15219  11.559   7.143   8.564  0.0582 -0.0929  0.0996
  972loPI   C6A15220  11.600   7.211   9.024 -0.1053  0.1029 -0.0215
  972loPI   C1B15221  12.133   7.046   6.836 -0.2362  0.0054 -0.0525
  972loPI   C2B15222  12.120   7.038   7.253 -0.1096  0.2511  0.0496
  972loPI   C3B15223  12.077   7.080   7.715 -0.1337 -0.1667 -0.3937
  972loPI   C4B15224  12.037   7.083   8.111 -0.1733 -0.1314  0.1278
  973loPI    C115225   8.549  14.426   5.676 -0.1561  0.5092 -0.0987
  973loPI    C215226   8.376  14.589   5.355 -0.1646  0.0139 -0.3544
  973loPI    C315227   8.692  14.348   5.311 -0.2037 -0.1090  0.0043
  973loPI   PO415228   8.576  14.574   5.848 -0.2583  0.2013 -0.0369
  973loPI   GL115229   8.632  14.616   6.331 -0.1057 -0.2481 -0.0318
  973loPI   GL215230   8.620  14.365   6.414  0.1221 -0.2474 -0.0648
  973loPI   C1A15231   8.520  14.903   6.671  0.3077  0.1177  0.0080
  973loPI   C2A15232   8.417  14.933   7.090 -0.2060 -0.1342  0.1299
  973loPI   C3A15233   8.403  14.998   7.582 -0.2958 -0.1867 -0.0342
  973loPI   C4A15234   8.515  14.927   7.959  0.2448  0.2266 -0.1348
  973loPI   C5A15235   8.430  14.843   8.374  0.0309 -0.0254  0.0942
  973loPI   C6A15236   8.057  14.894   8.571  0.0105  0.2082 -0.0969
  973loPI   C1B15237   8.630  14.489   6.877 -0.2197  0.2630 -0.1869
  973loPI   C2B15238   8.681  14.574   7.277 -0.1770  0.0112 -0.2303
  973loPI   C3B15239   8.640  14.467   7.703 -0.3041 -0.0144  0.2239
  973loPI   C4B15240   8.523  14.426   8.091 -0.0009  0.3693  0.2793
  974loPI    C115241   6.639   7.686   5.552  0.2875  0.2078  0.0788
  974loPI    C215242   6.799   8.043   5.473  0.1410  0.1804 -0.3679
  974loPI    C315243   6.911   7.723   5.262  0.2703 -0.0418  0.0285
  974loPI   PO415244   6.490   7.825   5.845 -0.2878 -0.0064 -0.1021
  974loPI   GL115245   6.665   7.774   6.266  0.0565  0.0050  0.3812
  974loPI   GL215246   6.542   7.911   6.499 -0.1693 -0.1307  0.1522
  974loPI   C1A15247   6.751   7.423   6.608  0.0944 -0.0732 -0.1409
  974loPI   C2A15248   6.779   7.421   6.945  0.0972 -0.0370  0.0225
  974loPI   C3A15249   6.925   7.506   7.329  0.0843  0.1157  0.1076
  974loPI   C4A15250   6.839   7.411   7.782  0.2196 -0.1967 -0.1830
  974loPI   C5A15251   6.972   7.406   8.177 -0.0277 -0.1946  0.2335
  974loPI   C6A15252   7.077   7.577   8.623 -0.1670 -0.1322  0.0216
  974loPI   C1B15253   6.655   7.992   6.867  0.2187  0.0246 -0.2701
  974loPI   C2B15254   6.732   7.958   7.305 -0.0100 -0.0937 -0.1249
  974loPI   C3B15255   6.700   7.932   7.695 -0.1454  0.1385 -0.0252
  974loPI   C4B15256   6.821   7.887   8.152 -0.2810 -0.1207  0.2484
  975loPI    C115257   2.526   5.527   5.715  0.0498 -0.1189 -0.3144
  975loPI    C215258   2.269   5.814   5.608  0.1524  0.0669 -0.0729
  975loPI    C315259   2.636   5.806   5.450  0.1868  0.1356  0.0027
  975loPI   PO415260   2.543   5.525   5.907  0.0564  0.0821  0.2385
  975loPI   GL115261   2.455   5.567   6.338 -0.0188 -0.0370  0.1747
  975loPI   GL215262   2.340   5.386   6.593  0.1759 -0.2242  0.2571
  975loPI   C1A15263   2.690   5.718   6.618 -0.1695 -0.1643  0.0911
  975loPI   C2A15264   2.639   5.819   7.069 -0.1323  0.1107  0.2658
  975loPI   C3A15265   2.581   5.706   7.454 -0.3462 -0.2793  0.1212
  975loPI   C4A15266   2.644   5.738   7.927 -0.0008 -0.0669 -0.0265
  975loPI   C5A15267   2.364   5.653   8.311  0.3200  0.3989  0.0078
  975loPI   C6A15268   2.497   5.366   8.712  0.0119  0.0022  0.0075
  975loPI   C1B15269   2.273   5.354   7.013  0.2642 -0.0561  0.2393
  975loPI   C2B15270   2.261   5.325   7.422 -0.0187  0.0884 -0.1885
  975loPI   C3B15271   2.174   5.286   7.823  0.1912  0.2286 -0.1143
  975loPI   C4B15272   2.239   5.123   8.302  0.0752 -0.1954 -0.0534
  976loPI    C115273  16.724  14.984   5.582  0.1897 -0.0040  0.0546
  976loPI    C215274  16.869  15.353   5.528  0.0275  0.0537  0.0088
  976loPI    C315275  16.556  15.228   5.314  0.1169 -0.1313 -0.0161
  976loPI   PO415276  16.743  15.006   5.882  0.0772 -0.0413 -0.1483
  976loPI   GL115277  16.917  15.023   6.249 -0.3335 -0.2325  0.0702
  976loPI   GL215278  16.992  14.621   6.175  0.0224 -0.1751 -0.0170
  976loPI   C1A15279  16.965  15.086   6.764  0.3318 -0.0350 -0.0965
  976loPI   C2A15280  16.843  15.176   7.140 -0.3373 -0.2019 -0.2468
  976loPI   C3A15281  16.878  15.261   7.519 -0.0234 -0.0258 -0.2554
  976loPI   C4A15282  16.877  15.044   7.900 -0.3949 -0.1180  0.0111
  976loPI   C5A15283  16.848  15.067   8.386 -0.2024  0.0258  0.1601
  976loPI   C6A15284  16.911  15.049   8.851 -0.0488 -0.0436  0.3794
  976loPI   C1B15285  17.154  14.590   6.623 -0.2564 -0.1525 -0.0373
  976loPI   C2B15286  17.030  14.667   7.102  0.0761 -0.3249  0.2002
  976loPI   C3B15287  17.075  14.691   7.547  0.1358  0.1919  0.1176
  976loPI   C4B15288  17.076  14.625   7.998  0.1796  0.1570  0.0281
  977loPI    C115289   5.154  14.956   6.060 -0.0070  0.0649 -0.2211
  977loPI    C215290   5.146  14.885   5.667  0.1450 -0.0591 -0.2028
  977loPI    C315291   5.010  14.609   5.922 -0.1652  0.1126 -0.1778
  977loPI   PO415292   5.436  15.132   5.986  0.0417  0.0410  0.0973
  977loPI   GL115293   5.580  15.311   6.312 -0.0926 -0.0031  0.1127
  977loPI   GL215294   5.200  15.420   6.286  0.0458 -0.1289 -0.0682
  977loPI   C1A15295   5.701  15.190   6.753 -0.0560  0.1623 -0.0597
  977loPI   C2A15296   5.717  15.162   7.157  0.2526  0.2001  0.0379
  977loPI   C3A15297   5.695  15.161   7.576 -0.2083  0.0227  0.1950
  977loPI   C4A15298   5.605  15.173   7.994 -0.0054 -0.0431  0.0148
  977loPI   C5A15299   5.360  14.880   8.202  0.1493 -0.1348 -0.2732
  977loPI   C6A15300   5.535  14.959   8.684  0.1951 -0.4988 -0.1100
  977loPI   C1B15301   5.047  15.260   6.658  0.2563 -0.0677  0.4568
  977loPI   C2B15302   5.127  15.275   7.110 -0.1004 -0.0432 -0.1126
  977loPI   C3B15303   5.091  15.252   7.519  0.0608 -0.2710 -0.1564
  977loPI   C4B15304   5.109  15.298   7.904 -0.0610 -0.2163 -0.0953
  978loPI    C115305  11.585   8.156   5.972 -0.0462 -0.1722  0.0623
  978loPI    C215306  11.204   8.261   5.906  0.0664  0.0381 -0.2809
  978loPI    C315307  11.397   8.031   5.642  0.2204  0.0463 -0.1774
  978loPI   PO415308  11.602   8.070   6.209 -0.2198  0.0443  0.1090
  978loPI   GL115309  11.784   7.852   6.407 -0.2294  0.1289  0.1046
  978loPI   GL215310  11.895   7.520   6.613  0.0877 -0.0935 -0.1746
  978loPI   C1A15311  11.823   7.990   6.814  0.0141 -0.1058  0.0807
  978loPI   C2A15312  11.878   7.984   7.195  0.3040 -0.0693  0.1165
  978loPI   C3A15313  11.834   8.018   7.635 -0.1441 -0.0769 -0.1278
  978loPI   C4A15314  11.801   8.112   8.070  0.1447  0.1432 -0.2943
  978loPI   C5A15315  11.669   8.169   8.533  0.0454  0.1989  0.2019
  978loPI   C6A15316  11.729   8.308   8.997 -0.0630  0.1717  0.1081
  978loPI   C1B15317  12.000   7.478   7.094  0.1163 -0.1120  0.1062
  978loPI   C2B15318  12.028   7.564   7.555  0.1926  0.1534  0.0389
  978loPI   C3B15319  11.955   7.629   7.920 -0.0161 -0.0333  0.2195
  978loPI   C4B15320  11.997   7.656   8.385  0.0424  0.1773  0.2194
  979loPI    C115321   2.419  11.505   5.701 -0.0714 -0.0441 -0.2424
  979loPI    C215322   2.690  11.265   5.530 -0.1241 -0.2257 -0.0740
  979loPI    C315323   2.633  11.635   5.389  0.0733 -0.2543 -0.2325
  979loPI   PO415324   2.424  11.546   5.952  0.1124  0.1563 -0.1371
  979loPI   GL115325   2.636  11.580   6.312  0.0606 -0.1733 -0.0812
  979loPI   GL215326   2.605  11.324   6.536 -0.2073  0.1537  0.1779
  979loPI   C1A15327   2.529  11.829   6.672 -0.3788 -0.0675  0.0507
  979loPI   C2A15328   2.460  11.851   7.178  0.1664  0.2205 -0.1241
  979loPI   C3A15329   2.473  11.851   7.636 -0.1403  0.3078 -0.1292
  979loPI   C4A15330   2.474  11.833   8.129  0.0235  0.3066  0.2284
  979loPI   C5A15331   2.557  11.689   8.636 -0.3034 -0.0135  0.2425
  979loPI   C6A15332   2.724  11.362   8.872  0.2509  0.1857 -0.0977
  979loPI   C1B15333   2.624  11.420   6.925 -0.0177  0.0626 -0.2871
  979loPI   C2B15334   2.594  11.364   7.391 -0.1142  0.1301 -0.0816
  979loPI   C3B15335   2.548  11.439   7.890 -0.0775  0.2223 -0.1029
  979loPI   C4B15336   2.649  11.324   8.291  0.0194  0.2416 -0.0278
  980loPI    C115337   8.673   0.248   5.942 -0.1781 -0.0774  0.0172
  980loPI    C215338   8.445   0.173   5.622  0.0282  0.1096 -0.1776
  980loPI    C315339   8.825   0.050   5.629  0.0137  0.0733  0.0133
  980loPI   PO415340   8.595   0.500   6.032  0.0288  0.0231 -0.0256
  980loPI   GL115341   8.254   0.681   6.300  0.0785 -0.1117  0.2516
  980loPI   GL215342   7.998   0.590   6.278  0.0613 -0.4295  0.2934
  980loPI   C1A15343   8.403   0.600   6.701  0.0355  0.0880 -0.1991
  980loPI   C2A15344   8.447   0.626   7.220 -0.0291  0.0719 -0.0041
  980loPI   C3A15345   8.505   0.553   7.662 -0.1705 -0.0463  0.2702
  980loPI   C4A15346   8.525   0.634   7.996 -0.0702  0.1242 -0.1451
  980loPI   C5A15347   8.498   0.492   8.287 -0.2237 -0.0100 -0.1368
  980loPI   C6A15348   8.444   0.363   8.718  0.1137 -0.0829  0.4543
  980loPI   C1B15349   7.854   0.753   6.755 -0.1278 -0.2655  0.3135
  980loPI   C2B15350   7.862   0.709   7.213  0.2837 -0.1440 -0.0106
  980loPI   C3B15351   8.040   0.655   7.665 -0.0045  0.0178  0.0040
  980loPI   C4B15352   7.990   0.751   8.070 -0.2934  0.1065  0.0724
  981loPI    C115353   9.084   1.203   5.897  0.2531 -0.1256 -0.0976
  981loPI    C215354   9.098   1.010   5.547 -0.0640  0.0369 -0.2040
  981loPI    C315355   8.907   1.360   5.575  0.0228  0.0623  0.1161
  981loPI   PO415356   9.333   1.205   6.061  0.1110  0.0640 -0.1239
  981loPI   GL115357   9.527   1.423   6.471 -0.1440 -0.1663  0.2417
  981loPI   GL215358   9.565   1.802   6.514  0.0171  0.1051  0.0712
  981loPI   C1A15359   9.649   1.183   6.835  0.0713 -0.1186  0.0022
  981loPI   C2A15360   9.681   1.200   7.290  0.0222 -0.1099 -0.0331
  981loPI   C3A15361   9.695   1.280   7.695 -0.2577 -0.0732  0.2755
  981loPI   C4A15362   9.682   1.303   8.102 -0.3069 -0.0609  0.1348
  981loPI   C5A15363   9.544   1.270   8.533 -0.0408  0.0522  0.0101
  981loPI   C6A15364   9.577   0.847   8.805 -0.0992 -0.0458 -0.0080
  981loPI   C1B15365   9.417   1.665   6.934  0.3013 -0.1338 -0.4082
  981loPI   C2B15366   9.532   1.660   7.370  0.1075 -0.1698  0.1701
  981loPI   C3B15367   9.511   1.713   7.817 -0.3593 -0.2121  0.1950
  981loPI   C4B15368   9.487   1.718   8.202  0.0847 -0.2808 -0.1529
  982loPI    C115369  11.352   2.498   5.769 -0.1557 -0.3190 -0.0293
  982loPI    C215370  11.467   2.742   6.064  0.0628 -0.2012 -0.2097
  982loPI    C315371  11.081   2.646   6.023  0.0135 -0.1121  0.0330
  982loPI   PO415372  11.584   2.319   5.805 -0.1827  0.1298 -0.0890
  982loPI   GL115373  11.780   2.323   6.171 -0.0063  0.2351  0.2473
  982loPI   GL215374  11.832   2.083   6.378  0.1366  0.0871 -0.0589
  982loPI   C1A15375  11.573   2.542   6.499 -0.0328  0.0343 -0.0964
  982loPI   C2A15376  11.651   2.549   6.935  0.2960  0.1269  0.1379
  982loPI   C3A15377  11.646   2.653   7.384  0.1511 -0.0734 -0.2066
  982loPI   C4A15378  11.548   2.642   7.805  0.0321 -0.2140 -0.1176
  982loPI   C5A15379  11.518   2.608   8.160 -0.1149 -0.1606  0.0288
  982loPI   C6A15380  11.176   2.292   8.447 -0.1705  0.1674 -0.2336
  982loPI   C1B15381  11.777   2.100   6.756 -0.1725 -0.2623  0.0594
  982loPI   C2B15382  11.808   2.104   7.277 -0.0409  0.2010  0.2573
  982loPI   C3B15383  11.746   2.154   7.719 -0.2377 -0.0787 -0.4187
  982loPI   C4B15384  11.770   2.149   8.167  0.2839 -0.1802  0.0618
  983loPI    C115385  13.004   6.835   5.672  0.0457 -0.0423  0.0267
  983loPI    C215386  13.173   6.561   5.435 -0.1252 -0.0810 -0.0526
  983loPI    C315387  13.003   6.886   5.275  0.3317  0.2210  0.0564
  983loPI   PO415388  12.813   6.808   5.802  0.3705 -0.1951 -0.0357
  983loPI   GL115389  12.822   6.820   6.240  0.0312  0.1358  0.3767
  983loPI   GL215390  13.181   6.751   6.338 -0.2207 -0.1106 -0.4224
  983loPI   C1A15391  12.596   6.829   6.655  0.0142 -0.1029 -0.1377
  983loPI   C2A15392  12.577   6.940   7.090 -0.0416 -0.3299 -0.0158
  983loPI   C3A15393  12.573   6.933   7.570  0.1773 -0.0493  0.0596
  983loPI   C4A15394  12.537   6.999   8.035 -0.4751  0.0626 -0.3032
  983loPI   C5A15395  12.449   7.062   8.483 -0.0662  0.4412  0.0923
  983loPI   C6A15396  12.564   6.907   8.869 -0.0288 -0.4372  0.2498
  983loPI   C1B15397  13.077   6.728   6.778 -0.3703  0.2367 -0.0006
  983loPI   C2B15398  13.112   6.693   7.206  0.0968  0.2604  0.0676
  983loPI   C3B15399  13.029   6.799   7.596 -0.1161 -0.2860  0.3462
  983loPI   C4B15400  13.136   6.872   8.067 -0.0265  0.0529 -0.0349
  984loPI    C115401  15.954  10.458   5.678  0.3030 -0.2253  0.1940
  984loPI    C215402  16.158  10.511   5.338 -0.0367 -0.1326  0.0000
  984loPI    C315403  15.835  10.276   5.342 -0.1599  0.0366  0.2074
  984loPI   PO415404  16.098  10.347   5.947 -0.2528  0.0095  0.0009
  984loPI   GL115405  16.042  10.164   6.291  0.1543  0.1721 -0.1477
  984loPI   GL215406  15.691  10.197   6.400 -0.0174 -0.1151  0.1059
  984loPI   C1A15407  16.287  10.150   6.664  0.2035 -0.0156 -0.1964
  984loPI   C2A15408  16.352  10.245   7.018  0.1879 -0.0887  0.1127
  984loPI   C3A15409  16.256  10.169   7.417  0.1321 -0.3880 -0.0408
  984loPI   C4A15410  16.221  10.208   7.878  0.3186  0.0477 -0.0116
  984loPI   C5A15411  16.319  10.197   8.262  0.0241  0.2994 -0.1197
  984loPI   C6A15412  16.129   9.970   8.700  0.3610 -0.0373 -0.2043
  984loPI   C1B15413  15.875  10.353   6.820  0.1449  0.1343 -0.2474
  984loPI   C2B15414  15.786  10.343   7.291 -0.2263  0.2021  0.1876
  984loPI   C3B15415  15.730  10.289   7.772  0.0482  0.0066  0.2210
  984loPI   C4B15416  15.802  10.301   8.205  0.4005 -0.0943 -0.0841
  985loPI    C115417   6.389   5.834   5.548  0.0071  0.0526 -0.0675
  985loPI    C215418   6.228   5.724   5.198  0.1378  0.0111 -0.1151
  985loPI    C315419   6.600   5.872   5.210  0.1375  0.0029  0.0075
  985loPI   PO415420   6.298   5.928   5.735 -0.0275  0.3204  0.0902
  985loPI   GL115421   6.242   5.940   6.146 -0.0625 -0.1303  0.2192
  985loPI   GL215422   6.250   6.114   6.362 -0.1514  0.0770  0.0528
  985loPI   C1A15423   6.178   5.602   6.465  0.3139 -0.1092 -0.1114
  985loPI   C2A15424   6.020   5.317   6.779  0.0759  0.2670 -0.0906
  985loPI   C3A15425   6.069   5.253   7.238 -0.0669  0.0195 -0.0598
  985loPI   C4A15426   6.030   5.328   7.636  0.0513 -0.1188  0.0995
  985loPI   C5A15427   6.016   5.376   8.088 -0.0122  0.0818 -0.2756
  985loPI   C6A15428   5.927   5.375   8.455  0.1788 -0.1814 -0.2297
  985loPI   C1B15429   6.135   6.114   6.774  0.3330 -0.1225 -0.1755
  985loPI   C2B15430   6.244   6.172   7.132 -0.0604  0.2777 -0.0104
  985loPI   C3B15431   6.166   6.222   7.593  0.1603 -0.2519 -0.1822
  985loPI   C4B15432   6.274   6.271   7.984 -0.0773 -0.3005 -0.1102
  986loPI    C115433   4.679  14.262   5.654  0.1731 -0.0634  0.1654
  986loPI    C215434   4.974  14.449   5.460  0.0726 -0.1379 -0.0628
  986loPI    C315435   4.819  14.112   5.311 -0.3642  0.0849 -0.1297
  986loPI   PO415436   4.628  14.231   5.911  0.0577 -0.0056  0.1029
  986loPI   GL115437   4.667  14.189   6.305  0.0372  0.0906 -0.1506
  986loPI   GL215438   4.985  14.151   6.241  0.0178  0.0760  0.0467
  986loPI   C1A15439   4.572  14.113   6.763 -0.0331 -0.1152 -0.2964
  986loPI   C2A15440   4.499  14.020   7.165  0.4828  0.1837  0.3634
  986loPI   C3A15441   4.617  14.052   7.612  0.0025  0.4262  0.1617
  986loPI   C4A15442   4.597  14.114   8.032  0.1548  0.1113 -0.2600
  986loPI   C5A15443   4.762  14.077   8.445  0.0305 -0.0426  0.0260
  986loPI   C6A15444   5.027  14.152   8.913  0.1336  0.0227 -0.1493
  986loPI   C1B15445   5.123  13.927   6.638  0.2701  0.2864  0.2709
  986loPI   C2B15446   5.104  13.926   7.035  0.0282 -0.0010 -0.1792
  986loPI   C3B15447   5.117  13.949   7.529  0.0250  0.0764  0.1199
  986loPI   C4B15448   5.109  13.924   7.936 -0.0192  0.0519  0.1829
  987loPI    C115449   5.414  15.402   5.511 -0.0828  0.0053 -0.1724
  987loPI    C215450   5.518  15.459   5.129  0.2515 -0.0616 -0.0943
  987loPI    C315451   5.266  15.164   5.226 -0.0630  0.1365 -0.2930
  987loPI   PO415452   5.452  15.601   5.611  0.3769 -0.1752 -0.4076
  987loPI   GL115453   5.491  15.769   6.012  0.2337 -0.3503 -0.0972
  987loPI   GL215454   5.195  15.862   6.010 -0.0789  0.1030  0.1065
  987loPI   C1A15455   5.481  15.780   6.448 -0.0376 -0.1553 -0.1991
  987loPI   C2A15456   5.559  15.671   6.881  0.0637 -0.1733 -0.0538
  987loPI   C3A15457   5.465  15.658   7.296 -0.1031 -0.0195 -0.3753
  987loPI   C4A15458   5.501  15.649   7.717  0.0659  0.1863  0.0290
  987loPI   C5A15459   5.423  15.766   8.068 -0.0681  0.1030 -0.0045
  987loPI   C6A15460   5.689  15.847   8.448 -0.0249  0.0190 -0.2592
  987loPI   C1B15461   4.960  15.752   6.513 -0.0555 -0.0738 -0.0356
  987loPI   C2B15462   4.902  15.687   6.907  0.0648 -0.2324  0.2576
  987loPI   C3B15463   4.879  15.711   7.257  0.1454  0.1661 -0.1508
  987loPI   C4B15464   5.004  15.772   7.704 -0.0871 -0.1037 -0.1764
  988loPI    C115465   7.549   0.118   5.686 -0.1957 -0.0935 -0.1894
  988loPI    C215466   7.933   0.144   5.575 -0.1383 -0.0645  0.0123
  988loPI    C315467   7.643   0.239   5.317 -0.0093 -0.0649 -0.1338
  988loPI   PO415468   7.697   0.191   6.040 -0.1690  0.1907  0.0035
  988loPI   GL115469   7.756   0.131   6.430  0.0424  0.0043 -0.1456
  988loPI   GL215470   8.045   0.211   6.599  0.0663  0.2265  0.1389
  988loPI   C1A15471   7.729  -0.036   6.928  0.0021  0.2897  0.0967
  988loPI   C2A15472   7.676  -0.079   7.327  0.3042 -0.3857  0.1459
  988loPI   C3A15473   7.786  -0.075   7.787  0.1413 -0.4853  0.0667
  988loPI   C4A15474   7.824  -0.047   8.219  0.0618 -0.1833 -0.0334
  988loPI   C5A15475   7.871   0.281   8.427  0.1469  0.1799 -0.0873
  988loPI   C6A15476   8.031   0.719   8.608 -0.3236  0.0499 -0.1472
  988loPI   C1B15477   8.073   0.308   6.999  0.0213  0.0388  0.0578
  988loPI   C2B15478   8.066   0.231   7.442  0.1902  0.0664 -0.0651
  988loPI   C3B15479   8.148   0.238   7.903 -0.0378 -0.1665  0.1110
  988loPI   C4B15480   8.318   0.025   8.357 -0.0571  0.4625 -0.1703
  989loPI    C115481   3.464   2.187   5.693  0.2240  0.1199 -0.1933
  989loPI    C215482   3.492   2.036   5.323  0.0799  0.1465 -0.2156
  989loPI    C315483   3.522   2.431   5.381  0.0697  0.1454 -0.2027
  989loPI   PO415484   3.707   2.084   5.781  0.0080 -0.1103 -0.2316
  989loPI   GL115485   3.798   1.797   6.104  0.0307  0.2610 -0.0252
  989loPI   GL215486   3.527   1.849   6.147  0.0871  0.2814 -0.0774
  989loPI   C1A15487   3.910   1.621   6.555  0.2028 -0.0624  0.2033
  989loPI   C2A15488   3.896   1.589   6.972  0.1789  0.0623 -0.0601
  989loPI   C3A15489   3.841   1.739   7.412 -0.1452 -0.2549 -0.1203
  989loPI   C4A15490   3.822   1.650   7.766  0.1410  0.0653 -0.1037
  989loPI   C5A15491   3.753   1.739   8.234 -0.1822 -0.2548  0.1288
  989loPI   C6A15492   3.590   1.835   8.626 -0.0203  0.0685 -0.2114
  989loPI   C1B15493   3.393   1.830   6.590  0.0335  0.3758  0.2002
  989loPI   C2B15494   3.315   1.777   6.904  0.1546 -0.1901 -0.0255
  989loPI   C3B15495   3.318   1.843   7.371 -0.1366  0.1231  0.0322
  989loPI   C4B15496   3.313   1.680   7.772  0.2858 -0.0715 -0.0496
  990loPI    C115497   0.320   3.801   5.705 -0.0862 -0.1876 -0.0813
  990loPI    C215498   0.566   3.514   5.576 -0.0034 -0.0677 -0.1937
  990loPI    C315499   0.655   3.898   5.508 -0.0570 -0.0099  0.0525
  990loPI   PO415500   0.280   3.674   5.982  0.1932  0.0095 -0.3554
  990loPI   GL115501   0.457   3.592   6.368  0.1812 -0.1942 -0.3113
  990loPI   GL215502   0.473   3.334   6.470  0.0893 -0.1832 -0.0632
  990loPI   C1A15503   0.738   3.763   6.616 -0.0653 -0.1178 -0.3287
  990loPI   C2A15504   0.761   3.761   7.044  0.2117  0.2011  0.1629
  990loPI   C3A15505   0.809   3.744   7.477 -0.0559  0.1132 -0.0376
  990loPI   C4A15506   0.810   3.730   7.949 -0.1000  0.2001  0.0779
  990loPI   C5A15507   0.709   3.560   8.452 -0.2223 -0.0063  0.2574
  990loPI   C6A15508   0.696   3.835   8.877  0.2039 -0.3749  0.0188
  990loPI   C1B15509   0.466   3.382   6.870  0.2350  0.0117 -0.2171
  990loPI   C2B15510   0.407   3.375   7.289  0.2862 -0.1120  0.0048
  990loPI   C3B15511   0.496   3.361   7.760  0.1521  0.2135 -0.2846
  990loPI   C4B15512   0.415   3.145   8.130 -0.1465 -0.1628  0.2855
  991loPI    C115513   7.121  12.809   5.627  0.2267 -0.0562 -0.0255
  991loPI    C215514   7.314  12.495   5.473  0.1669 -0.1127  0.0139
  991loPI    C315515   7.059  12.704   5.247 -0.0479 -0.2975  0.0821
  991loPI   PO415516   7.239  12.930   5.844  0.2798 -0.2843 -0.0797
  991loPI   GL115517   7.357  12.860   6.241 -0.4265 -0.0319 -0.2207
  991loPI   GL215518   7.047  12.901   6.305 -0.1946 -0.0043 -0.0307
  991loPI   C1A15519   7.647  12.810   6.579 -0.1006 -0.0058  0.1082
  991loPI   C2A15520   7.716  12.812   7.096  0.2054 -0.0902 -0.0850
  991loPI   C3A15521   7.694  12.870   7.436  0.1518  0.1028  0.1352
  991loPI   C4A15522   7.637  12.869   8.045  0.1058 -0.2437  0.1454
  991loPI   C5A15523   7.708  12.855   8.467  0.2020 -0.1935  0.1965
  991loPI   C6A15524   7.604  12.785   8.945 -0.1595  0.0488  0.1777
  991loPI   C1B15525   7.155  12.919   6.743 -0.0322  0.0311 -0.0305
  991loPI   C2B15526   7.164  12.892   7.195  0.0365 -0.1314 -0.1973
  991loPI   C3B15527   7.247  12.980   7.630 -0.3449  0.1506  0.0013
  991loPI   C4B15528   7.162  12.997   8.054  0.0307  0.4023  0.0352
  992loPI    C115529   9.030   4.462   5.756 -0.1881  0.0223 -0.0922
  992loPI    C215530   8.700   4.496   5.532 -0.0147 -0.0884 -0.3694
  992loPI    C315531   9.053   4.620   5.390  0.1013 -0.1760 -0.1632
  992loPI   PO415532   9.048   4.229   5.861  0.0356 -0.1370 -0.3416
  992loPI   GL115533   9.090   4.111   6.250 -0.0331  0.0173  0.1983
  992loPI   GL215534   8.962   4.447   6.301  0.0159 -0.0433  0.1115
  992loPI   C1A15535   9.134   4.092   6.632  0.1674 -0.1403  0.3785
  992loPI   C2A15536   9.266   4.036   7.008 -0.0519  0.0000 -0.1782
  992loPI   C3A15537   9.171   4.053   7.426 -0.1101 -0.2226  0.1884
  992loPI   C4A15538   9.278   4.180   7.881  0.1464  0.1147  0.1296
  992loPI   C5A15539   9.151   4.091   8.257  0.0202  0.1505  0.1540
  992loPI   C6A15540   8.842   3.894   8.487  0.0669  0.1746  0.0326
  992loPI   C1B15541   9.084   4.652   6.736 -0.0052  0.0353  0.2474
  992loPI   C2B15542   9.071   4.540   7.155  0.0636  0.0644  0.2511
  992loPI   C3B15543   9.054   4.574   7.571  0.3406  0.2433  0.0890
  992loPI   C4B15544   9.048   4.621   7.990  0.0424  0.1515 -0.2861
  993loPI    C115545  13.487  12.905   5.895 -0.1776 -0.1445 -0.0757
  993loPI    C215546  13.541  12.779   5.519 -0.0739  0.1548 -0.1641
  993loPI    C315547  13.705  13.122   5.640 -0.0376  0.0202  0.1805
  993loPI   PO415548  13.313  12.858   6.074 -0.0509  0.1053  0.3668
  993loPI   GL115549  13.014  13.170   6.226 -0.0700  0.0154 -0.0408
  993loPI   GL215550  12.827  13.296   6.324  0.0049  0.1538  0.0535
  993loPI   C1A15551  13.162  13.249   6.709 -0.2336 -0.2068 -0.0835
  993loPI   C2A15552  13.224  13.342   7.145 -0.1158  0.0642  0.0929
  993loPI   C3A15553  13.155  13.322   7.503 -0.1411  0.1656 -0.1988
  993loPI   C4A15554  13.213  13.289   7.954  0.2927 -0.1187  0.3320
  993loPI   C5A15555  13.233  13.370   8.365 -0.1053 -0.2458  0.2469
  993loPI   C6A15556  13.419  13.279   8.739 -0.1597 -0.0528 -0.0717
  993loPI   C1B15557  12.595  13.449   6.769 -0.1007 -0.1476 -0.2140
  993loPI   C2B15558  12.641  13.435   7.234  0.2843 -0.0186  0.0431
  993loPI   C3B15559  12.712  13.471   7.689 -0.0450  0.2766  0.0196
  993loPI   C4B15560  12.729  13.428   8.083  0.1109 -0.2835  0.2724
  994loPI    C115561  15.198   2.134   5.671 -0.2244  0.0277 -0.1282
  994loPI    C215562  15.342   2.504   5.621 -0.1169  0.0028 -0.0078
  994loPI    C315563  15.043   2.373   5.390 -0.0873  0.1290 -0.1188
  994loPI   PO415564  15.167   2.103   5.952 -0.3857 -0.0116 -0.1129
  994loPI   GL115565  15.156   1.968   6.337  0.0096 -0.1162  0.0220
  994loPI   GL215566  15.417   2.163   6.421 -0.0791 -0.0399 -0.2309
  994loPI   C1A15567  15.127   1.768   6.684  0.0908 -0.0853  0.2085
  994loPI   C2A15568  15.118   1.693   7.088 -0.2936  0.2599 -0.0671
  994loPI   C3A15569  15.164   1.745   7.523 -0.0072 -0.1368 -0.0226
  994loPI   C4A15570  15.232   1.832   7.923 -0.1664 -0.0365  0.0366
  994loPI   C5A15571  15.329   1.985   8.341  0.1801 -0.0596 -0.2145
  994loPI   C6A15572  15.117   1.927   8.787 -0.1999  0.2406  0.1129
  994loPI   C1B15573  15.487   2.098   6.848  0.1957  0.0752 -0.1392
  994loPI   C2B15574  15.426   2.134   7.258  0.2266 -0.2442  0.0323
  994loPI   C3B15575  15.612   2.099   7.581 -0.1564 -0.1999  0.4334
  994loPI   C4B15576  15.704   2.214   7.967 -0.0528  0.0656 -0.3821
  995loPI    C115577   4.489   3.494   5.651  0.1102  0.0422  0.1157
  995loPI    C215578   4.878   3.472   5.558  0.0900 -0.1705  0.0769
  995loPI    C315579   4.601   3.371   5.288 -0.0016  0.1909  0.0299
  995loPI   PO415580   4.479   3.686   5.824 -0.2453 -0.0628 -0.0696
  995loPI   GL115581   4.347   3.514   6.227 -0.0267 -0.0418 -0.1717
  995loPI   GL215582   4.443   3.759   6.381  0.1127 -0.1976  0.0348
  995loPI   C1A15583   4.267   3.376   6.702 -0.0226  0.1855  0.0477
  995loPI   C2A15584   4.240   3.476   7.186  0.1584  0.0249 -0.0334
  995loPI   C3A15585   4.243   3.462   7.706 -0.0889 -0.0276  0.0522
  995loPI   C4A15586   4.227   3.505   8.144  0.2185  0.1153 -0.2216
  995loPI   C5A15587   3.899   3.632   8.567 -0.2688  0.4257  0.2027
  995loPI   C6A15588   3.712   3.977   8.764  0.1267 -0.2937  0.0641
  995loPI   C1B15589   4.551   3.857   6.766  0.0856  0.0661  0.1222
  995loPI   C2B15590   4.609   3.847   7.158  0.0723  0.1587  0.1839
  995loPI   C3B15591   4.612   3.852   7.717 -0.0109 -0.4355 -0.0810
  995loPI   C4B15592   4.567   3.909   8.172  0.0058  0.2272 -0.3700
  996loPI    C115593   4.617  12.570   5.748  0.2589 -0.1373  0.1731
  996loPI    C215594   4.402  12.874   5.892  0.4164 -0.0903  0.3117
  996loPI    C315595   4.677  12.941   5.609  0.1780 -0.1667  0.0579
  996loPI   PO415596   4.796  12.480   5.977 -0.0113  0.0752 -0.1502
  996loPI   GL115597   4.775  12.639   6.247  0.0405  0.0945  0.0320
  996loPI   GL215598   5.062  12.761   6.369  0.1977 -0.3763  0.0642
  996loPI   C1A15599   4.485  12.654   6.573 -0.2114 -0.2803  0.0384
  996loPI   C2A15600   4.513  12.671   7.069 -0.1606  0.2683  0.1422
  996loPI   C3A15601   4.495  12.671   7.408 -0.2492  0.1510  0.1383
  996loPI   C4A15602   4.468  12.729   7.841 -0.2777  0.1345  0.1152
  996loPI   C5A15603   4.549  12.674   8.339  0.0155  0.0698 -0.2293
  996loPI   C6A15604   4.606  12.436   8.768  0.1400  0.1896  0.0916
  996loPI   C1B15605   4.982  12.502   6.731 -0.0952  0.0669 -0.0289
  996loPI   C2B15606   5.024  12.595   7.099 -0.0419  0.1410  0.1767
  996loPI   C3B15607   4.988  12.579   7.603 -0.0617 -0.1786  0.1891
  996loPI   C4B15608   4.936  12.638   7.982 -0.0838 -0.0469 -0.4209
  997loPI    C115609   2.592  16.748   5.098 -0.0152  0.2077  0.0902
  997loPI    C215610   2.236  16.742   4.915  0.0166  0.0131  0.0325
  997loPI    C315611   2.477  17.059   4.874 -0.1343  0.1304  0.0430
  997loPI   PO415612   2.468  16.665   5.428  0.0913  0.2519  0.1732
  997loPI   GL115613   2.588  16.687   5.835  0.1199  0.0465 -0.2499
  997loPI   GL215614   2.867  16.853   5.756 -0.0018 -0.0553 -0.0843
  997loPI   C1A15615   2.594  16.695   6.247  0.1010 -0.2029 -0.0902
  997loPI   C2A15616   2.716  16.699   6.623 -0.2785  0.0660 -0.0248
  997loPI   C3A15617   2.686  16.641   7.063 -0.1444  0.1625  0.0140
  997loPI   C4A15618   2.671  16.637   7.484  0.2804  0.2317 -0.2862
  997loPI   C5A15619   2.732  16.529   7.971 -0.1577 -0.3046  0.2768
  997loPI   C6A15620   2.760  16.578   8.460  0.0728 -0.0546 -0.0942
  997loPI   C1B15621   2.863  17.130   6.091  0.0516 -0.0988  0.1201
  997loPI   C2B15622   3.103  17.072   6.461  0.0535  0.1500  0.0393
  997loPI   C3B15623   3.126  17.103   6.824 -0.1882  0.0179  0.1189
  997loPI   C4B15624   3.084  17.096   7.368  0.1732 -0.0317  0.0220
  998loPI    C115625  14.874   8.181   5.632  0.2520  0.2012 -0.1351
  998loPI    C215626  14.880   8.271   5.242 -0.0709 -0.0380 -0.1993
  998loPI    C315627  14.980   7.903   5.364 -0.0106  0.0242 -0.0594
  998loPI   PO415628  14.989   8.269   5.788 -0.1694  0.2749  0.1343
  998loPI   GL115629  15.052   8.394   6.212  0.1598  0.0597  0.2201
  998loPI   GL215630  14.754   8.764   6.271  0.0608  0.0938 -0.0779
  998loPI   C1A15631  15.014   8.316   6.564  0.0078 -0.0372  0.0406
  998loPI   C2A15632  14.960   8.265   6.998 -0.0191  0.2352  0.0027
  998loPI   C3A15633  14.950   8.263   7.380  0.0038 -0.0944 -0.2770
  998loPI   C4A15634  14.903   8.223   7.781 -0.0679 -0.1947 -0.1581
  998loPI   C5A15635  14.918   8.199   8.212  0.0282  0.2412 -0.1323
  998loPI   C6A15636  14.612   7.978   8.519 -0.2273  0.0972  0.0005
  998loPI   C1B15637  14.824   8.721   6.787 -0.1694 -0.0180 -0.0758
  998loPI   C2B15638  14.846   8.772   7.209 -0.1421  0.1774 -0.0452
  998loPI   C3B15639  14.770   8.796   7.681 -0.1618  0.1112  0.1897
  998loPI   C4B15640  14.740   8.652   8.087 -0.0416 -0.0418  0.4195
  999loPI    C115641  11.062  15.692   5.695 -0.2774  0.0730  0.0215
  999loPI    C215642  10.941  15.912   5.384  0.2030  0.1070 -0.1494
  999loPI    C315643  11.054  15.533   5.328  0.1880  0.0795  0.0025
  999loPI   PO415644  10.927  15.721   5.880 -0.1027 -0.0525  0.2234
  999loPI   GL115645  10.933  15.756   6.327  0.1111  0.1338 -0.0180
  999loPI   GL215646  10.604  15.771   6.449  0.1448 -0.1002 -0.0571
  999loPI   C1A15647  11.094  15.717   6.765 -0.0954  0.1505  0.0569
  999loPI   C2A15648  11.071  15.621   7.200  0.0272  0.0539 -0.0509
  999loPI   C3A15649  11.140  15.690   7.657 -0.0372 -0.1043  0.1623
  999loPI   C4A15650  11.096  15.697   8.141 -0.1381 -0.0261  0.0540
  999loPI   C5A15651  11.126  15.523   8.540  0.0182  0.1275  0.0621
  999loPI   C6A15652  11.381  15.273   8.735  0.0312 -0.2386 -0.0983
  999loPI   C1B15653  10.599  15.787   6.921 -0.1738  0.1332  0.3286
  999loPI   C2B15654  10.570  15.758   7.332  0.1009 -0.4110 -0.2920
  999loPI   C3B15655  10.609  15.807   7.811 -0.4681 -0.2326  0.0110
  999loPI   C4B15656  10.636  15.718   8.212 -0.1944  0.2822  0.0963
 1000loPI    C115657   3.371  11.310   5.691 -0.0818 -0.2509 -0.0426
 1000loPI    C215658   3.106  11.546   5.506 -0.0811 -0.2210 -0.0054
 1000loPI    C315659   3.408  11.383   5.300 -0.0857 -0.1951 -0.0327
 1000loPI   PO415660   3.392  11.392   5.958  0.3023  0.3336 -0.1141
 1000loPI   GL115661   3.220  11.169   6.261  0.0249 -0.1425 -0.0667
 1000loPI   GL215662   3.118  11.265   6.474  0.0851 -0.1359 -0.2715
 1000loPI   C1A15663   3.577  11.076   6.573 -0.0799 -0.1455  0.0404
 1000loPI   C2A15664   3.707  11.110   6.920 -0.1658 -0.0232 -0.3233
 1000loPI   C3A15665   3.603  11.064   7.293 -0.0153 -0.0082 -0.1435
 1000loPI   C4A15666   3.559  11.118   7.761  0.0445 -0.4318 -0.1482
 1000loPI   C5A15667   3.700  11.109   8.115  0.0077  0.4325  0.1192
 1000loPI   C6A15668   3.546  11.089   8.511  0.2593 -0.2920 -0.1630
 1000loPI   C1B15669   3.108  11.229   6.875  0.0261 -0.1021  0.0686
 1000loPI   C2B15670   3.047  11.228   7.314  0.0519  0.0623 -0.6528
 1000loPI   C3B15671   3.113  11.247   7.802  0.1480 -0.2203 -0.0935
 1000loPI   C4B15672   3.158  11.160   8.207  0.0569 -0.0297 -0.0143
 1001loPI    C115673   4.319   5.472   5.772  0.0916 -0.0669 -0.0349
 1001loPI    C215674   4.343   5.847   5.910 -0.2485 -0.0510 -0.0119
 1001loPI    C315675   4.470   5.761   5.540 -0.0720  0.0647  0.0208
 1001loPI   PO415676   4.488   5.286   6.026  0.1492 -0.1559  0.3021
 1001loPI   GL115677   4.615   4.996   6.449  0.0616 -0.0015  0.6215
 1001loPI   GL215678   4.623   5.295   6.604  0.2193  0.1214  0.2794
 1001loPI   C1A15679   4.748   4.685   6.847  0.0526 -0.1544  0.0115
 1001loPI   C2A15680   4.797   4.676   7.296 -0.1919 -0.0617 -0.1582
 1001loPI   C3A15681   4.816   4.736   7.808  0.1505  0.1431 -0.0621
 1001loPI   C4A15682   4.777   4.564   8.220 -0.1685 -0.0235 -0.3924
 1001loPI   C5A15683   4.717   4.447   8.621  0.1593 -0.2814 -0.0468
 1001loPI   C6A15684   4.807   4.061   8.821  0.1046 -0.0942 -0.1269
 1001loPI   C1B15685   4.642   5.135   7.045 -0.2935 -0.2875 -0.1797
 1001loPI   C2B15686   4.665   5.142   7.478 -0.0818 -0.0437  0.1793
 1001loPI   C3B15687   4.717   5.263   7.901  0.2604  0.1389  0.0074
 1001loPI   C4B15688   4.749   5.033   8.257 -0.0162 -0.0507  0.2057
 1002loPI    C115689   1.108   4.356   5.716 -0.0583 -0.1482  0.0371
 1002loPI    C215690   0.767   4.390   5.510  0.0887  0.0362 -0.1818
 1002loPI    C315691   1.090   4.597   5.397  0.1666  0.1607  0.2511
 1002loPI   PO415692   1.092   4.097   5.812 -0.0410  0.0060  0.1069
 1002loPI   GL115693   1.187   3.839   6.295  0.1025  0.1366 -0.3617
 1002loPI   GL215694   1.385   4.069   6.443  0.2572 -0.1930  0.0772
 1002loPI   C1A15695   1.298   3.652   6.698  0.2266  0.0675  0.3069
 1002loPI   C2A15696   1.248   3.579   7.080 -0.0160 -0.3831  0.0152
 1002loPI   C3A15697   1.344   3.662   7.518 -0.0626  0.1418 -0.2139
 1002loPI   C4A15698   1.323   3.637   7.949 -0.0486  0.2340  0.0424
 1002loPI   C5A15699   1.171   3.766   8.305 -0.0103 -0.0705 -0.0708
 1002loPI   C6A15700   1.138   3.671   8.735 -0.0265 -0.1296 -0.0438
 1002loPI   C1B15701   1.080   4.075   6.812  0.0595  0.0872  0.1827
 1002loPI   C2B15702   1.120   4.056   7.250  0.1619 -0.1690 -0.2578
 1002loPI   C3B15703   1.203   4.096   7.735  0.5400  0.0245  0.3475
 1002loPI   C4B15704   1.488   4.118   8.139  0.1775 -0.0356  0.0150
 1003loPI    C115705   5.643   2.122   5.590  0.0188  0.0441  0.0038
 1003loPI    C215706   5.290   2.095   5.405  0.0137 -0.3251  0.0611
 1003loPI    C315707   5.589   2.299   5.235 -0.2178 -0.0265  0.0033
 1003loPI   PO415708   5.601   2.163   5.808 -0.1204 -0.0402  0.0383
 1003loPI   GL115709   5.466   2.222   6.213 -0.0349 -0.1758 -0.0372
 1003loPI   GL215710   5.563   2.535   6.203  0.0801  0.1254  0.1348
 1003loPI   C1A15711   5.542   2.157   6.699  0.2565  0.2620  0.0133
 1003loPI   C2A15712   5.583   2.204   7.114  0.0773  0.1358  0.0811
 1003loPI   C3A15713   5.659   2.188   7.553  0.0775  0.0639 -0.2475
 1003loPI   C4A15714   5.626   2.266   8.009 -0.0776 -0.2767  0.2491
 1003loPI   C5A15715   5.941   2.553   8.171 -0.0249  0.3674  0.2828
 1003loPI   C6A15716   6.294   2.899   8.134  0.1862 -0.1414 -0.0113
 1003loPI   C1B15717   5.398   2.693   6.536  0.2331 -0.0331 -0.0409
 1003loPI   C2B15718   5.365   2.685   6.926  0.0762 -0.1151 -0.2860
 1003loPI   C3B15719   5.387   2.703   7.348  0.4430 -0.0393 -0.0529
 1003loPI   C4B15720   5.345   2.722   7.709 -0.3357 -0.0791  0.0629
 1004loPI    C115721   5.795  16.996   5.478  0.1151  0.2620  0.0297
 1004loPI    C215722   5.847  17.233   5.161  0.1805 -0.0761 -0.2182
 1004loPI    C315723   5.692  16.868   5.114 -0.1640  0.0097  0.1923
 1004loPI   PO415724   5.722  17.177   5.631 -0.1461  0.2083 -0.1237
 1004loPI   GL115725   5.687  17.126   6.078  0.0002 -0.3675  0.0835
 1004loPI   GL215726   5.438  17.054   6.258  0.1918  0.3662 -0.2152
 1004loPI   C1A15727   5.854  17.282   6.528 -0.2780 -0.1344 -0.0663
 1004loPI   C2A15728   5.847  17.332   6.928 -0.2467  0.2509  0.1681
 1004loPI   C3A15729   5.788  17.384   7.376 -0.3369 -0.1062  0.1197
 1004loPI   C4A15730   5.682  17.337   7.870 -0.0482  0.1258  0.2579
 1004loPI   C5A15731   5.779  17.294   8.119  0.3222 -0.2520 -0.0682
 1004loPI   C6A15732   6.104  17.213   8.374  0.2602 -0.0754  0.0103
 1004loPI   C1B15733   5.525  16.927   6.700  0.1909  0.0441 -0.1331
 1004loPI   C2B15734   5.523  16.955   7.120  0.0703  0.1207 -0.2289
 1004loPI   C3B15735   5.476  16.995   7.536  0.0323 -0.4130  0.2102
 1004loPI   C4B15736   5.369  16.977   8.009 -0.1386 -0.0986 -0.1068
 1005loPI    C115737   9.652   5.008   5.968  0.0895 -0.1066  0.1033
 1005loPI    C215738   9.850   5.077   5.628 -0.2086  0.1924 -0.0149
 1005loPI    C315739   9.817   4.704   5.767  0.3116  0.1207 -0.0639
 1005loPI   PO415740   9.763   5.253   6.118 -0.3191  0.0065  0.1225
 1005loPI   GL115741   9.738   5.450   6.466 -0.2068 -0.0072 -0.1416
 1005loPI   GL215742   9.402   5.520   6.477  0.0677  0.1729  0.0420
 1005loPI   C1A15743   9.778   5.322   6.940  0.3288 -0.0192 -0.1412
 1005loPI   C2A15744   9.732   5.302   7.389 -0.0455 -0.2374  0.0241
 1005loPI   C3A15745   9.807   5.332   7.772  0.1266 -0.0585 -0.2372
 1005loPI   C4A15746   9.892   5.359   8.214 -0.1979  0.0468 -0.1446
 1005loPI   C5A15747   9.575   5.432   8.544  0.4490  0.0726 -0.2686
 1005loPI   C6A15748   9.602   5.596   8.975  0.2580 -0.0731 -0.2024
 1005loPI   C1B15749   9.302   5.401   6.868  0.0712 -0.2634 -0.3914
 1005loPI   C2B15750   9.257   5.439   7.315 -0.1279 -0.0492 -0.3082
 1005loPI   C3B15751   9.345   5.470   7.669  0.3182  0.1692  0.1693
 1005loPI   C4B15752   9.389   5.461   8.086  0.0376  0.0088  0.1815
 1006loPI    C115753   8.598  13.517   5.780  0.0707 -0.1152  0.1143
 1006loPI    C215754   8.882  13.448   5.507 -0.0265 -0.0535 -0.0040
 1006loPI    C315755   8.503  13.501   5.392 -0.1238 -0.3464  0.1691
 1006loPI   PO415756   8.609  13.358   5.989 -0.2232  0.1734 -0.1109
 1006loPI   GL115757   8.417  13.278   6.357  0.0428  0.3904  0.1336
 1006loPI   GL215758   8.663  13.146   6.479  0.1256  0.0032 -0.1449
 1006loPI   C1A15759   8.346  13.504   6.674  0.3757  0.0599 -0.1699
 1006loPI   C2A15760   8.379  13.514   7.060  0.0246  0.4014 -0.1252
 1006loPI   C3A15761   8.461  13.527   7.527  0.1584 -0.1860  0.0645
 1006loPI   C4A15762   8.419  13.458   7.855  0.0128 -0.2318 -0.1998
 1006loPI   C5A15763   8.415  13.632   8.259  0.0007  0.3194  0.1923
 1006loPI   C6A15764   8.758  13.490   8.576 -0.2020 -0.1528 -0.1466
 1006loPI   C1B15765   8.512  13.089   6.828 -0.3704  0.1402 -0.1633
 1006loPI   C2B15766   8.605  13.011   7.238 -0.3564  0.0959  0.1705
 1006loPI   C3B15767   8.585  13.000   7.656  0.1236  0.1607 -0.0219
 1006loPI   C4B15768   8.613  13.006   8.081  0.0288 -0.0653 -0.2998
 1007loPI    C115769   7.581   2.136   5.587  0.2992  0.0450  0.0358
 1007loPI    C215770   7.525   1.747   5.511 -0.1001  0.0771  0.1448
 1007loPI    C315771   7.814   1.948   5.321 -0.0216 -0.2242 -0.0620
 1007loPI   PO415772   7.543   2.185   5.851 -0.0299 -0.1353 -0.0367
 1007loPI   GL115773   7.510   2.245   6.210  0.1871  0.0994  0.0327
 1007loPI   GL215774   7.158   2.155   6.297 -0.1532 -0.0588  0.2591
 1007loPI   C1A15775   7.502   2.204   6.715 -0.1339 -0.0223  0.0614
 1007loPI   C2A15776   7.477   2.237   7.144  0.0269  0.4956  0.2245
 1007loPI   C3A15777   7.423   2.161   7.662  0.1050  0.1377 -0.1353
 1007loPI   C4A15778   7.550   2.175   8.179 -0.0735  0.0693 -0.0655
 1007loPI   C5A15779   7.645   2.049   8.579 -0.1437  0.0101 -0.0171
 1007loPI   C6A15780   7.503   1.909   8.927 -0.1287  0.0907  0.0323
 1007loPI   C1B15781   7.127   1.898   6.614 -0.3996 -0.0738  0.1847
 1007loPI   C2B15782   7.086   1.902   7.070 -0.1096 -0.1021 -0.1761
 1007loPI   C3B15783   7.083   1.824   7.490 -0.0314 -0.0524  0.1541
 1007loPI   C4B15784   7.120   1.797   7.942  0.0567 -0.1813 -0.1554
 1008loPI    C115785  10.105   1.262   5.376  0.0769 -0.0044 -0.0329
 1008loPI    C215786   9.718   1.306   5.285  0.0894  0.0013 -0.0836
 1008loPI    C315787   9.979   1.206   5.000  0.0606 -0.4097  0.0281
 1008loPI   PO415788  10.072   1.226   5.664  0.0481  0.0868  0.4145
 1008loPI   GL115789  10.245   1.310   6.124 -0.0175 -0.1446  0.0988
 1008loPI   GL215790  10.565   1.452   6.193 -0.1993  0.2400  0.0706
 1008loPI   C1A15791  10.135   1.170   6.555 -0.2396 -0.3401 -0.1455
 1008loPI   C2A15792  10.128   1.120   6.956 -0.0695 -0.2743  0.2119
 1008loPI   C3A15793  10.248   1.082   7.371  0.3082  0.2631 -0.0468
 1008loPI   C4A15794  10.166   1.152   7.776 -0.3617  0.1895 -0.1078
 1008loPI   C5A15795  10.173   1.132   8.144 -0.0371  0.0377 -0.1583
 1008loPI   C6A15796   9.947   0.938   8.472 -0.2476 -0.1682 -0.1965
 1008loPI   C1B15797  10.534   1.525   6.660  0.2841  0.0566 -0.1322
 1008loPI   C2B15798  10.498   1.474   7.089 -0.0778 -0.0515 -0.0904
 1008loPI   C3B15799  10.522   1.608   7.574  0.3126 -0.2291  0.0193
 1008loPI   C4B15800  10.491   1.497   7.962  0.1026 -0.1588 -0.1126
 1009loPI    C115801   5.433  10.735   5.697 -0.0144 -0.0095  0.0295
 1009loPI    C215802   5.133  10.552   5.506  0.0034 -0.0594  0.0493
 1009loPI    C315803   5.488  10.596   5.326  0.0768 -0.2720  0.1391
 1009loPI   PO415804   5.488  10.569   5.898 -0.1109 -0.0547  0.0459
 1009loPI   GL115805   5.529  10.632   6.357 -0.0507 -0.3581 -0.0074
 1009loPI   GL215806   5.681  10.854   6.492 -0.0971  0.2585 -0.0060
 1009loPI   C1A15807   5.530  10.583   6.843  0.1444 -0.0466  0.2695
 1009loPI   C2A15808   5.613  10.610   7.274  0.3443  0.0678 -0.1405
 1009loPI   C3A15809   5.616  10.675   7.664 -0.0695  0.2131  0.1227
 1009loPI   C4A15810   5.585  10.537   8.130  0.2817  0.1995 -0.3010
 1009loPI   C5A15811   5.678  10.638   8.564  0.0877 -0.3431  0.0864
 1009loPI   C6A15812   5.448  10.708   8.904 -0.1239  0.2151 -0.1654
 1009loPI   C1B15813   5.894  10.969   6.837 -0.1628 -0.0609 -0.0752
 1009loPI   C2B15814   5.946  10.985   7.284  0.3179  0.2109  0.4887
 1009loPI   C3B15815   5.917  11.068   7.714  0.1252 -0.1184 -0.0118
 1009loPI   C4B15816   5.965  10.989   8.170 -0.0413  0.3538 -0.2235
 1010loPI    C115817   8.743   3.801   5.855 -0.1478 -0.0171 -0.0457
 1010loPI    C215818   8.500   3.654   5.574 -0.0399 -0.0046 -0.1466
 1010loPI    C315819   8.708   3.989   5.504 -0.0206  0.0046 -0.0473
 1010loPI   PO415820   8.595   3.706   6.085 -0.0462  0.2690  0.4308
 1010loPI   GL115821   8.415   3.504   6.385  0.3385  0.0808  0.2025
 1010loPI   GL215822   8.527   3.307   6.507  0.1446  0.0942  0.0497
 1010loPI   C1A15823   8.326   3.867   6.875 -0.2303 -0.0751  0.1571
 1010loPI   C2A15824   8.333   3.804   7.305 -0.0005 -0.2390  0.0544
 1010loPI   C3A15825   8.352   3.837   7.705  0.0453  0.1865 -0.1584
 1010loPI   C4A15826   8.454   3.800   8.187  0.0192 -0.0992  0.0913
 1010loPI   C5A15827   8.340   3.951   8.578 -0.0383 -0.1660  0.3387
 1010loPI   C6A15828   8.195   3.706   8.894  0.2577 -0.1471  0.2037
 1010loPI   C1B15829   8.503   3.335   6.968 -0.1213  0.2498  0.0174
 1010loPI   C2B15830   8.495   3.222   7.327  0.0769  0.1559 -0.1784
 1010loPI   C3B15831   8.501   3.370   7.823  0.0403  0.1010 -0.1538
 1010loPI   C4B15832   8.584   3.348   8.258 -0.1161 -0.1441 -0.0668
 1011loPI    C115833   4.528   2.232   5.593  0.0136 -0.1967 -0.1453
 1011loPI    C215834   4.784   2.147   5.297 -0.0854 -0.0858 -0.2637
 1011loPI    C315835   4.496   1.887   5.393  0.0082 -0.1657 -0.1983
 1011loPI   PO415836   4.624   2.280   5.833  0.4127  0.0366 -0.2368
 1011loPI   GL115837   4.458   2.264   6.269  0.0731 -0.1311  0.0745
 1011loPI   GL215838   4.601   2.545   6.431  0.2636 -0.0583  0.0269
 1011loPI   C1A15839   4.214   2.085   6.553  0.1052  0.0916  0.1157
 1011loPI   C2A15840   4.232   1.989   6.955  0.1849 -0.0446  0.0315
 1011loPI   C3A15841   4.202   2.160   7.340 -0.1382 -0.1526  0.1422
 1011loPI   C4A15842   4.084   2.056   7.754 -0.2692  0.2354 -0.1331
 1011loPI   C5A15843   4.100   2.094   8.259  0.2308  0.1743  0.0739
 1011loPI   C6A15844   4.019   1.855   8.684  0.1456  0.2240  0.1371
 1011loPI   C1B15845   4.568   2.400   6.826  0.2185  0.0314  0.0655
 1011loPI   C2B15846   4.547   2.483   7.204  0.1771  0.1022 -0.0140
 1011loPI   C3B15847   4.559   2.510   7.713 -0.0880  0.1067 -0.1308
 1011loPI   C4B15848   4.489   2.504   8.097 -0.0414 -0.3826  0.0824
 1012loPI    C115849  13.586  15.016   5.755  0.1218  0.2272 -0.1496
 1012loPI    C215850  13.663  15.376   5.911  0.0146  0.1359  0.1200
 1012loPI    C315851  13.772  15.294   5.535 -0.1679  0.5273 -0.0245
 1012loPI   PO415852  13.598  14.910   5.805 -0.1629  0.0635  0.0975
 1012loPI   GL115853  13.365  14.984   6.254  0.1751 -0.1580 -0.1366
 1012loPI   GL215854  13.084  15.010   6.396  0.0917 -0.1262 -0.1598
 1012loPI   C1A15855  13.559  14.980   6.657  0.0135  0.0954 -0.2531
 1012loPI   C2A15856  13.641  14.966   7.060  0.0215  0.0547  0.0177
 1012loPI   C3A15857  13.657  14.973   7.444 -0.0153 -0.1502  0.1614
 1012loPI   C4A15858  13.620  15.036   7.829  0.2108 -0.0419 -0.0796
 1012loPI   C5A15859  13.521  15.071   8.251 -0.1007  0.3836 -0.2180
 1012loPI   C6A15860  13.370  15.123   8.589 -0.0027  0.0436 -0.0771
 1012loPI   C1B15861  13.056  15.171   6.744 -0.3080  0.0936  0.2863
 1012loPI   C2B15862  13.134  15.073   7.220  0.0228  0.0864  0.0187
 1012loPI   C3B15863  13.114  15.180   7.693  0.2416 -0.2443 -0.2329
 1012loPI   C4B15864  13.109  15.256   8.059  0.0414  0.0851 -0.3004
 1013loPI    C115865  11.286  11.392   5.427  0.0084  0.1068  0.0529
 1013loPI    C215866  10.899  11.465   5.358  0.0750  0.1900 -0.2502
 1013loPI    C315867  11.096  11.201   5.131  0.0992 -0.1619  0.1642
 1013loPI   PO415868  11.310  11.315   5.692  0.0568  0.3631  0.1307
 1013loPI   GL115869  11.172  11.288   6.170 -0.1505  0.2202  0.1605
 1013loPI   GL215870  11.316  11.455   6.356  0.0828 -0.0917 -0.1560
 1013loPI   C1A15871  10.992  11.085   6.576  0.2245  0.0203  0.2773
 1013loPI   C2A15872  10.870  11.009   7.077 -0.2493 -0.0105 -0.1231
 1013loPI   C3A15873  10.917  11.057   7.475 -0.1448 -0.0780  0.2626
 1013loPI   C4A15874  10.883  11.179   7.885 -0.0136 -0.0608  0.0321
 1013loPI   C5A15875  10.925  11.199   8.345 -0.0530 -0.1590 -0.0456
 1013loPI   C6A15876  10.733  11.334   8.737 -0.0110  0.3180  0.1578
 1013loPI   C1B15877  11.323  11.343   6.764  0.0262  0.2074  0.1858
 1013loPI   C2B15878  11.255  11.373   7.144 -0.1588  0.0672  0.0197
 1013loPI   C3B15879  11.267  11.416   7.536 -0.0661 -0.0112  0.0671
 1013loPI   C4B15880  11.364  11.512   8.003  0.0020  0.0992 -0.0815
 1014loPI    C115881  10.961   2.198   5.738 -0.2774  0.0807 -0.1004
 1014loPI    C215882  11.048   2.142   5.352  0.1995  0.3000 -0.0311
 1014loPI    C315883  10.882   2.485   5.472 -0.0345  0.1954 -0.0516
 1014loPI   PO415884  11.181   1.968   5.783  0.0993  0.0962 -0.1578
 1014loPI   GL115885  11.305   1.976   6.150  0.1446  0.1241  0.0618
 1014loPI   GL215886  11.214   2.233   6.293 -0.0423  0.0334  0.1242
 1014loPI   C1A15887  11.494   1.747   6.476 -0.0238  0.1272 -0.3602
 1014loPI   C2A15888  11.417   1.741   6.907 -0.0243 -0.0378  0.0210
 1014loPI   C3A15889  11.385   1.796   7.369 -0.0903  0.1037  0.3355
 1014loPI   C4A15890  11.416   1.817   7.808  0.1989 -0.1494 -0.1101
 1014loPI   C5A15891  11.320   1.885   8.254  0.0087 -0.1456  0.1327
 1014loPI   C6A15892  11.038   1.718   8.646 -0.0050  0.1063  0.0630
 1014loPI   C1B15893  11.243   2.170   6.674 -0.0607  0.1048  0.0607
 1014loPI   C2B15894  11.260   2.258   7.143 -0.3315  0.0723  0.1735
 1014loPI   C3B15895  11.225   2.313   7.531  0.0909  0.0103 -0.2215
 1014loPI   C4B15896  11.221   2.290   7.896  0.2303 -0.0369 -0.0244
 1015loPI    C115897   6.552  15.656   5.568 -0.0679  0.2655 -0.2023
 1015loPI    C215898   6.471  15.342   5.334 -0.1609  0.1401 -0.0044
 1015loPI    C315899   6.850  15.459   5.389 -0.1157 -0.0148  0.0193
 1015loPI   PO415900   6.326  15.596   5.740  0.0548  0.1910  0.2525
 1015loPI   GL115901   6.318  15.590   6.149 -0.3208 -0.2073 -0.1665
 1015loPI   GL215902   6.605  15.777   6.092 -0.1094  0.2425  0.2999
 1015loPI   C1A15903   6.476  15.449   6.549  0.1845  0.1152  0.2239
 1015loPI   C2A15904   6.479  15.419   7.042  0.1096 -0.0898 -0.0897
 1015loPI   C3A15905   6.524  15.380   7.562 -0.0876  0.0678  0.1927
 1015loPI   C4A15906   6.393  15.483   8.013 -0.0542  0.0678 -0.0232
 1015loPI   C5A15907   6.274  15.784   8.229 -0.0822  0.2031 -0.2066
 1015loPI   C6A15908   6.152  16.118   8.476 -0.1506 -0.2533 -0.3113
 1015loPI   C1B15909   6.506  15.928   6.426  0.0341  0.1234 -0.2656
 1015loPI   C2B15910   6.332  15.858   6.810 -0.2133  0.0160  0.0269
 1015loPI   C3B15911   6.295  15.921   7.262 -0.3515  0.0642  0.0722
 1015loPI   C4B15912   6.389  15.852   7.694 -0.0471  0.1897 -0.0142
 1016loPI    C115913   3.285  17.015   5.196  0.0801  0.0364 -0.1466
 1016loPI    C215914   3.581  17.270   5.282  0.0438  0.0366 -0.0216
 1016loPI    C315915   3.556  17.109   4.917 -0.0211  0.3301 -0.1500
 1016loPI   PO415916   3.273  16.808   5.383 -0.3406  0.0008 -0.3012
 1016loPI   GL115917   3.459  16.761   5.800 -0.2382  0.0639 -0.1888
 1016loPI   GL215918   3.400  16.506   5.943 -0.0372  0.0290  0.1403
 1016loPI   C1A15919   3.601  16.955   6.232 -0.1217 -0.2317  0.0646
 1016loPI   C2A15920   3.573  16.966   6.673 -0.1207 -0.1239 -0.3524
 1016loPI   C3A15921   3.590  16.950   7.123 -0.2099  0.3619 -0.0052
 1016loPI   C4A15922   3.567  16.864   7.591 -0.1326 -0.1968 -0.0020
 1016loPI   C5A15923   3.257  16.947   7.957 -0.1752 -0.1196 -0.0726
 1016loPI   C6A15924   3.071  17.039   8.387 -0.0297  0.0922  0.0139
 1016loPI   C1B15925   3.140  16.602   6.282 -0.1560 -0.2583 -0.0096
 1016loPI   C2B15926   3.228  16.612   6.688 -0.2363 -0.0618  0.0000
 1016loPI   C3B15927   3.222  16.664   7.148 -0.0376 -0.0866 -0.1399
 1016loPI   C4B15928   3.139  16.629   7.581 -0.2613 -0.1207 -0.3073
 1017loPI    C115929   4.242   1.416   5.459 -0.0602 -0.0960  0.0009
 1017loPI    C215930   4.619   1.403   5.326 -0.0372  0.0143  0.0539
 1017loPI    C315931   4.324   1.508   5.078  0.0268  0.3858  0.1289
 1017loPI   PO415932   4.244   1.461   5.729 -0.1289  0.2901 -0.2140
 1017loPI   GL115933   4.088   1.331   6.150  0.2316  0.1218 -0.1494
 1017loPI   GL215934   4.371   1.230   6.185 -0.0608 -0.2243 -0.0171
 1017loPI   C1A15935   4.022   1.158   6.635  0.2927 -0.1516  0.0043
 1017loPI   C2A15936   4.035   1.112   7.118  0.1487  0.0510  0.2182
 1017loPI   C3A15937   3.924   1.219   7.539 -0.1397  0.3470  0.0679
 1017loPI   C4A15938   4.030   1.216   7.925  0.1191  0.0541  0.0466
 1017loPI   C5A15939   4.043   1.392   8.378 -0.2402  0.2802  0.0790
 1017loPI   C6A15940   3.854   1.333   8.668 -0.2414 -0.2141 -0.2544
 1017loPI   C1B15941   4.502   1.036   6.452 -0.0332 -0.2303  0.2696
 1017loPI   C2B15942   4.536   1.081   6.848  0.0548  0.1056 -0.2546
 1017loPI   C3B15943   4.583   1.129   7.301 -0.0001  0.2036 -0.0456
 1017loPI   C4B15944   4.474   1.216   7.703  0.1240 -0.2582 -0.0509
 1018loPI    C115945   8.158  10.759   6.144  0.1752 -0.1333 -0.1272
 1018loPI    C215946   7.907  10.738   5.833  0.1144  0.0682 -0.0933
 1018loPI    C315947   8.289  10.842   5.776  0.1679 -0.1451 -0.1325
 1018loPI   PO415948   8.061  10.909   6.253 -0.0772 -0.1207  0.0482
 1018loPI   GL115949   8.338  10.839   6.630 -0.2445  0.0538 -0.2778
 1018loPI   GL215950   8.190  11.140   6.658 -0.1190 -0.0221  0.2852
 1018loPI   C1A15951   8.240  10.776   7.106 -0.0047  0.3608 -0.1495
 1018loPI   C2A15952   8.274  10.870   7.628  0.1793 -0.1362 -0.2206
 1018loPI   C3A15953   8.208  10.811   7.975 -0.0838 -0.0630  0.0615
 1018loPI   C4A15954   8.196  10.940   8.362 -0.0919 -0.3586 -0.2239
 1018loPI   C5A15955   8.486  10.895   8.699  0.3333 -0.5100 -0.1886
 1018loPI   C6A15956   8.507  11.048   9.218 -0.0479 -0.0300 -0.2057
 1018loPI   C1B15957   8.104  11.306   7.036  0.3194 -0.1784  0.2704
 1018loPI   C2B15958   8.046  11.392   7.448  0.1028 -0.1939 -0.3628
 1018loPI   C3B15959   8.030  11.272   7.832  0.1660  0.1513  0.1877
 1018loPI   C4B15960   8.011  11.393   8.349  0.0462 -0.1899 -0.0112
 1019loPI    C115961  11.725  15.348   5.953  0.0567  0.0095 -0.1337
 1019loPI    C215962  11.969  15.664   5.937  0.0216  0.0335 -0.1992
 1019loPI    C315963  11.616  15.674   5.749  0.0040 -0.0303 -0.1698
 1019loPI   PO415964  11.698  15.352   6.251 -0.1945 -0.1207 -0.2619
 1019loPI   GL115965  11.764  15.547   6.530  0.2114  0.4859  0.2037
 1019loPI   GL215966  12.103  15.453   6.656 -0.0811 -0.1294 -0.1816
 1019loPI   C1A15967  11.667  15.506   7.029 -0.0978  0.0599  0.3635
 1019loPI   C2A15968  11.686  15.558   7.498  0.0827  0.0712 -0.1227
 1019loPI   C3A15969  11.628  15.607   7.904  0.2711  0.1031 -0.1321
 1019loPI   C4A15970  11.577  15.422   8.279 -0.2301  0.1075 -0.1041
 1019loPI   C5A15971  11.789  15.614   8.688  0.2331  0.0305  0.0618
 1019loPI   C6A15972  11.863  16.078   8.821  0.0136  0.0410  0.0585
 1019loPI   C1B15973  12.176  15.444   7.095 -0.0225  0.3868  0.2583
 1019loPI   C2B15974  12.189  15.433   7.543  0.0462  0.1169  0.1410
 1019loPI   C3B15975  12.090  15.372   7.984  0.1281  0.2028 -0.0923
 1019loPI   C4B15976  12.111  15.314   8.448 -0.0930  0.3574 -0.1350
 1020loPI    C115977  11.777  10.509   5.802  0.0738  0.2136 -0.2621
 1020loPI    C215978  12.128  10.353   5.692 -0.0311 -0.0846 -0.1812
 1020loPI    C315979  11.788  10.211   5.536 -0.1307  0.0431 -0.0825
 1020loPI   PO415980  11.815  10.487   6.054  0.0169 -0.2805  0.1239
 1020loPI   GL115981  11.811  10.618   6.446  0.3261  0.0442  0.0657
 1020loPI   GL215982  12.072  10.749   6.637 -0.1912  0.0034  0.0674
 1020loPI   C1A15983  11.629  10.438   6.860  0.0357  0.1066 -0.0133
 1020loPI   C2A15984  11.627  10.425   7.314 -0.0852  0.1182  0.1208
 1020loPI   C3A15985  11.485  10.500   7.663 -0.4300  0.0026  0.1859
 1020loPI   C4A15986  11.583  10.498   8.096 -0.0132 -0.1288  0.2428
 1020loPI   C5A15987  11.580  10.641   8.501 -0.0611 -0.2675 -0.2549
 1020loPI   C6A15988  11.975  10.833   8.793  0.0877  0.2922 -0.2564
 1020loPI   C1B15989  11.996  10.739   7.093 -0.0643  0.1280  0.1967
 1020loPI   C2B15990  11.884  10.837   7.502 -0.1226  0.0395 -0.0324
 1020loPI   C3B15991  11.924  10.849   7.880 -0.1246 -0.0708 -0.0329
 1020loPI   C4B15992  11.902  10.992   8.262  0.2126  0.0495  0.2243
 1021loPI    C115993   9.653  10.170   5.837  0.1817  0.0793 -0.0666
 1021loPI    C215994   9.758  10.216   5.454  0.0383 -0.2382 -0.1480
 1021loPI    C315995   9.526   9.909   5.561 -0.1121 -0.0224  0.1592
 1021loPI   PO415996   9.821  10.212   5.971 -0.1892 -0.2290 -0.3009
 1021loPI   GL115997   9.992  10.036   6.244 -0.0902 -0.0528 -0.2915
 1021loPI   GL215998  10.266  10.274   6.389 -0.0736  0.0966 -0.0118
 1021loPI   C1A15999   9.880   9.832   6.564  0.1351 -0.1861  0.1744
 1021loPI   C2A16000   9.899   9.933   7.003 -0.0899 -0.2169  0.0957
 1021loPI   C3A16001   9.863   9.911   7.379  0.1842  0.1932 -0.0787
 1021loPI   C4A16002   9.892   9.916   7.860 -0.0689  0.2681 -0.2501
 1021loPI   C5A16003   9.768  10.093   8.305  0.1423  0.0444  0.2401
 1021loPI   C6A16004   9.710   9.887   8.636  0.0203  0.0025  0.0493
 1021loPI   C1B16005  10.217  10.235   6.794 -0.0184  0.0657  0.0860
 1021loPI   C2B16006  10.264  10.272   7.189 -0.0690  0.1406  0.0695
 1021loPI   C3B16007  10.272  10.298   7.641  0.3145  0.0467 -0.3015
 1021loPI   C4B16008  10.179  10.420   8.015 -0.0317  0.1338 -0.5318
 1022loPI    C116009   1.634   2.704   5.686 -0.1331  0.0626  0.0388
 1022loPI    C216010   1.714   2.407   5.431 -0.1424  0.0477  0.0532
 1022loPI    C316011   1.685   2.783   5.298  0.1431  0.0803  0.0765
 1022loPI   PO416012   1.813   2.705   5.833 -0.0860 -0.2104 -0.0141
 1022loPI   GL116013   1.866   2.663   6.161 -0.2948 -0.1243 -0.0355
 1022loPI   GL216014   1.666   2.745   6.369  0.0719  0.0071  0.1715
 1022loPI   C1A16015   2.070   2.547   6.689  0.0888 -0.1566 -0.1774
 1022loPI   C2A16016   2.100   2.550   7.235 -0.0575 -0.1715 -0.0452
 1022loPI   C3A16017   2.114   2.532   7.656  0.0482 -0.0287  0.0006
 1022loPI   C4A16018   2.183   2.490   8.104  0.0405 -0.3121  0.1695
 1022loPI   C5A16019   2.152   2.294   8.421 -0.3187 -0.2005  0.3650
 1022loPI   C6A16020   2.110   2.002   8.733 -0.0242 -0.4023  0.2734
 1022loPI   C1B16021   1.528   2.734   6.700 -0.0940 -0.1417 -0.0257
 1022loPI   C2B16022   1.681   2.658   7.061  0.4443 -0.1143  0.1976
 1022loPI   C3B16023   1.605   2.659   7.483 -0.0377 -0.0468 -0.1390
 1022loPI   C4B16024   1.733   2.695   7.931  0.1046 -0.0339  0.1604
 1023loPI    C116025   0.083   4.975   5.747  0.4608  0.0078 -0.1523
 1023loPI    C216026   0.118   5.152   5.391 -0.0151  0.0317 -0.1939
 1023loPI    C316027  -0.190   5.242   5.629  0.0110 -0.3701 -0.0002
 1023loPI   PO416028   0.379   5.003   5.843 -0.0933  0.1002  0.0345
 1023loPI   GL116029   0.497   4.992   6.285  0.0113  0.0276 -0.0008
 1023loPI   GL216030   0.087   4.974   6.258  0.0321 -0.1600  0.2967
 1023loPI   C1A16031   0.591   4.824   6.641 -0.0173 -0.0335 -0.1370
 1023loPI   C2A16032   0.528   4.722   7.096 -0.1854  0.1343  0.2057
 1023loPI   C3A16033   0.493   4.777   7.589 -0.3553 -0.3126  0.0138
 1023loPI   C4A16034   0.516   4.750   7.957 -0.0794  0.0136 -0.3702
 1023loPI   C5A16035   0.682   4.495   8.346  0.0988  0.0376 -0.1042
 1023loPI   C6A16036   0.754   4.074   8.397  0.1887  0.0333  0.2330
 1023loPI   C1B16037   0.005   4.929   6.643  0.1861  0.0500 -0.1456
 1023loPI   C2B16038   0.041   4.870   7.042 -0.2469 -0.0624  0.2804
 1023loPI   C3B16039   0.009   4.910   7.524 -0.3538  0.1527  0.2390
 1023loPI   C4B16040   0.025   4.888   7.988  0.0646  0.1803  0.0231
 1024loPI    C116041  16.192   8.045   5.699 -0.1245  0.2524  0.0246
 1024loPI    C216042  15.813   8.092   5.819 -0.2189 -0.0073 -0.1617
 1024loPI    C316043  15.893   8.005   5.437  0.0348  0.1140 -0.1387
 1024loPI   PO416044  16.300   7.970   5.934 -0.1302  0.2973 -0.3939
 1024loPI   GL116045  16.568   8.127   6.224  0.1498 -0.1618 -0.1923
 1024loPI   GL216046  16.619   7.792   6.371 -0.0603 -0.1414  0.1396
 1024loPI   C1A16047  16.459   8.367   6.609  0.2193  0.0648 -0.1728
 1024loPI   C2A16048  16.392   8.397   7.142  0.2583  0.0869  0.1561
 1024loPI   C3A16049  16.245   8.377   7.531 -0.2077 -0.0490  0.0955
 1024loPI   C4A16050  16.288   8.302   7.932 -0.1084  0.3134 -0.1002
 1024loPI   C5A16051  16.336   8.229   8.334 -0.0391 -0.1033  0.1336
 1024loPI   C6A16052  16.671   7.881   8.570  0.1152 -0.0052 -0.0254
 1024loPI   C1B16053  16.547   7.827   6.830 -0.0204  0.4158  0.2014
 1024loPI   C2B16054  16.515   7.802   7.306 -0.1773  0.1021 -0.0053
 1024loPI   C3B16055  16.457   7.919   7.657  0.0617  0.1938 -0.2201
 1024loPI   C4B16056  16.483   7.821   8.076  0.2460 -0.0712  0.1477
 1025loPI    C116057  13.648   7.406   5.829 -0.0283  0.1250  0.0460
 1025loPI    C216058  13.625   7.523   5.447 -0.0956  0.1366  0.0535
 1025loPI    C316059  13.454   7.180   5.562 -0.1004  0.1476  0.0790
 1025loPI   PO416060  13.543   7.657   5.939 -0.0626  0.0667 -0.2329
 1025loPI   GL116061  13.548   7.909   6.348 -0.2806 -0.1673 -0.0851
 1025loPI   GL216062  13.262   8.030   6.478 -0.2146 -0.1790  0.0936
 1025loPI   C1A16063  13.725   8.048   6.751  0.2098 -0.1615 -0.2169
 1025loPI   C2A16064  13.682   7.983   7.216 -0.1194  0.0427  0.2658
 1025loPI   C3A16065  13.689   8.093   7.587 -0.0071 -0.1073 -0.1238
 1025loPI   C4A16066  13.652   8.176   8.019  0.4077  0.2022 -0.0633
 1025loPI   C5A16067  13.911   8.221   8.351  0.1096  0.0306 -0.3770
 1025loPI   C6A16068  13.781   8.337   8.816  0.0337  0.0743 -0.1432
 1025loPI   C1B16069  13.153   8.137   6.813 -0.1224 -0.0285 -0.0260
 1025loPI   C2B16070  13.173   8.158   7.246  0.0721  0.1293  0.0003
 1025loPI   C3B16071  13.188   8.192   7.604  0.2237  0.2341 -0.1824
 1025loPI   C4B16072  13.127   8.159   8.036 -0.1391 -0.1409  0.0102
 1026loPI    C116073  17.269  11.781   5.511 -0.1029  0.0274  0.0602
 1026loPI    C216074  17.307  12.149   5.358  0.0109  0.0601  0.1649
 1026loPI    C316075  16.988  11.925   5.265  0.0822  0.0750 -0.1272
 1026loPI   PO416076  17.308  11.783   5.828  0.0535  0.0988  0.0071
 1026loPI   GL116077  17.135  11.916   6.223 -0.1880 -0.0503 -0.0235
 1026loPI   GL216078  17.446  12.055   6.225  0.0735 -0.2523 -0.1366
 1026loPI   C1A16079  17.231  11.814   6.627 -0.0257  0.0825 -0.1857
 1026loPI   C2A16080  17.216  11.808   7.041 -0.1405 -0.1338  0.0665
 1026loPI   C3A16081  17.205  11.818   7.542  0.0326 -0.1175  0.3239
 1026loPI   C4A16082  17.238  11.790   7.973  0.0734  0.0426 -0.0739
 1026loPI   C5A16083  17.493  12.009   8.293 -0.2404 -0.0301 -0.1901
 1026loPI   C6A16084  17.687  12.097   8.613  0.0053  0.2989  0.4011
 1026loPI   C1B16085  17.664  12.217   6.625 -0.0476  0.3744 -0.0133
 1026loPI   C2B16086  17.655  12.186   7.056  0.0423  0.2175  0.2053
 1026loPI   C3B16087  17.676  12.190   7.459 -0.0299 -0.0174  0.0015
 1026loPI   C4B16088  17.559  12.173   7.829 -0.0787  0.0983  0.1858
 1027loPI    C116089  15.439   7.747   5.586  0.2440 -0.0930  0.1758
 1027loPI    C216090  15.520   7.411   5.787 -0.1465 -0.2754  0.0397
 1027loPI    C316091  15.416   7.393   5.402  0.0693  0.0265 -0.0370
 1027loPI   PO416092  15.360   7.913   5.812 -0.1378 -0.0444 -0.2238
 1027loPI   GL116093  15.361   7.715   6.177  0.0638  0.4341 -0.1022
 1027loPI   GL216094  15.412   8.027   6.344 -0.1419  0.2094 -0.2403
 1027loPI   C1A16095  15.250   7.666   6.627  0.3864  0.2467  0.4273
 1027loPI   C2A16096  15.108   7.786   6.968 -0.2697 -0.1550  0.1891
 1027loPI   C3A16097  15.183   7.745   7.430  0.2499 -0.2382 -0.3185
 1027loPI   C4A16098  15.111   7.745   7.868  0.0769  0.0905 -0.1711
 1027loPI   C5A16099  15.119   7.686   8.345  0.0740  0.0112 -0.1744
 1027loPI   C6A16100  14.832   7.530   8.696 -0.0791 -0.3160 -0.1212
 1027loPI   C1B16101  15.573   8.106   6.811  0.1315  0.0146  0.1018
 1027loPI   C2B16102  15.427   8.136   7.246  0.0987 -0.0436  0.1316
 1027loPI   C3B16103  15.383   8.154   7.693  0.1407  0.0387  0.3143
 1027loPI   C4B16104  15.409   8.044   8.088  0.0208  0.1617 -0.0851
 1028loPI    C116105   8.573   6.376   5.738 -0.1190 -0.2589  0.1421
 1028loPI    C216106   8.853   6.101   5.663  0.1095 -0.0269  0.1318
 1028loPI    C316107   8.557   6.161   5.401  0.1286 -0.1753  0.0753
 1028loPI   PO416108   8.442   6.345   5.893 -0.1286 -0.1948  0.2516
 1028loPI   GL116109   8.543   6.314   6.382 -0.2156 -0.1210 -0.1549
 1028loPI   GL216110   8.620   6.017   6.476  0.2301 -0.0269  0.2026
 1028loPI   C1A16111   8.500   6.540   6.712  0.0742  0.0835 -0.2842
 1028loPI   C2A16112   8.495   6.530   7.163  0.0664  0.2078  0.0613
 1028loPI   C3A16113   8.501   6.560   7.589  0.2913 -0.0033  0.2900
 1028loPI   C4A16114   8.461   6.529   8.060 -0.0405 -0.0368  0.1107
 1028loPI   C5A16115   8.210   6.193   8.326 -0.1931 -0.0416 -0.2958
 1028loPI   C6A16116   7.924   5.959   8.417 -0.1330  0.0477 -0.1186
 1028loPI   C1B16117   8.682   6.096   6.850 -0.3405 -0.0867  0.0108
 1028loPI   C2B16118   8.657   6.059   7.309 -0.1976 -0.0178  0.2315
 1028loPI   C3B16119   8.677   5.971   7.634 -0.1965 -0.0478 -0.0375
 1028loPI   C4B16120   8.734   6.104   8.021  0.0756  0.1761  0.0531
 1029loPI    C116121  13.921  13.626   5.815 -0.1586 -0.0208 -0.0141
 1029loPI    C216122  13.961  13.949   5.583  0.0286 -0.1145 -0.1145
 1029loPI    C316123  13.794  13.616   5.436 -0.1040 -0.0858 -0.0309
 1029loPI   PO416124  13.844  13.723   6.110 -0.0993  0.1711  0.1574
 1029loPI   GL116125  13.849  13.487   6.363  0.0909  0.0852 -0.1018
 1029loPI   GL216126  13.643  13.265   6.475  0.0101 -0.1359  0.2221
 1029loPI   C1A16127  14.051  13.562   6.751 -0.0769 -0.2152  0.0029
 1029loPI   C2A16128  14.021  13.540   7.145 -0.1403  0.1822 -0.0606
 1029loPI   C3A16129  14.057  13.521   7.657 -0.0359 -0.0699 -0.3513
 1029loPI   C4A16130  14.082  13.534   8.209  0.1146  0.0246  0.0639
 1029loPI   C5A16131  14.195  13.372   8.597  0.1492 -0.0079 -0.0852
 1029loPI   C6A16132  14.116  13.046   8.751 -0.2116 -0.0245  0.0357
 1029loPI   C1B16133  13.653  13.210   6.941  0.2176 -0.2709 -0.3501
 1029loPI   C2B16134  13.646  13.206   7.464  0.2587 -0.1236 -0.2719
 1029loPI   C3B16135  13.677  13.206   7.935 -0.0336  0.1930  0.1714
 1029loPI   C4B16136  13.752  13.138   8.410 -0.0300  0.1610  0.2972
 1030loPI    C116137  13.784   1.362   5.569  0.2076 -0.0804  0.0062
 1030loPI    C216138  13.927   1.034   5.391  0.3591 -0.0371  0.0472
 1030loPI    C316139  13.972   1.392   5.217  0.1695 -0.0407 -0.0109
 1030loPI   PO416140  13.903   1.314   5.823  0.2358  0.2600  0.1321
 1030loPI   GL116141  13.843   1.230   6.260 -0.0009 -0.1677  0.1282
 1030loPI   GL216142  13.839   1.464   6.356 -0.0684 -0.2029 -0.4321
 1030loPI   C1A16143  13.966   1.047   6.630  0.0147 -0.0640 -0.4113
 1030loPI   C2A16144  13.892   1.075   7.112  0.1806  0.2170  0.1000
 1030loPI   C3A16145  13.903   1.224   7.498 -0.4018  0.5628  0.0843
 1030loPI   C4A16146  14.019   1.133   7.987 -0.0150  0.2344  0.0639
 1030loPI   C5A16147  13.968   1.031   8.472 -0.2574 -0.0326 -0.0547
 1030loPI   C6A16148  13.671   0.850   8.718  0.1562  0.3364  0.0408
 1030loPI   C1B16149  13.679   1.693   6.716 -0.0923  0.2264 -0.0688
 1030loPI   C2B16150  13.763   1.535   7.109  0.2686  0.1662  0.0312
 1030loPI   C3B16151  13.685   1.709   7.437 -0.0298 -0.1835 -0.1603
 1030loPI   C4B16152  13.799   1.604   7.872 -0.1806 -0.0048 -0.0691
 1031loPI    C116153  11.262  15.118   6.018  0.1377 -0.0313  0.0327
 1031loPI    C216154  11.326  15.188   5.630 -0.0307 -0.0236  0.0058
 1031loPI    C316155  11.195  14.829   5.749 -0.1347  0.0242  0.0377
 1031loPI   PO416156  11.158  15.276   6.131  0.3164  0.0591  0.0035
 1031loPI   GL116157  11.295  15.325   6.555 -0.1782 -0.1189 -0.2924
 1031loPI   GL216158  11.388  15.007   6.493  0.1558  0.0757  0.0011
 1031loPI   C1A16159  11.233  15.136   6.941  0.1327 -0.0440 -0.1764
 1031loPI   C2A16160  11.163  15.168   7.391  0.3117 -0.0718 -0.0275
 1031loPI   C3A16161  11.405  15.174   7.858 -0.0140 -0.0501 -0.1024
 1031loPI   C4A16162  11.215  15.057   8.301  0.1296  0.1022  0.3808
 1031loPI   C5A16163  11.176  14.800   8.651  0.0393 -0.2572 -0.1827
 1031loPI   C6A16164  11.042  14.979   9.054  0.3647  0.0252 -0.0746
 1031loPI   C1B16165  11.280  14.688   6.833 -0.2259 -0.0165 -0.1656
 1031loPI   C2B16166  11.416  14.673   7.185 -0.0683 -0.0555 -0.0239
 1031loPI   C3B16167  11.421  14.708   7.701  0.1262 -0.0333 -0.1271
 1031loPI   C4B16168  11.421  14.607   8.085 -0.2335  0.0888 -0.0905
 1032loPI    C116169   2.729   9.960   5.780 -0.3133 -0.3256  0.1547
 1032loPI    C216170   2.391  10.051   5.585  0.0400  0.0868 -0.2906
 1032loPI    C316171   2.570   9.699   5.522 -0.4642 -0.2733  0.1935
 1032loPI   PO416172   2.686  10.051   6.040 -0.0166 -0.1287  0.1540
 1032loPI   GL116173   2.695  10.177   6.409  0.3413 -0.0668 -0.0493
 1032loPI   GL216174   2.477  10.052   6.509  0.1954 -0.1823 -0.1566
 1032loPI   C1A16175   2.961  10.352   6.714 -0.1094 -0.0946  0.3082
 1032loPI   C2A16176   2.840  10.400   7.096 -0.4030 -0.0543 -0.2284
 1032loPI   C3A16177   2.921  10.404   7.511  0.1666 -0.1449 -0.2296
 1032loPI   C4A16178   2.960  10.387   7.922  0.1729  0.2456 -0.2115
 1032loPI   C5A16179   2.854  10.307   8.386  0.1181 -0.0469 -0.2108
 1032loPI   C6A16180   3.163  10.171   8.797  0.0455  0.1262  0.2745
 1032loPI   C1B16181   2.544  10.038   6.948  0.0165 -0.0750 -0.0515
 1032loPI   C2B16182   2.553   9.981   7.395  0.2217  0.2761 -0.0146
 1032loPI   C3B16183   2.568  10.024   7.797 -0.0800  0.2719  0.1198
 1032loPI   C4B16184   2.477   9.995   8.295  0.0037  0.2535  0.1738
 1033loPI    C116185   6.702   5.017   5.888 -0.2831  0.0251  0.1459
 1033loPI    C216186   6.957   4.954   5.587  0.0153  0.3947  0.3128
 1033loPI    C316187   6.569   4.868   5.541  0.1614 -0.1746  0.0552
 1033loPI   PO416188   6.847   5.211   6.010 -0.1772 -0.2542  0.2539
 1033loPI   GL116189   6.743   5.614   6.283 -0.3068 -0.1832 -0.0828
 1033loPI   GL216190   7.006   5.648   6.243 -0.0607 -0.0323 -0.1182
 1033loPI   C1A16191   6.616   5.431   6.637  0.1977  0.0208 -0.1038
 1033loPI   C2A16192   6.503   5.185   7.021  0.1009 -0.1704 -0.2826
 1033loPI   C3A16193   6.575   5.205   7.467  0.1270  0.0884  0.1334
 1033loPI   C4A16194   6.503   5.248   7.894 -0.2187 -0.0370  0.1244
 1033loPI   C5A16195   6.689   5.000   8.307 -0.1333 -0.2244  0.2008
 1033loPI   C6A16196   6.860   4.956   8.693 -0.2517  0.3077 -0.2630
 1033loPI   C1B16197   7.028   5.725   6.638  0.0055 -0.1483  0.1127
 1033loPI   C2B16198   7.021   6.014   6.958  0.0087 -0.0818  0.0005
 1033loPI   C3B16199   6.727   6.113   7.309 -0.0208  0.1641 -0.3015
 1033loPI   C4B16200   6.752   6.125   7.730 -0.1874 -0.4523  0.0217
 1034loPI    C116201   6.956   3.150   5.604 -0.0139  0.0081 -0.0556
 1034loPI    C216202   7.151   3.053   5.268 -0.1280 -0.1699 -0.0717
 1034loPI    C316203   6.751   3.046   5.276 -0.1368  0.1881 -0.0373
 1034loPI   PO416204   7.217   3.058   5.784 -0.1352 -0.0199  0.2325
 1034loPI   GL116205   7.360   3.002   6.179  0.0117  0.1204 -0.0946
 1034loPI   GL216206   7.448   3.329   6.307  0.0640  0.1979 -0.0171
 1034loPI   C1A16207   7.281   2.687   6.469 -0.1996  0.0283  0.0870
 1034loPI   C2A16208   7.297   2.658   6.940  0.3528  0.1875  0.1939
 1034loPI   C3A16209   7.301   2.700   7.350 -0.5128 -0.1500  0.4779
 1034loPI   C4A16210   7.240   2.776   7.743  0.1136  0.2107 -0.1433
 1034loPI   C5A16211   7.365   2.759   8.180  0.2355 -0.1512 -0.0099
 1034loPI   C6A16212   7.424   2.544   8.508  0.0986 -0.1404 -0.2400
 1034loPI   C1B16213   7.296   3.233   6.648 -0.1042 -0.3364  0.0821
 1034loPI   C2B16214   7.139   3.236   7.089  0.2692  0.0526 -0.1187
 1034loPI   C3B16215   7.116   3.245   7.520  0.3456  0.0835 -0.0921
 1034loPI   C4B16216   7.168   3.235   7.999  0.2126 -0.5087  0.0591
 1035loPI    C116217   1.785   5.179   5.764 -0.2124  0.0147 -0.0128
 1035loPI    C216218   1.529   5.482   5.712 -0.1215  0.0617 -0.1956
 1035loPI    C316219   1.889   5.493   5.538  0.2869  0.3246  0.6168
 1035loPI   PO416220   1.760   5.145   6.062  0.1695  0.0308 -0.1023
 1035loPI   GL116221   1.667   5.407   6.368 -0.1574 -0.0994 -0.0866
 1035loPI   GL216222   1.405   5.570   6.537  0.1389  0.1194 -0.0327
 1035loPI   C1A16223   1.858   5.395   6.743 -0.0435 -0.1088 -0.3447
 1035loPI   C2A16224   1.780   5.508   7.153  0.2239  0.0431  0.3399
 1035loPI   C3A16225   1.733   5.598   7.571 -0.1251 -0.0989  0.1006
 1035loPI   C4A16226   1.650   5.316   7.930 -0.3614  0.1173 -0.0543
 1035loPI   C5A16227   1.867   5.449   8.251 -0.1321 -0.1016  0.0749
 1035loPI   C6A16228   1.952   5.418   8.684 -0.1187  0.3347  0.0731
 1035loPI   C1B16229   1.315   5.539   6.917 -0.1248  0.0049 -0.1296
 1035loPI   C2B16230   1.244   5.641   7.343  0.0916  0.2470  0.0062
 1035loPI   C3B16231   1.159   5.573   7.720  0.2157 -0.0995 -0.1640
 1035loPI   C4B16232   1.184   5.430   8.114  0.0334 -0.2414  0.1656
 1036loPI    C116233  13.832   6.186   5.573  0.0205 -0.0206 -0.1074
 1036loPI    C216234  13.694   6.471   5.328 -0.0900 -0.0125 -0.0369
 1036loPI    C316235  14.080   6.365   5.316 -0.0405  0.1658 -0.0381
 1036loPI   PO416236  13.744   6.283   5.787 -0.1430 -0.0595 -0.2625
 1036loPI   GL116237  13.722   6.500   6.221  0.1932  0.3055  0.1469
 1036loPI   GL216238  13.827   6.256   6.376  0.0327  0.1978 -0.2932
 1036loPI   C1A16239  13.567   6.586   6.607 -0.1474  0.1996 -0.1569
 1036loPI   C2A16240  13.577   6.542   7.089  0.0344  0.1377  0.0675
 1036loPI   C3A16241  13.562   6.585   7.513 -0.0762  0.0816  0.0555
 1036loPI   C4A16242  13.614   6.672   7.887 -0.1461 -0.2303  0.3486
 1036loPI   C5A16243  13.571   6.677   8.343 -0.1605  0.1764 -0.3530
 1036loPI   C6A16244  13.687   6.923   8.744  0.1639  0.3019  0.2321
 1036loPI   C1B16245  13.781   6.168   6.863 -0.3201 -0.0374 -0.0521
 1036loPI   C2B16246  13.734   6.099   7.353 -0.2833  0.0440  0.2992
 1036loPI   C3B16247  13.688   6.181   7.829  0.3671 -0.0757  0.1037
 1036loPI   C4B16248  13.694   6.165   8.332  0.1476 -0.0518  0.2287
 1037loPI    C116249  11.933   8.948   5.545  0.2785  0.1309  0.0275
 1037loPI    C216250  12.022   9.328   5.455 -0.0255  0.1914 -0.0318
 1037loPI    C316251  12.046   9.045   5.174  0.3008  0.1449  0.0379
 1037loPI   PO416252  11.811   9.061   5.875 -0.2236 -0.2656 -0.1540
 1037loPI   GL116253  11.743   9.167   6.265 -0.1246 -0.2991 -0.1935
 1037loPI   GL216254  12.031   9.238   6.447  0.2032  0.0206  0.2358
 1037loPI   C1A16255  11.560   9.029   6.638 -0.0963  0.0405  0.0966
 1037loPI   C2A16256  11.541   9.030   7.097 -0.1507  0.3388  0.0493
 1037loPI   C3A16257  11.478   9.025   7.579  0.1731 -0.1727  0.3897
 1037loPI   C4A16258  11.516   9.217   7.987  0.1594 -0.2368  0.1158
 1037loPI   C5A16259  11.556   9.289   8.459 -0.3035 -0.3959  0.0160
 1037loPI   C6A16260  11.797   9.636   8.729  0.4093 -0.0490  0.0993
 1037loPI   C1B16261  11.861   9.381   6.851  0.0327  0.0134  0.2415
 1037loPI   C2B16262  11.892   9.359   7.310 -0.1044 -0.1285  0.0133
 1037loPI   C3B16263  11.890   9.484   7.747  0.0469 -0.1492 -0.1073
 1037loPI   C4B16264  11.839   9.576   8.088  0.0085 -0.0734 -0.1730
 1038loPI    C116265   9.535   6.034   5.630 -0.0556  0.1093 -0.0966
 1038loPI    C216266   9.604   6.384   5.450  0.2836  0.0951 -0.0007
 1038loPI    C316267   9.862   6.082   5.405 -0.1547 -0.2441 -0.3235
 1038loPI   PO416268   9.353   6.123   5.836 -0.0826  0.1428  0.0344
 1038loPI   GL116269   9.374   6.097   6.293 -0.1222 -0.0298 -0.0172
 1038loPI   GL216270   9.652   6.008   6.423  0.3341  0.1339 -0.2212
 1038loPI   C1A16271   9.456   6.247   6.810  0.1406 -0.1779 -0.0668
 1038loPI   C2A16272   9.561   6.294   7.225  0.1382 -0.1374 -0.1270
 1038loPI   C3A16273   9.492   6.269   7.701 -0.1135 -0.2435  0.0113
 1038loPI   C4A16274   9.618   6.347   8.177 -0.0386 -0.3820 -0.1313
 1038loPI   C5A16275   9.746   6.443   8.571 -0.1402 -0.2027  0.0247
 1038loPI   C6A16276   9.820   6.525   8.963  0.2919  0.2313  0.0750
 1038loPI   C1B16277   9.624   5.803   6.781  0.2800  0.0755  0.1588
 1038loPI   C2B16278   9.682   5.808   7.172  0.1217  0.0281 -0.1886
 1038loPI   C3B16279   9.734   5.799   7.574  0.1026  0.0511 -0.3726
 1038loPI   C4B16280   9.721   5.839   8.058 -0.2068  0.2001 -0.0115
 1039loPI    C116281  12.797   1.534   5.742  0.1876 -0.0043 -0.1350
 1039loPI    C216282  12.994   1.813   5.534  0.1448  0.0198 -0.1434
 1039loPI    C316283  12.671   1.639   5.377 -0.0753  0.2645  0.0280
 1039loPI   PO416284  12.854   1.581   5.973 -0.0006  0.1455 -0.1350
 1039loPI   GL116285  12.826   1.511   6.354  0.0019  0.0008 -0.0549
 1039loPI   GL216286  12.425   1.318   6.319 -0.4285 -0.1669  0.1528
 1039loPI   C1A16287  12.852   1.249   6.712 -0.1352  0.0662  0.1745
 1039loPI   C2A16288  12.929   1.289   7.128 -0.1418  0.0492  0.1101
 1039loPI   C3A16289  12.887   1.355   7.601 -0.2014 -0.2360 -0.1214
 1039loPI   C4A16290  12.899   1.452   8.089  0.1687  0.2457  0.1198
 1039loPI   C5A16291  12.651   1.044   8.426  0.1158 -0.0825 -0.0093
 1039loPI   C6A16292  12.380   1.179   8.745  0.0898  0.0384  0.1230
 1039loPI   C1B16293  12.403   1.475   6.745 -0.1071 -0.2022  0.1409
 1039loPI   C2B16294  12.338   1.492   7.196 -0.3777 -0.0745  0.0102
 1039loPI   C3B16295  12.358   1.529   7.628 -0.2860  0.0900  0.0229
 1039loPI   C4B16296  12.446   1.554   8.026 -0.2675  0.1446  0.2343
 1040loPI    C116297   6.866   0.889   5.583  0.2605 -0.0977 -0.0993
 1040loPI    C216298   6.844   0.701   5.230 -0.1700 -0.3131  0.0350
 1040loPI    C316299   6.727   1.082   5.261 -0.0199 -0.2571 -0.0774
 1040loPI   PO416300   6.846   0.703   5.755 -0.0318 -0.2189 -0.0528
 1040loPI   GL116301   6.763   0.691   6.104 -0.2048 -0.2863 -0.1717
 1040loPI   GL216302   6.631   0.833   6.326 -0.3059 -0.3260 -0.1738
 1040loPI   C1A16303   7.018   0.558   6.529  0.0529 -0.2773 -0.2484
 1040loPI   C2A16304   6.980   0.475   6.995 -0.0481 -0.0090 -0.0625
 1040loPI   C3A16305   7.037   0.508   7.416  0.2053 -0.0261  0.4500
 1040loPI   C4A16306   6.982   0.463   7.801 -0.1312 -0.2245 -0.0469
 1040loPI   C5A16307   7.136   0.460   8.173  0.0909 -0.1308  0.2549
 1040loPI   C6A16308   7.090   0.634   8.557 -0.2347 -0.2508 -0.0638
 1040loPI   C1B16309   6.483   0.651   6.691  0.0082 -0.1119 -0.0951
 1040loPI   C2B16310   6.472   0.601   7.145  0.0192 -0.1527  0.3632
 1040loPI   C3B16311   6.559   0.632   7.530  0.0067 -0.0124 -0.1804
 1040loPI   C4B16312   6.481   0.547   8.022 -0.2818 -0.0090  0.0536
 1041loPI    C116313   5.989   4.289   5.605 -0.2351  0.3930 -0.1147
 1041loPI    C216314   5.684   4.104   5.423 -0.0035  0.0272 -0.1407
 1041loPI    C316315   6.015   4.195   5.217  0.0591  0.0707 -0.0224
 1041loPI   PO416316   5.997   4.190   5.852  0.1207 -0.1167  0.1169
 1041loPI   GL116317   5.959   3.969   6.209 -0.0034  0.1911 -0.2255
 1041loPI   GL216318   6.392   4.046   6.112 -0.0070 -0.0463 -0.1742
 1041loPI   C1A16319   6.082   3.966   6.690  0.3088 -0.1383  0.0263
 1041loPI   C2A16320   5.978   4.011   7.136  0.3077  0.0655  0.0402
 1041loPI   C3A16321   5.966   3.863   7.546 -0.1011 -0.1083 -0.1944
 1041loPI   C4A16322   6.029   3.922   7.963  0.1397 -0.2901 -0.2492
 1041loPI   C5A16323   5.942   4.240   8.262 -0.0767  0.0088 -0.0542
 1041loPI   C6A16324   5.708   4.466   8.481  0.2709  0.0250  0.0104
 1041loPI   C1B16325   6.689   3.812   6.408 -0.0140 -0.1671 -0.0440
 1041loPI   C2B16326   7.035   3.641   6.758 -0.3233  0.1773  0.0064
 1041loPI   C3B16327   6.974   3.751   7.154 -0.0786  0.0653 -0.0330
 1041loPI   C4B16328   6.940   4.111   7.329 -0.1306  0.1107 -0.0343
 1042loPI    C116329   3.793  10.334   5.794  0.0380 -0.0992 -0.0623
 1042loPI    C216330   3.743  10.627   5.526  0.1892 -0.2157 -0.2200
 1042loPI    C316331   3.789  10.249   5.403  0.0433 -0.3004 -0.0199
 1042loPI   PO416332   3.604  10.346   6.016  0.1709 -0.2204 -0.1574
 1042loPI   GL116333   3.384  10.128   6.378 -0.2532 -0.1301  0.0195
 1042loPI   GL216334   3.772  10.038   6.349 -0.0613 -0.1857 -0.2560
 1042loPI   C1A16335   3.370  10.225   6.909  0.1511 -0.1298  0.0681
 1042loPI   C2A16336   3.354  10.228   7.382 -0.1617  0.0755  0.1586
 1042loPI   C3A16337   3.465  10.215   7.811 -0.1572  0.2482 -0.3398
 1042loPI   C4A16338   3.424  10.251   8.201  0.2252 -0.0978 -0.3367
 1042loPI   C5A16339   3.294  10.633   8.481 -0.1910 -0.2209  0.3916
 1042loPI   C6A16340   3.518  10.628   8.904  0.1895  0.0095  0.0006
 1042loPI   C1B16341   3.874  10.049   6.831 -0.0195  0.1953 -0.2687
 1042loPI   C2B16342   3.786  10.125   7.318 -0.2650 -0.1696  0.1609
 1042loPI   C3B16343   3.946  10.092   7.755  0.3359 -0.0778 -0.1185
 1042loPI   C4B16344   3.920  10.130   8.201 -0.0432  0.0342  0.1725
 1043loPI    C116345  10.682  11.994   5.661 -0.1138 -0.0735  0.0571
 1043loPI    C216346  10.718  12.177   5.308 -0.1943 -0.0986  0.0356
 1043loPI    C316347  11.028  11.975   5.460 -0.1709 -0.1185 -0.0377
 1043loPI   PO416348  10.587  12.192   5.849  0.0819  0.0878 -0.3803
 1043loPI   GL116349  10.370  12.149   6.178  0.0826 -0.1432 -0.0534
 1043loPI   GL216350  10.097  12.257   6.302  0.0626 -0.0754 -0.0964
 1043loPI   C1A16351  10.580  12.458   6.542 -0.0949  0.0127 -0.3353
 1043loPI   C2A16352  10.571  12.504   6.992  0.0228  0.0377  0.2590
 1043loPI   C3A16353  10.565  12.599   7.414 -0.0127  0.0338 -0.1188
 1043loPI   C4A16354  10.510  12.571   7.864 -0.1212 -0.1203  0.3970
 1043loPI   C5A16355  10.714  12.679   8.333 -0.4841  0.0298 -0.1537
 1043loPI   C6A16356  10.850  12.987   8.709  0.2371 -0.0502  0.0670
 1043loPI   C1B16357  10.223  12.176   6.760  0.0960 -0.0240  0.1324
 1043loPI   C2B16358  10.192  12.191   7.167  0.1059  0.1118 -0.0137
 1043loPI   C3B16359  10.237  12.170   7.617 -0.0810  0.0832  0.0908
 1043loPI   C4B16360  10.139  12.224   8.047  0.0174  0.1413  0.0801
 1044loPI    C116361  14.787  10.409   5.438 -0.0522  0.0945  0.1226
 1044loPI    C216362  15.058  10.639   5.255 -0.1659 -0.0313 -0.2100
 1044loPI    C316363  14.685  10.617   5.113 -0.2911 -0.0369  0.1117
 1044loPI   PO416364  14.745  10.400   5.659 -0.0579  0.0780 -0.2187
 1044loPI   GL116365  14.532  10.623   5.985 -0.0280  0.0987 -0.1367
 1044loPI   GL216366  14.833  10.556   6.138  0.1424 -0.0853  0.3892
 1044loPI   C1A16367  14.356  10.653   6.468 -0.1752  0.0300 -0.2832
 1044loPI   C2A16368  14.302  10.682   6.923  0.2382  0.0827 -0.2256
 1044loPI   C3A16369  14.316  10.684   7.343  0.0721  0.0177  0.3175
 1044loPI   C4A16370  14.248  10.705   7.842  0.0919  0.0240 -0.0920
 1044loPI   C5A16371  14.276  10.596   8.313  0.0673  0.0243  0.0745
 1044loPI   C6A16372  14.199  10.491   8.696  0.0234 -0.0761 -0.0697
 1044loPI   C1B16373  14.846  10.515   6.609  0.2131  0.1189 -0.0444
 1044loPI   C2B16374  14.807  10.632   7.008 -0.0371  0.0043  0.3785
 1044loPI   C3B16375  14.812  10.631   7.492 -0.2376  0.0832 -0.0844
 1044loPI   C4B16376  14.810  10.591   7.838 -0.2353  0.0082 -0.0378
 1045loPI    C116377   0.887  14.318   5.410  0.0833  0.2479  0.1039
 1045loPI    C216378   0.597  14.418   5.154  0.1546 -0.0260 -0.0875
 1045loPI    C316379   0.976  14.515   5.074  0.1930 -0.2238 -0.1519
 1045loPI   PO416380   0.873  14.356   5.679  0.6411 -0.1677  0.2698
 1045loPI   GL116381   0.632  14.327   6.101 -0.0897 -0.0242  0.2862
 1045loPI   GL216382   0.899  14.327   6.176 -0.0517  0.1498 -0.1286
 1045loPI   C1A16383   0.590  14.306   6.588  0.1620  0.0704 -0.0414
 1045loPI   C2A16384   0.601  14.391   7.019 -0.2990 -0.1063  0.0677
 1045loPI   C3A16385   0.604  14.300   7.555  0.0309 -0.0610 -0.0894
 1045loPI   C4A16386   0.538  14.437   7.951  0.0666 -0.1107  0.1222
 1045loPI   C5A16387   0.473  14.362   8.393 -0.2678 -0.2132  0.2125
 1045loPI   C6A16388   0.102  14.350   8.602 -0.1648 -0.2227 -0.1999
 1045loPI   C1B16389   1.070  14.253   6.481 -0.1844 -0.0034  0.0267
 1045loPI   C2B16390   1.056  14.262   6.858  0.2713 -0.0858  0.2054
 1045loPI   C3B16391   1.009  14.285   7.270 -0.1273  0.0418  0.3718
 1045loPI   C4B16392   1.060  14.263   7.691 -0.1915 -0.1474  0.1450
 1046loPI    C116393  12.411   3.466   5.548 -0.0326 -0.2259 -0.1160
 1046loPI    C216394  12.258   3.805   5.401 -0.2004 -0.2891 -0.0903
 1046loPI    C316395  12.580   3.640   5.231 -0.1695 -0.1630 -0.1556
 1046loPI   PO416396  12.453   3.538   5.769  0.0998 -0.0859 -0.1361
 1046loPI   GL116397  12.492   3.599   6.106  0.0363  0.1560 -0.0089
 1046loPI   GL216398  12.115   3.738   6.189 -0.0684 -0.1620  0.0435
 1046loPI   C1A16399  12.580   3.701   6.549  0.1373  0.0688 -0.1923
 1046loPI   C2A16400  12.596   3.612   7.030 -0.0800  0.0165 -0.1145
 1046loPI   C3A16401  12.567   3.762   7.349  0.1983 -0.1125  0.0770
 1046loPI   C4A16402  12.631   3.703   7.709  0.0577  0.2042 -0.0283
 1046loPI   C5A16403  12.652   3.779   8.141  0.3052  0.0809  0.0771
 1046loPI   C6A16404  12.371   3.789   8.498 -0.1206  0.1873 -0.1586
 1046loPI   C1B16405  12.024   3.782   6.601 -0.1725  0.2068  0.0227
 1046loPI   C2B16406  12.102   3.750   7.058 -0.1917 -0.0354 -0.1600
 1046loPI   C3B16407  12.067   3.801   7.456  0.2257 -0.0176 -0.0511
 1046loPI   C4B16408  12.177   3.833   7.875 -0.0104 -0.1967 -0.2626
 1047loPI    C116409   5.258   6.435   5.918 -0.1666 -0.0165 -0.3327
 1047loPI    C216410   5.254   6.060   5.776  0.2297 -0.1403 -0.0332
 1047loPI    C316411   5.547   6.312   5.670  0.0934  0.0128 -0.0501
 1047loPI   PO416412   5.169   6.395   6.179  0.0846 -0.1307 -0.0037
 1047loPI   GL116413   5.283   6.717   6.544  0.6669 -0.0653 -0.1630
 1047loPI   GL216414   5.505   6.925   6.503 -0.1463  0.1240  0.0592
 1047loPI   C1A16415   5.149   6.478   6.823 -0.1324  0.0083 -0.1298
 1047loPI   C2A16416   5.229   6.369   7.375  0.3077  0.1170  0.0932
 1047loPI   C3A16417   5.307   6.483   7.850  0.0601 -0.0093  0.0170
 1047loPI   C4A16418   5.362   6.420   8.326  0.0116  0.3537  0.1528
 1047loPI   C5A16419   5.414   6.748   8.600  0.0209  0.3191 -0.2426
 1047loPI   C6A16420   5.217   6.923   8.854 -0.0496 -0.1085  0.0313
 1047loPI   C1B16421   5.585   6.831   6.934  0.2416 -0.0641  0.0852
 1047loPI   C2B16422   5.676   6.889   7.384  0.0841  0.0739 -0.3515
 1047loPI   C3B16423   5.626   6.883   7.814 -0.0728  0.1486  0.0173
 1047loPI   C4B16424   5.652   6.820   8.197 -0.1025 -0.0282  0.1323
 1048loPI    C116425  16.627   6.000   5.472  0.0452  0.0359  0.0657
 1048loPI    C216426  16.910   5.890   5.212 -0.1381 -0.1586 -0.0550
 1048loPI    C316427  16.663   6.192   5.123  0.0365  0.0190  0.0554
 1048loPI   PO416428  16.730   6.057   5.629 -0.3326  0.0348  0.0345
 1048loPI   GL116429  16.678   5.996   5.991 -0.0758  0.3936  0.1161
 1048loPI   GL216430  16.914   6.101   6.111  0.1440  0.0886 -0.0654
 1048loPI   C1A16431  16.592   5.954   6.417  0.2520 -0.1199  0.0011
 1048loPI   C2A16432  16.614   6.018   6.738  0.0025 -0.0028  0.1141
 1048loPI   C3A16433  16.534   5.949   7.184 -0.4677 -0.2706 -0.4775
 1048loPI   C4A16434  16.664   6.016   7.510 -0.1831 -0.0380 -0.1128
 1048loPI   C5A16435  16.567   5.983   7.900 -0.3751 -0.1374 -0.1149
 1048loPI   C6A16436  16.377   6.044   8.320 -0.0217  0.0641 -0.4274
 1048loPI   C1B16437  17.013   6.365   6.537  0.1818 -0.3136 -0.0381
 1048loPI   C2B16438  16.993   6.349   6.958  0.1177  0.0015  0.0327
 1048loPI   C3B16439  17.010   6.372   7.359 -0.1034 -0.0960  0.1955
 1048loPI   C4B16440  16.896   6.421   7.751 -0.1781  0.0870  0.0621
 1049loPI    C116441  10.775   7.071   5.702  0.2908  0.0522  0.1252
 1049loPI    C216442  10.801   7.430   5.876  0.0706  0.1007  0.0611
 1049loPI    C316443  10.867   7.392   5.483 -0.1040  0.1060  0.0305
 1049loPI   PO416444  10.979   6.916   5.868  0.0701 -0.1731 -0.1018
 1049loPI   GL116445  11.059   6.845   6.301 -0.2440 -0.1553  0.0934
 1049loPI   GL216446  11.308   6.972   6.465  0.1131 -0.0280  0.0208
 1049loPI   C1A16447  10.786   6.974   6.523 -0.1143 -0.0290 -0.3617
 1049loPI   C2A16448  10.643   6.810   6.931  0.0479 -0.1004 -0.1757
 1049loPI   C3A16449  10.665   6.974   7.373  0.1379 -0.2921  0.1060
 1049loPI   C4A16450  10.742   7.047   7.903  0.3252  0.0268  0.0879
 1049loPI   C5A16451  10.824   7.083   8.373 -0.1127 -0.1142  0.1346
 1049loPI   C6A16452  11.101   7.056   8.698 -0.2414 -0.1159 -0.3287
 1049loPI   C1B16453  11.174   6.745   6.863  0.0497 -0.2480 -0.1081
 1049loPI   C2B16454  11.296   6.708   7.248 -0.0064 -0.1320  0.1281
 1049loPI   C3B16455  11.178   6.816   7.643  0.1296  0.2489 -0.0184
 1049loPI   C4B16456  11.294   6.950   8.041 -0.1812 -0.1643 -0.3140
 1050loPI    C116457  11.724   5.318   5.750  0.0681  0.0804  0.0070
 1050loPI    C216458  11.456   5.576   5.896 -0.1088 -0.0415 -0.0975
 1050loPI    C316459  11.445   5.473   5.510  0.1754  0.0565 -0.1344
 1050loPI   PO416460  11.710   5.129   5.939 -0.0746 -0.0527 -0.1066
 1050loPI   GL116461  11.569   5.278   6.280  0.2679  0.1181 -0.0298
 1050loPI   GL216462  11.374   4.975   6.352 -0.2932  0.1626 -0.0125
 1050loPI   C1A16463  11.614   5.308   6.775 -0.3698  0.1534 -0.1933
 1050loPI   C2A16464  11.563   5.340   7.201  0.0490  0.0091  0.1316
 1050loPI   C3A16465  11.669   5.317   7.642 -0.1654  0.1783  0.1158
 1050loPI   C4A16466  11.677   5.405   8.124 -0.1349 -0.1762 -0.1562
 1050loPI   C5A16467  11.667   5.464   8.534 -0.0759  0.0474  0.0950
 1050loPI   C6A16468  11.731   5.402   9.002  0.3344  0.1065 -0.2244
 1050loPI   C1B16469  11.243   4.957   6.780  0.2593 -0.4795  0.0440
 1050loPI   C2B16470  11.237   4.932   7.256 -0.1719  0.1540  0.1987
 1050loPI   C3B16471  11.285   5.004   7.683 -0.1824  0.0958  0.1595
 1050loPI   C4B16472  11.342   5.045   8.166 -0.0687  0.2516  0.1556
 1051loPI    C116473   8.053   9.515   6.012 -0.1926  0.0681  0.1040
 1051loPI    C216474   7.948   9.722   5.686  0.1750 -0.1032 -0.1305
 1051loPI    C316475   7.917   9.323   5.689 -0.2017 -0.0779  0.1936
 1051loPI   PO416476   7.964   9.599   6.247  0.0950  0.0415 -0.1003
 1051loPI   GL116477   7.945   9.310   6.581  0.0041  0.0345  0.1518
 1051loPI   GL216478   8.170   9.430   6.706 -0.1079  0.1768  0.3573
 1051loPI   C1A16479   7.783   9.062   6.888  0.0375  0.0307 -0.0259
 1051loPI   C2A16480   7.828   9.031   7.375  0.0485  0.0064  0.0639
 1051loPI   C3A16481   7.836   9.053   7.829  0.2002 -0.0587 -0.0102
 1051loPI   C4A16482   7.781   9.098   8.267 -0.0421  0.1318  0.0657
 1051loPI   C5A16483   7.777   9.036   8.638  0.1482 -0.1259 -0.4638
 1051loPI   C6A16484   7.761   9.056   9.134  0.0193  0.0594  0.1584
 1051loPI   C1B16485   8.130   9.324   7.104  0.2204 -0.0973  0.0556
 1051loPI   C2B16486   8.173   9.335   7.575 -0.0475  0.1481 -0.2168
 1051loPI   C3B16487   8.142   9.457   8.014 -0.2258  0.0205 -0.1646
 1051loPI   C4B16488   8.137   9.500   8.441 -0.2153  0.3000 -0.1791
 1052loPI    C116489  15.506   8.944   5.590  0.3674 -0.0921  0.1414
 1052loPI    C216490  15.356   8.656   5.357  0.2171  0.0295  0.0863
 1052loPI    C316491  15.606   8.927   5.203  0.2413  0.0166  0.1030
 1052loPI   PO416492  15.589   8.893   5.748 -0.1153  0.3152 -0.0157
 1052loPI   GL116493  15.600   9.012   6.187 -0.1123  0.1132  0.0384
 1052loPI   GL216494  15.506   9.242   6.379  0.0264 -0.0118 -0.1742
 1052loPI   C1A16495  15.664   8.939   6.685 -0.0793  0.0995 -0.1516
 1052loPI   C2A16496  15.705   9.026   7.077 -0.1534  0.1254 -0.1258
 1052loPI   C3A16497  15.675   9.073   7.429 -0.1418 -0.2116 -0.0763
 1052loPI   C4A16498  15.601   8.995   7.923  0.0008 -0.0743  0.0189
 1052loPI   C5A16499  15.575   8.996   8.377  0.2694 -0.0154  0.1250
 1052loPI   C6A16500  15.620   8.665   8.675 -0.4258  0.0951 -0.5074
 1052loPI   C1B16501  15.551   9.408   6.797  0.3542  0.0573  0.2262
 1052loPI   C2B16502  15.583   9.529   7.220  0.0009 -0.2028  0.1557
 1052loPI   C3B16503  15.532   9.495   7.674  0.0892  0.2492  0.1686
 1052loPI   C4B16504  15.473   9.443   8.174  0.0943  0.2206  0.0798
 1053loPI    C116505  17.149  10.634   5.545 -0.2080  0.1890 -0.0203
 1053loPI    C216506  17.120  10.685   5.149 -0.0322  0.1333 -0.0410
 1053loPI    C316507  17.066  10.322   5.309 -0.0719  0.1498 -0.0170
 1053loPI   PO416508  17.358  10.783   5.709  0.1635  0.1915  0.2460
 1053loPI   GL116509  17.336  10.764   6.187  0.2451 -0.1237 -0.0365
 1053loPI   GL216510  17.531  10.922   6.458 -0.1719  0.0980 -0.4699
 1053loPI   C1A16511  17.148  10.531   6.506  0.2202  0.0701 -0.0419
 1053loPI   C2A16512  17.082  10.466   6.901 -0.2232 -0.0658 -0.0209
 1053loPI   C3A16513  17.148  10.453   7.344  0.0178  0.1866 -0.1626
 1053loPI   C4A16514  17.134  10.389   7.846  0.1591 -0.3914  0.1889
 1053loPI   C5A16515  17.214  10.393   8.352 -0.1034 -0.5409  0.1735
 1053loPI   C6A16516  17.263  10.656   8.582  0.0767  0.2641 -0.2108
 1053loPI   C1B16517  17.490  10.804   6.919 -0.0282  0.1172  0.0882
 1053loPI   C2B16518  17.476  10.832   7.323 -0.0233  0.3882  0.1042
 1053loPI   C3B16519  17.524  10.769   7.739 -0.3834 -0.1002 -0.0066
 1053loPI   C4B16520  17.525  10.725   8.124 -0.1118  0.0073 -0.2092
 1054loPI    C116521   9.708   1.980   5.823  0.0110  0.0468 -0.0713
 1054loPI    C216522  10.044   2.036   5.613  0.0178 -0.0797 -0.0950
 1054loPI    C316523   9.820   1.711   5.549 -0.0125 -0.0884  0.0504
 1054loPI   PO416524   9.836   1.966   6.118  0.2493 -0.1257 -0.1784
 1054loPI   GL116525   9.899   2.183   6.399 -0.0833  0.0531  0.2173
 1054loPI   GL216526  10.209   2.336   6.523 -0.1192  0.0684  0.1667
 1054loPI   C1A16527   9.828   2.014   6.813  0.2060 -0.0475  0.0866
 1054loPI   C2A16528   9.825   1.996   7.203 -0.3948 -0.0246 -0.2094
 1054loPI   C3A16529   9.811   2.046   7.593  0.1451 -0.0408  0.1506
 1054loPI   C4A16530   9.799   2.121   8.012  0.1464  0.2108 -0.1082
 1054loPI   C5A16531   9.866   2.284   8.434 -0.0357 -0.0080 -0.1003
 1054loPI   C6A16532  10.010   2.312   8.842 -0.1567  0.1164 -0.2134
 1054loPI   C1B16533  10.171   2.418   7.003 -0.0952 -0.4284 -0.1640
 1054loPI   C2B16534  10.297   2.556   7.352  0.0381 -0.2151  0.1778
 1054loPI   C3B16535  10.117   2.542   7.795 -0.1299 -0.0580  0.0053
 1054loPI   C4B16536  10.233   2.581   8.220  0.3820  0.0029  0.1818
 1055loPI    C116537   6.021   6.382   5.763 -0.0695 -0.0442  0.0659
 1055loPI    C216538   5.902   6.730   5.606 -0.0253 -0.0101  0.1076
 1055loPI    C316539   6.287   6.625   5.590 -0.0269 -0.0244  0.1583
 1055loPI   PO416540   5.971   6.388   6.033 -0.2886 -0.0408  0.1201
 1055loPI   GL116541   5.676   6.225   6.321 -0.0018 -0.0747 -0.0428
 1055loPI   GL216542   5.755   5.879   6.392 -0.1941 -0.0850 -0.0378
 1055loPI   C1A16543   5.680   6.411   6.723  0.1500  0.0478 -0.0686
 1055loPI   C2A16544   5.765   6.317   7.139  0.1396 -0.2208 -0.0465
 1055loPI   C3A16545   5.709   6.383   7.555  0.1736  0.2083  0.0656
 1055loPI   C4A16546   5.761   6.393   7.979  0.0156 -0.1908  0.0853
 1055loPI   C5A16547   5.916   6.355   8.363  0.0636 -0.0038 -0.0973
 1055loPI   C6A16548   6.202   6.273   8.710  0.1573  0.2160 -0.1171
 1055loPI   C1B16549   5.802   5.781   6.825 -0.1079 -0.0106  0.2265
 1055loPI   C2B16550   5.813   5.799   7.289  0.1566 -0.1513 -0.0877
 1055loPI   C3B16551   5.905   5.834   7.752 -0.0086  0.1137  0.0536
 1055loPI   C4B16552   5.936   5.892   8.120 -0.0640 -0.3848  0.1894
 1056loPI    C116553   7.772   2.986   5.575 -0.2313  0.0316  0.0171
 1056loPI    C216554   7.629   3.231   5.293 -0.1839 -0.1466 -0.1644
 1056loPI    C316555   7.886   2.941   5.194  0.0380 -0.0464  0.1044
 1056loPI   PO416556   7.883   3.066   5.836  0.0358 -0.1316 -0.2700
 1056loPI   GL116557   7.912   3.291   6.214  0.3317 -0.0157  0.1386
 1056loPI   GL216558   7.872   3.634   6.257 -0.2064 -0.0822  0.1992
 1056loPI   C1A16559   7.711   3.018   6.538 -0.3316 -0.1748  0.2345
 1056loPI   C2A16560   7.629   3.028   6.991 -0.2766 -0.0399  0.2018
 1056loPI   C3A16561   7.678   3.038   7.403  0.1097  0.2293 -0.0012
 1056loPI   C4A16562   7.696   3.078   7.797  0.1182  0.0253  0.2878
 1056loPI   C5A16563   7.766   3.149   8.237 -0.1428 -0.2576  0.0091
 1056loPI   C6A16564   7.367   3.159   8.572  0.0201 -0.2071 -0.0538
 1056loPI   C1B16565   7.950   3.493   6.633  0.0263 -0.1505  0.3003
 1056loPI   C2B16566   8.047   3.371   7.060  0.1367  0.0059 -0.2373
 1056loPI   C3B16567   7.980   3.436   7.544 -0.1258 -0.1026  0.0473
 1056loPI   C4B16568   7.981   3.530   8.034 -0.1073 -0.1039  0.2277
 1057loPI    C116569   1.665   4.240   5.801 -0.2999  0.1484  0.0205
 1057loPI    C216570   1.539   3.996   5.511  0.0557  0.2297 -0.2081
 1057loPI    C316571   1.566   4.389   5.444  0.0027  0.2670 -0.0167
 1057loPI   PO416572   1.564   4.237   5.988 -0.0502 -0.1293 -0.2870
 1057loPI   GL116573   1.198   4.490   6.180  0.0505 -0.0328 -0.2679
 1057loPI   GL216574   0.919   4.277   6.375  0.0467  0.0049 -0.0304
 1057loPI   C1A16575   1.085   4.662   6.659 -0.0269 -0.0383  0.0321
 1057loPI   C2A16576   1.043   4.703   7.011 -0.0695  0.1390 -0.0164
 1057loPI   C3A16577   1.031   4.666   7.443 -0.0111 -0.0325 -0.0085
 1057loPI   C4A16578   1.030   4.609   7.798  0.2648 -0.0215  0.0218
 1057loPI   C5A16579   1.152   4.445   8.199 -0.0330 -0.5192 -0.2555
 1057loPI   C6A16580   1.639   4.555   8.336  0.0193  0.1736  0.2402
 1057loPI   C1B16581   0.677   4.377   6.726  0.0209  0.0979  0.2994
 1057loPI   C2B16582   0.673   4.249   7.144  0.0657 -0.0433  0.2522
 1057loPI   C3B16583   0.735   4.252   7.576 -0.3550 -0.2408 -0.0008
 1057loPI   C4B16584   0.716   4.250   7.927  0.0944  0.2073 -0.0296
 1058loPI    C116585  17.165   7.733   5.536  0.0545 -0.0640  0.3246
 1058loPI    C216586  17.326   7.415   5.355 -0.1518 -0.0930  0.1885
 1058loPI    C316587  17.237   7.742   5.143 -0.0674  0.0059  0.3035
 1058loPI   PO416588  17.279   7.729   5.781  0.0013  0.0452 -0.2294
 1058loPI   GL116589  17.130   7.555   6.213  0.3372 -0.0248 -0.1608
 1058loPI   GL216590  17.157   7.167   6.232 -0.0522  0.0656 -0.0713
 1058loPI   C1A16591  17.025   7.764   6.650  0.1371 -0.3269 -0.0262
 1058loPI   C2A16592  17.068   7.693   7.190  0.0398 -0.0876  0.0249
 1058loPI   C3A16593  16.968   7.744   7.638 -0.1085  0.1016  0.2046
 1058loPI   C4A16594  16.969   7.720   8.148  0.2389  0.0510 -0.1086
 1058loPI   C5A16595  17.126   7.671   8.553  0.0927  0.1311  0.4856
 1058loPI   C6A16596  16.972   7.602   9.004  0.0474 -0.0817 -0.0518
 1058loPI   C1B16597  17.201   7.237   6.724  0.2258  0.0175  0.2482
 1058loPI   C2B16598  17.165   7.233   7.115  0.1152  0.2427 -0.1552
 1058loPI   C3B16599  17.153   7.275   7.529 -0.2897  0.1361 -0.0644
 1058loPI   C4B16600  17.087   7.267   7.948 -0.0527 -0.2841  0.1126
 1059loPI    C116601   1.182   7.881   5.883 -0.1040 -0.0447 -0.0448
 1059loPI    C216602   1.552   7.962   5.755 -0.1120  0.1603  0.0575
 1059loPI    C316603   1.246   7.961   5.497 -0.0537  0.0751 -0.0120
 1059loPI   PO416604   1.217   7.586   6.006 -0.3280 -0.2208 -0.1973
 1059loPI   GL116605   1.294   7.484   6.434 -0.0498  0.2420  0.0431
 1059loPI   GL216606   1.371   7.713   6.568  0.0634 -0.0345 -0.2935
 1059loPI   C1A16607   1.019   7.417   6.854 -0.0744 -0.3982  0.0793
 1059loPI   C2A16608   0.962   7.338   7.309  0.1171 -0.2824 -0.0934
 1059loPI   C3A16609   0.986   7.259   7.701 -0.1015  0.4115  0.1114
 1059loPI   C4A16610   1.033   7.296   8.132 -0.2454  0.1164 -0.1276
 1059loPI   C5A16611   0.770   7.511   8.461  0.2449 -0.0452 -0.0081
 1059loPI   C6A16612   0.807   7.840   8.690  0.2596 -0.0591 -0.1865
 1059loPI   C1B16613   1.268   7.801   7.047  0.1873 -0.0569 -0.4646
 1059loPI   C2B16614   1.324   7.628   7.592 -0.1566  0.0133  0.0043
 1059loPI   C3B16615   1.402   7.593   7.962  0.0183  0.1042  0.1758
 1059loPI   C4B16616   1.304   7.653   8.453 -0.1279  0.0195 -0.1181
 1060loPI    C116617   9.239   9.328   6.070 -0.2530  0.0384  0.0286
 1060loPI    C216618   9.173   9.507   5.718 -0.3002 -0.1693 -0.0703
 1060loPI    C316619   9.132   9.111   5.751 -0.3931 -0.1398  0.1943
 1060loPI   PO416620   9.087   9.593   6.207 -0.2204  0.0334  0.3336
 1060loPI   GL116621   8.904   9.708   6.636 -0.0269 -0.0387  0.1353
 1060loPI   GL216622   8.577   9.748   6.835 -0.0371  0.0127  0.3300
 1060loPI   C1A16623   9.066   9.636   7.016 -0.0206 -0.0085  0.0398
 1060loPI   C2A16624   9.012   9.629   7.502 -0.0260  0.3216 -0.0566
 1060loPI   C3A16625   8.992   9.730   8.006  0.1113  0.0945 -0.0167
 1060loPI   C4A16626   8.988   9.864   8.457 -0.1314 -0.0309  0.3746
 1060loPI   C5A16627   8.845   9.652   8.805 -0.0205  0.1390  0.0611
 1060loPI   C6A16628   8.440   9.719   9.004 -0.1374 -0.0726  0.0840
 1060loPI   C1B16629   8.598   9.740   7.241  0.3124  0.3132 -0.0269
 1060loPI   C2B16630   8.517   9.856   7.613 -0.0928  0.2271 -0.2612
 1060loPI   C3B16631   8.523   9.921   8.118  0.2519  0.1570  0.0733
 1060loPI   C4B16632   8.446   9.939   8.563  0.0925  0.1225 -0.0409
 1061loPI    C116633  16.595   2.274   5.764  0.0564  0.0570 -0.1583
 1061loPI    C216634  16.227   2.161   5.654 -0.0107  0.1137  0.0053
 1061loPI    C316635  16.541   2.067   5.426 -0.0811 -0.2797  0.0643
 1061loPI   PO416636  16.574   2.277   6.044 -0.2342  0.2968  0.2572
 1061loPI   GL116637  16.355   2.185   6.398 -0.1879  0.3196  0.2836
 1061loPI   GL216638  16.344   2.389   6.544 -0.1423 -0.1029  0.4165
 1061loPI   C1A16639  16.507   1.877   6.697  0.2003 -0.3752  0.2223
 1061loPI   C2A16640  16.581   1.840   7.172  0.1673  0.2861 -0.3679
 1061loPI   C3A16641  16.574   1.862   7.571  0.0420 -0.0844 -0.2897
 1061loPI   C4A16642  16.607   1.870   8.031 -0.0156  0.1270 -0.0628
 1061loPI   C5A16643  16.621   1.934   8.524  0.0212 -0.2701  0.2051
 1061loPI   C6A16644  16.882   2.316   8.813 -0.1514  0.0707  0.0630
 1061loPI   C1B16645  16.354   2.266   6.971  0.1376 -0.1238  0.0114
 1061loPI   C2B16646  16.428   2.373   7.405  0.0650  0.2929  0.0956
 1061loPI   C3B16647  16.490   2.396   7.816 -0.0748  0.2175 -0.0994
 1061loPI   C4B16648  16.455   2.355   8.312  0.2966 -0.0226 -0.3701
 1062loPI    C116649  11.219   6.538   5.504 -0.0127  0.2013 -0.0095
 1062loPI    C216650  11.219   6.934   5.446 -0.1796  0.2130  0.0660
 1062loPI    C316651  11.041   6.693   5.181  0.1060  0.1705 -0.0903
 1062loPI   PO416652  11.168   6.504   5.756 -0.3534  0.0761  0.1868
 1062loPI   GL116653  11.209   6.356   6.210  0.0333  0.1696 -0.0711
 1062loPI   GL216654  11.393   6.475   6.289 -0.0073 -0.0845 -0.1071
 1062loPI   C1A16655  10.893   6.456   6.554  0.2790 -0.0270 -0.1527
 1062loPI   C2A16656  10.894   6.369   6.944  0.1487 -0.0649 -0.1892
 1062loPI   C3A16657  10.888   6.491   7.351 -0.2637  0.0512  0.0503
 1062loPI   C4A16658  10.879   6.427   7.841  0.0856  0.0889 -0.0347
 1062loPI   C5A16659  10.951   6.653   8.202 -0.2294  0.0146  0.0780
 1062loPI   C6A16660  11.322   6.666   8.487  0.3378  0.2205  0.3038
 1062loPI   C1B16661  11.418   6.366   6.725  0.0997 -0.1008 -0.3234
 1062loPI   C2B16662  11.442   6.279   7.065 -0.0944  0.0907  0.1158
 1062loPI   C3B16663  11.406   6.333   7.528  0.0152  0.0212  0.1566
 1062loPI   C4B16664  11.404   6.346   7.971  0.2697  0.1575  0.4688
 1063loPI    C116665  13.181  15.287   5.913 -0.0841  0.1256 -0.1305
 1063loPI    C216666  12.916  15.242   5.617 -0.0995  0.2752 -0.1400
 1063loPI    C316667  13.285  15.375   5.537 -0.0628  0.1930 -0.1089
 1063loPI   PO416668  13.093  15.420   6.054  0.0662  0.0209 -0.1706
 1063loPI   GL116669  12.757  15.441   6.412  0.1459  0.2752  0.0526
 1063loPI   GL216670  12.624  15.370   6.611  0.1417 -0.2517  0.2435
 1063loPI   C1A16671  12.977  15.682   6.696  0.0564 -0.3478  0.1705
 1063loPI   C2A16672  13.010  15.680   7.166  0.2698  0.2600  0.0598
 1063loPI   C3A16673  13.075  15.656   7.632  0.0904 -0.3107 -0.0881
 1063loPI   C4A16674  12.948  15.755   7.962 -0.0887 -0.1946  0.0360
 1063loPI   C5A16675  12.892  15.615   8.353 -0.0132  0.0459 -0.0170
 1063loPI   C6A16676  12.611  15.371   8.710 -0.1917 -0.0709  0.0130
 1063loPI   C1B16677  12.651  15.356   6.994  0.0498  0.2957 -0.1580
 1063loPI   C2B16678  12.640  15.253   7.359  0.1123 -0.0248 -0.3478
 1063loPI   C3B16679  12.659  15.306   7.801 -0.0197  0.1829  0.0297
 1063loPI   C4B16680  12.608  15.211   8.232 -0.2423 -0.1540 -0.0226
 1064loPI    C116681  10.931   1.497   5.731 -0.0355  0.1073 -0.0920
 1064loPI    C216682  11.112   1.171   5.587  0.0900  0.1115  0.0538
 1064loPI    C316683  11.173   1.526   5.413  0.2982  0.1287  0.1584
 1064loPI   PO416684  11.026   1.490   6.069  0.2319  0.2107 -0.2463
 1064loPI   GL116685  10.998   1.590   6.452  0.0708  0.0106 -0.0181
 1064loPI   GL216686  10.884   1.850   6.605  0.4564  0.1428 -0.3022
 1064loPI   C1A16687  10.987   1.346   6.798 -0.0468  0.0541  0.1140
 1064loPI   C2A16688  11.038   1.438   7.261  0.1574 -0.2347 -0.0269
 1064loPI   C3A16689  11.036   1.425   7.712 -0.1004  0.1853  0.3129
 1064loPI   C4A16690  11.026   1.525   8.103 -0.1006  0.3056  0.0245
 1064loPI   C5A16691  10.743   1.440   8.377  0.2685 -0.2401  0.1415
 1064loPI   C6A16692  10.444   1.578   8.813  0.0042  0.0520  0.1823
 1064loPI   C1B16693  10.871   1.852   7.033 -0.0157 -0.0692 -0.1496
 1064loPI   C2B16694  10.937   1.900   7.408 -0.2902  0.1738 -0.0640
 1064loPI   C3B16695  10.824   1.958   7.837 -0.1112  0.0447  0.0889
 1064loPI   C4B16696  10.753   1.967   8.225  0.0187  0.1719  0.1549
 1065loPI    C116697   5.197   2.552   5.588 -0.0565  0.0786  0.1062
 1065loPI    C216698   4.828   2.587   5.438 -0.0936 -0.2164  0.1234
 1065loPI    C316699   5.137   2.520   5.193 -0.0251  0.1942  0.0918
 1065loPI   PO416700   5.218   2.527   5.821 -0.0612 -0.0864  0.0063
 1065loPI   GL116701   4.998   2.507   6.177  0.0699  0.2290 -0.2552
 1065loPI   GL216702   5.061   2.854   6.213  0.0373 -0.0814 -0.0404
 1065loPI   C1A16703   5.050   2.279   6.631  0.5803 -0.3531  0.0085
 1065loPI   C2A16704   5.058   2.336   7.089  0.0098 -0.0251 -0.0058
 1065loPI   C3A16705   5.079   2.375   7.462  0.1632 -0.1243 -0.0573
 1065loPI   C4A16706   5.103   2.277   7.821 -0.0149 -0.0473 -0.1498
 1065loPI   C5A16707   5.159   2.085   8.210  0.0220 -0.1752  0.2964
 1065loPI   C6A16708   5.095   1.975   8.588  0.0280  0.0414 -0.2773
 1065loPI   C1B16709   4.941   2.851   6.619 -0.1604 -0.0400  0.2341
 1065loPI   C2B16710   4.887   2.923   7.051 -0.0097  0.1234 -0.0867
 1065loPI   C3B16711   4.888   2.845   7.489  0.0302 -0.0650 -0.0856
 1065loPI   C4B16712   4.802   2.880   7.869 -0.1584  0.0531  0.2212
 1066loPI    C116713  15.214   0.371   5.554 -0.0308 -0.1684  0.0417
 1066loPI    C216714  15.183   0.577   5.213  0.0564  0.0014  0.1346
 1066loPI    C316715  15.109   0.184   5.217 -0.0534  0.0186 -0.0565
 1066loPI   PO416716  15.105   0.489   5.737  0.1209  0.1488  0.0404
 1066loPI   GL116717  14.953   0.413   6.118  0.1718 -0.2936 -0.0187
 1066loPI   GL216718  15.203   0.791   6.193  0.0628  0.1140 -0.3792
 1066loPI   C1A16719  14.684   0.511   6.512  0.3965  0.1356  0.0551
 1066loPI   C2A16720  14.615   0.584   6.884 -0.1664  0.1224 -0.1133
 1066loPI   C3A16721  14.659   0.500   7.357 -0.0656 -0.0875 -0.0111
 1066loPI   C4A16722  14.595   0.466   7.759 -0.1224  0.3886  0.1379
 1066loPI   C5A16723  14.643   0.473   8.205  0.2514 -0.2800 -0.4624
 1066loPI   C6A16724  14.480   0.579   8.644  0.1013 -0.3179  0.1167
 1066loPI   C1B16725  15.532   0.822   6.585  0.0010 -0.0932  0.0466
 1066loPI   C2B16726  15.582   0.742   6.922  0.2918  0.0211  0.1694
 1066loPI   C3B16727  15.519   0.710   7.335  0.1348  0.1699 -0.0112
 1066loPI   C4B16728  15.544   0.726   7.751  0.2933  0.0387  0.2047
 1067loPI    C116729   6.223   1.321   5.570  0.0180  0.0612  0.0568
 1067loPI    C216730   6.238   1.522   5.224 -0.1074 -0.2642 -0.1419
 1067loPI    C316731   6.238   1.122   5.224  0.1361 -0.2698  0.2477
 1067loPI   PO416732   6.058   1.371   5.702  0.0944 -0.0402 -0.2524
 1067loPI   GL116733   5.910   1.363   6.118 -0.2076 -0.0047  0.1527
 1067loPI   GL216734   6.186   1.481   6.220 -0.2051  0.4069 -0.0157
 1067loPI   C1A16735   5.771   1.214   6.456 -0.2874  0.3184 -0.0445
 1067loPI   C2A16736   5.894   1.264   6.824  0.2497 -0.0055 -0.0336
 1067loPI   C3A16737   5.846   1.211   7.142 -0.1014  0.5510  0.0511
 1067loPI   C4A16738   5.842   1.206   7.542  0.0610  0.1410  0.0515
 1067loPI   C5A16739   5.914   1.220   7.985  0.0084 -0.3035  0.0646
 1067loPI   C6A16740   5.797   1.041   8.320 -0.0628 -0.0994  0.0001
 1067loPI   C1B16741   6.241   1.646   6.566 -0.0692  0.1296  0.2070
 1067loPI   C2B16742   6.259   1.596   7.021 -0.0529  0.0718  0.0445
 1067loPI   C3B16743   6.240   1.673   7.469  0.1687  0.1475  0.0701
 1067loPI   C4B16744   6.307   1.596   7.952  0.1066  0.1256 -0.2574
 1068loPI    C116745   3.017   4.490   5.839 -0.2361  0.1483 -0.0786
 1068loPI    C216746   3.221   4.726   5.588  0.1043 -0.0895 -0.0318
 1068loPI    C316747   3.113   4.358   5.474 -0.1235 -0.0400  0.0183
 1068loPI   PO416748   3.140   4.429   6.075 -0.2346  0.0204  0.2886
 1068loPI   GL116749   3.162   4.129   6.367  0.0109 -0.1073  0.2473
 1068loPI   GL216750   3.455   4.059   6.266 -0.3608 -0.0829 -0.0386
 1068loPI   C1A16751   3.121   4.274   6.782  0.0423 -0.0783  0.0498
 1068loPI   C2A16752   3.049   4.314   7.104 -0.0020  0.2152 -0.1130
 1068loPI   C3A16753   3.016   4.173   7.571  0.0154 -0.2121 -0.1180
 1068loPI   C4A16754   3.153   4.092   8.033 -0.0343 -0.2096 -0.2116
 1068loPI   C5A16755   3.438   3.800   8.353  0.2230 -0.0742  0.0744
 1068loPI   C6A16756   3.449   3.394   8.573  0.1099  0.0833 -0.0251
 1068loPI   C1B16757   3.593   4.026   6.626 -0.0030 -0.0203  0.2320
 1068loPI   C2B16758   3.525   4.097   6.967 -0.0346 -0.1782 -0.1430
 1068loPI   C3B16759   3.556   4.116   7.358  0.1542  0.2021 -0.1170
 1068loPI   C4B16760   3.588   4.189   7.759  0.0952  0.3155 -0.0872
 1069loPI    C116761  16.448  10.675   5.776  0.1969  0.2334  0.1010
 1069loPI    C216762  16.608  10.384   5.553 -0.2724  0.1316 -0.1150
 1069loPI    C316763  16.656  10.767   5.446 -0.1760  0.1022 -0.1781
 1069loPI   PO416764  16.511  10.685   6.020  0.2873 -0.0493  0.3491
 1069loPI   GL116765  16.514  10.494   6.361 -0.0018  0.2255  0.0972
 1069loPI   GL216766  16.146  10.675   6.439  0.1450 -0.4572 -0.2565
 1069loPI   C1A16767  16.647  10.598   6.746 -0.3415 -0.1129  0.1303
 1069loPI   C2A16768  16.652  10.657   7.148  0.0947 -0.0956 -0.0954
 1069loPI   C3A16769  16.611  10.549   7.555  0.1151  0.3730 -0.1930
 1069loPI   C4A16770  16.553  10.544   7.986  0.0212 -0.0446 -0.2120
 1069loPI   C5A16771  16.674  10.629   8.411  0.1810 -0.4406 -0.2962
 1069loPI   C6A16772  16.736  10.801   8.867  0.1202  0.3392  0.2613
 1069loPI   C1B16773  16.170  10.747   6.872 -0.0009  0.1643  0.1914
 1069loPI   C2B16774  16.131  10.703   7.311  0.0961 -0.0917 -0.1601
 1069loPI   C3B16775  16.163  10.760   7.728 -0.1175 -0.3022  0.1153
 1069loPI   C4B16776  16.085  10.664   8.221 -0.0562 -0.0480  0.0149
 1070loPI    C116777   5.286   4.673   5.770  0.0196  0.1732 -0.1635
 1070loPI    C216778   4.982   4.706   5.511 -0.0861 -0.0422 -0.0698
 1070loPI    C316779   5.216   4.382   5.504  0.1664  0.1389 -0.1651
 1070loPI   PO416780   5.201   4.688   6.075 -0.0759 -0.3488  0.0167
 1070loPI   GL116781   5.219   4.583   6.481  0.1882  0.0168 -0.1820
 1070loPI   GL216782   5.441   4.380   6.419  0.1791  0.0726 -0.1123
 1070loPI   C1A16783   5.218   4.591   6.911  0.0504 -0.3325  0.1459
 1070loPI   C2A16784   5.315   4.487   7.354  0.0426  0.0470  0.3412
 1070loPI   C3A16785   5.338   4.478   7.708 -0.0865 -0.2261  0.0710
 1070loPI   C4A16786   5.316   4.575   8.132  0.0211  0.1205 -0.2433
 1070loPI   C5A16787   5.194   4.839   8.494 -0.4193 -0.0966  0.1813
 1070loPI   C6A16788   5.426   5.013   8.854 -0.3596 -0.0471 -0.1089
 1070loPI   C1B16789   5.376   4.089   6.800 -0.1126  0.1321 -0.0455
 1070loPI   C2B16790   5.423   4.044   7.200  0.0034  0.0295 -0.2255
 1070loPI   C3B16791   5.475   4.004   7.683 -0.0731 -0.2307 -0.1978
 1070loPI   C4B16792   5.476   4.127   8.078  0.1440 -0.3022  0.1171
 1071loPI    C116793   5.606   0.572   5.335  0.1178  0.0058 -0.2974
 1071loPI    C216794   5.692   0.936   5.194  0.0634  0.2293  0.2251
 1071loPI    C316795   5.972   0.651   5.195  0.1273  0.2863 -0.1207
 1071loPI   PO416796   5.528   0.616   5.553  0.2100 -0.1489  0.2115
 1071loPI   GL116797   5.367   0.537   6.031  0.4271 -0.2500 -0.0275
 1071loPI   GL216798   5.519   0.815   6.207 -0.0409  0.2267  0.3419
 1071loPI   C1A16799   5.269   0.473   6.536  0.1383 -0.2603  0.2375
 1071loPI   C2A16800   5.167   0.456   6.943  0.1098 -0.1273 -0.2718
 1071loPI   C3A16801   5.160   0.425   7.366 -0.1187  0.2743 -0.1719
 1071loPI   C4A16802   5.075   0.619   7.715  0.0911  0.2603  0.1459
 1071loPI   C5A16803   5.193   0.492   8.114  0.1880  0.0288  0.0436
 1071loPI   C6A16804   5.443   0.727   8.412 -0.1071 -0.3592  0.0323
 1071loPI   C1B16805   5.493   0.850   6.703 -0.4256  0.2617 -0.3446
 1071loPI   C2B16806   5.502   0.828   7.082  0.1047  0.2542 -0.0436
 1071loPI   C3B16807   5.555   0.792   7.516  0.1618 -0.2676  0.0768
 1071loPI   C4B16808   5.528   0.873   7.865  0.1759 -0.2738 -0.1487
 1072loPI    C116809   2.671   4.208   5.643  0.1272 -0.0640  0.0683
 1072loPI    C216810   2.900   3.919   5.488 -0.1629 -0.2358 -0.0483
 1072loPI    C316811   2.512   3.940   5.392 -0.1171  0.2762 -0.1489
 1072loPI   PO416812   2.701   4.153   6.033  0.0951  0.2046  0.0698
 1072loPI   GL116813   2.549   4.192   6.427  0.1450  0.0446 -0.1321
 1072loPI   GL216814   2.251   4.261   6.407 -0.4926 -0.2090 -0.2441
 1072loPI   C1A16815   2.625   4.372   6.826 -0.0239 -0.3036 -0.1794
 1072loPI   C2A16816   2.530   4.346   7.214 -0.0595 -0.0284 -0.3507
 1072loPI   C3A16817   2.493   4.313   7.610 -0.2916  0.1377 -0.1081
 1072loPI   C4A16818   2.656   4.158   8.071 -0.0938  0.0958 -0.2048
 1072loPI   C5A16819   2.455   4.242   8.427 -0.0796  0.0981  0.0387
 1072loPI   C6A16820   2.445   4.176   8.875  0.2199  0.0744  0.1293
 1072loPI   C1B16821   2.100   4.418   6.789  0.0648 -0.1917 -0.3201
 1072loPI   C2B16822   2.052   4.431   7.271 -0.1167 -0.0865  0.1255
 1072loPI   C3B16823   2.021   4.422   7.743 -0.0008  0.3500  0.0594
 1072loPI   C4B16824   1.986   4.226   8.127  0.0323  0.0407 -0.1486
 1073loPI    C116825  15.237  10.287   5.828 -0.0672 -0.1050 -0.3488
 1073loPI    C216826  15.201  10.679   5.757  0.1287  0.0403  0.2938
 1073loPI    C316827  15.478  10.465   5.563  0.1328  0.2519  0.0612
 1073loPI   PO416828  15.235  10.256   6.028  0.0400 -0.0112 -0.1394
 1073loPI   GL116829  15.275  10.491   6.369  0.0537 -0.2023 -0.1314
 1073loPI   GL216830  15.249  10.863   6.257  0.1160  0.2323  0.3088
 1073loPI   C1A16831  15.376  10.378   6.742  0.3576  0.0388  0.0259
 1073loPI   C2A16832  15.284  10.464   7.138 -0.1543 -0.0583 -0.1416
 1073loPI   C3A16833  15.279  10.480   7.638  0.1876  0.0680 -0.1183
 1073loPI   C4A16834  15.269  10.458   8.095 -0.0587  0.1142 -0.1449
 1073loPI   C5A16835  15.184  10.442   8.569  0.2268  0.0839  0.1437
 1073loPI   C6A16836  15.153  10.413   8.948 -0.2845  0.0632 -0.2474
 1073loPI   C1B16837  15.215  10.877   6.742  0.1342  0.0814  0.0706
 1073loPI   C2B16838  15.207  10.947   7.159  0.0559  0.1630 -0.1462
 1073loPI   C3B16839  15.177  10.974   7.628  0.1478  0.0841 -0.0047
 1073loPI   C4B16840  15.107  10.953   8.055  0.2379 -0.0751 -0.0030
 1074loPI    C116841  15.338   6.357   5.669  0.2848 -0.2456  0.1164
 1074loPI    C216842  15.308   5.963   5.612 -0.0495 -0.2252  0.1321
 1074loPI    C316843  15.376   6.205   5.301 -0.0760 -0.2744  0.0879
 1074loPI   PO416844  15.457   6.323   5.900  0.2352 -0.0691  0.1486
 1074loPI   GL116845  15.445   6.243   6.314 -0.0461 -0.1120 -0.0891
 1074loPI   GL216846  15.716   6.154   6.335  0.1016 -0.1815  0.0113
 1074loPI   C1A16847  15.139   6.342   6.635  0.0618 -0.4803 -0.1360
 1074loPI   C2A16848  15.113   6.279   7.137  0.1106 -0.2288  0.2133
 1074loPI   C3A16849  15.073   6.239   7.542 -0.0505 -0.1514 -0.0101
 1074loPI   C4A16850  15.115   6.281   7.928  0.0635  0.0238 -0.2257
 1074loPI   C5A16851  15.184   6.380   8.289  0.1017  0.0769 -0.0314
 1074loPI   C6A16852  15.454   6.785   8.390  0.1502  0.1932 -0.2322
 1074loPI   C1B16853  15.631   6.181   6.738 -0.0489 -0.2537 -0.2768
 1074loPI   C2B16854  15.622   6.215   7.144  0.1283 -0.1341 -0.4436
 1074loPI   C3B16855  15.624   6.162   7.618 -0.2067 -0.1498 -0.0746
 1074loPI   C4B16856  15.656   6.318   7.982 -0.0851 -0.0687  0.0485
 1075loPI    C116857  13.468  13.892   5.759  0.0890  0.2707  0.0663
 1075loPI    C216858  13.130  13.995   5.573 -0.0182 -0.2768 -0.0592
 1075loPI    C316859  13.483  14.058   5.395 -0.0830 -0.1877 -0.1576
 1075loPI   PO416860  13.415  14.049   6.062 -0.2179  0.2433 -0.1664
 1075loPI   GL116861  13.740  14.189   6.447  0.2345 -0.1550 -0.1704
 1075loPI   GL216862  13.793  13.918   6.560  0.0186  0.1203 -0.1792
 1075loPI   C1A16863  13.763  14.503   6.777  0.1098 -0.0816 -0.1713
 1075loPI   C2A16864  13.744  14.493   7.202 -0.2599  0.0667 -0.0594
 1075loPI   C3A16865  13.844  14.500   7.561 -0.0297  0.0402 -0.0167
 1075loPI   C4A16866  13.765  14.569   7.999 -0.0650  0.0898 -0.0582
 1075loPI   C5A16867  13.848  14.559   8.433  0.0035 -0.2380  0.0715
 1075loPI   C6A16868  13.780  14.719   8.820 -0.0013 -0.0760 -0.1266
 1075loPI   C1B16869  13.972  14.030   6.938  0.1819  0.0614  0.2762
 1075loPI   C2B16870  13.901  14.031   7.344  0.1686 -0.0350 -0.1063
 1075loPI   C3B16871  13.895  14.054   7.766 -0.0235 -0.2050 -0.2731
 1075loPI   C4B16872  13.881  14.017   8.189 -0.1159  0.1825  0.3045
 1076loPI    C116873  13.254   8.576   6.050  0.0599 -0.0772 -0.0486
 1076loPI    C216874  13.161   8.608   5.663 -0.2787  0.1210  0.0458
 1076loPI    C316875  13.350   8.908   5.849  0.4364 -0.2144 -0.1053
 1076loPI   PO416876  13.066   8.513   6.187  0.0408  0.1357 -0.1690
 1076loPI   GL116877  12.839   8.433   6.587 -0.1465 -0.0860 -0.2917
 1076loPI   GL216878  13.001   8.628   6.640  0.0339 -0.1844  0.0285
 1076loPI   C1A16879  12.677   8.285   6.958 -0.1716  0.3145  0.1751
 1076loPI   C2A16880  12.659   8.310   7.360  0.1094  0.0492 -0.0366
 1076loPI   C3A16881  12.707   8.318   7.760  0.1367 -0.0590  0.3606
 1076loPI   C4A16882  12.612   8.377   8.235  0.0554  0.1646 -0.1220
 1076loPI   C5A16883  12.912   8.404   8.518 -0.0083 -0.1918  0.1933
 1076loPI   C6A16884  13.359   8.174   8.629 -0.2952  0.1147 -0.3816
 1076loPI   C1B16885  13.025   8.650   7.098  0.0486 -0.1720 -0.0183
 1076loPI   C2B16886  13.012   8.680   7.510  0.2342 -0.0170  0.0540
 1076loPI   C3B16887  12.911   8.689   7.950 -0.0672 -0.1828  0.2915
 1076loPI   C4B16888  13.095   8.869   8.354 -0.0287 -0.0345 -0.0699
 1077loPI    C116889   0.006   0.639   5.918 -0.0853  0.0066  0.0888
 1077loPI    C216890   0.228   0.364   5.730 -0.0046  0.1566 -0.0380
 1077loPI    C316891   0.345   0.746   5.735  0.0220  0.1479  0.3645
 1077loPI   PO416892   0.028   0.561   6.167 -0.0082  0.0037 -0.0492
 1077loPI   GL116893   0.224   0.701   6.548 -0.2801  0.1209 -0.1753
 1077loPI   GL216894  -0.059   0.831   6.687 -0.0608 -0.0250 -0.3137
 1077loPI   C1A16895   0.422   0.608   6.874 -0.0383 -0.0567  0.0742
 1077loPI   C2A16896   0.383   0.644   7.328 -0.0006  0.0561 -0.1367
 1077loPI   C3A16897   0.380   0.609   7.792  0.0454 -0.0810  0.0407
 1077loPI   C4A16898   0.467   0.552   8.371  0.0799 -0.0221  0.0716
 1077loPI   C5A16899   0.303   0.663   8.780  0.0297 -0.1732  0.2161
 1077loPI   C6A16900  -0.025   0.421   8.986 -0.2568  0.0273  0.0532
 1077loPI   C1B16901  -0.114   0.802   7.063  0.0518 -0.2857 -0.1055
 1077loPI   C2B16902  -0.147   0.706   7.545 -0.0323 -0.1153  0.2000
 1077loPI   C3B16903  -0.099   0.650   7.995  0.1833  0.1671  0.0544
 1077loPI   C4B16904  -0.131   0.509   8.470  0.4032 -0.0695  0.0921
 1078loPI    C116905   5.799  16.029   5.675  0.2297 -0.2530  0.0659
 1078loPI    C216906   5.685  15.971   5.296  0.1009 -0.0787  0.0771
 1078loPI    C316907   5.437  16.148   5.555  0.2080 -0.1507  0.2304
 1078loPI   PO416908   5.904  15.896   5.791 -0.1121  0.0452  0.0259
 1078loPI   GL116909   5.965  15.928   6.218  0.1074  0.0484 -0.0126
 1078loPI   GL216910   5.978  16.108   6.413  0.0200 -0.1912 -0.1019
 1078loPI   C1A16911   5.989  15.570   6.537  0.1166  0.1645  0.1670
 1078loPI   C2A16912   5.998  15.571   6.997  0.1078  0.3400 -0.4785
 1078loPI   C3A16913   6.051  15.525   7.462 -0.0320 -0.0594 -0.1631
 1078loPI   C4A16914   5.954  15.502   7.843 -0.0032 -0.2677 -0.1740
 1078loPI   C5A16915   5.912  15.398   8.323  0.0662  0.1718 -0.2064
 1078loPI   C6A16916   5.633  15.440   8.754 -0.1675 -0.0492  0.1017
 1078loPI   C1B16917   5.847  16.034   6.737  0.2550  0.1249 -0.0457
 1078loPI   C2B16918   5.795  16.083   7.055  0.0960 -0.0610  0.0925
 1078loPI   C3B16919   5.808  15.951   7.467 -0.1783  0.2392 -0.3488
 1078loPI   C4B16920   5.791  16.014   7.915 -0.2768  0.2912  0.1786
 1079loPI    C116921  13.242   1.396   5.514  0.1367 -0.0821 -0.1169
 1079loPI    C216922  13.416   1.686   5.299  0.0412  0.1335  0.0912
 1079loPI    C316923  13.102   1.488   5.151  0.0279  0.2231 -0.0009
 1079loPI   PO416924  13.338   1.460   5.753  0.2058  0.3445 -0.1896
 1079loPI   GL116925  13.293   1.368   6.161 -0.0923 -0.0708 -0.1756
 1079loPI   GL216926  13.371   1.596   6.339  0.1197 -0.0253 -0.0259
 1079loPI   C1A16927  13.387   1.157   6.539  0.2169 -0.0238  0.0408
 1079loPI   C2A16928  13.456   1.200   6.894  0.1319 -0.1707 -0.2299
 1079loPI   C3A16929  13.424   1.252   7.368  0.0422  0.0460 -0.1949
 1079loPI   C4A16930  13.440   1.282   7.812 -0.2202 -0.0460 -0.2658
 1079loPI   C5A16931  13.552   1.334   8.213  0.0216  0.4671 -0.3325
 1079loPI   C6A16932  13.984   1.548   8.289 -0.2482 -0.3163  0.1088
 1079loPI   C1B16933  13.169   1.799   6.673 -0.0541  0.1786  0.1736
 1079loPI   C2B16934  13.233   1.650   7.035 -0.2381 -0.0177  0.1732
 1079loPI   C3B16935  13.208   1.755   7.433  0.0413  0.2029 -0.3207
 1079loPI   C4B16936  13.188   1.799   7.784 -0.0290 -0.1198  0.0785
 1080loPI    C116937   9.165   5.705   5.576 -0.1294  0.0125  0.0135
 1080loPI    C216938   9.427   5.403   5.593 -0.1264  0.0110 -0.0533
 1080loPI    C316939   9.103   5.374   5.360 -0.1134  0.0693 -0.0790
 1080loPI   PO416940   9.122   5.707   5.797 -0.0058  0.1321  0.0046
 1080loPI   GL116941   9.022   5.774   6.203 -0.0663  0.0855 -0.0305
 1080loPI   GL216942   8.878   5.545   6.497 -0.2579  0.2374  0.2092
 1080loPI   C1A16943   9.143   5.912   6.684  0.1684 -0.0514 -0.0739
 1080loPI   C2A16944   9.149   5.955   7.127 -0.0868  0.4078 -0.0529
 1080loPI   C3A16945   9.184   5.935   7.539  0.2551 -0.2712 -0.1205
 1080loPI   C4A16946   9.191   5.919   7.952 -0.3263  0.0432  0.2806
 1080loPI   C5A16947   9.294   6.026   8.392  0.0686 -0.0780  0.0863
 1080loPI   C6A16948   9.792   5.926   8.544  0.0511  0.0225  0.0010
 1080loPI   C1B16949   8.778   5.653   6.922  0.0935 -0.1565  0.0462
 1080loPI   C2B16950   8.783   5.544   7.441  0.1904 -0.0671  0.2944
 1080loPI   C3B16951   8.909   5.526   7.910 -0.1797  0.0466  0.4822
 1080loPI   C4B16952   8.884   5.714   8.316  0.0041 -0.0866  0.2731
 1081loPI    C116953   3.532   5.425   5.848  0.1414 -0.1492  0.0037
 1081loPI    C216954   3.254   5.209   5.658  0.0506  0.1278 -0.1860
 1081loPI    C316955   3.402   5.538   5.487  0.2633  0.1599  0.0537
 1081loPI   PO416956   3.434   5.444   6.053  0.1974 -0.0266  0.4889
 1081loPI   GL116957   3.664   5.451   6.465  0.2858 -0.3943  0.2188
 1081loPI   GL216958   3.422   5.131   6.475  0.0093 -0.0938  0.3243
 1081loPI   C1A16959   3.641   5.516   6.892 -0.2502 -0.3095  0.0117
 1081loPI   C2A16960   3.631   5.390   7.370  0.0541  0.0482  0.3283
 1081loPI   C3A16961   3.719   5.412   7.734  0.0509 -0.0512  0.1738
 1081loPI   C4A16962   3.767   5.565   8.117  0.0358  0.1890 -0.0558
 1081loPI   C5A16963   3.670   5.837   8.508  0.3036 -0.0559 -0.1157
 1081loPI   C6A16964   3.717   5.986   8.899  0.1142 -0.2461 -0.2539
 1081loPI   C1B16965   3.277   5.158   6.904  0.4135  0.1832 -0.0187
 1081loPI   C2B16966   3.231   5.144   7.342  0.1013 -0.1340  0.1265
 1081loPI   C3B16967   3.311   5.119   7.709  0.0305 -0.0112 -0.1495
 1081loPI   C4B16968   3.277   5.152   8.115 -0.1130 -0.0915  0.0204
 1082loPI    C116969   6.439  12.256   5.813  0.0089  0.0805  0.0822
 1082loPI    C216970   6.188  12.383   5.529  0.1437 -0.1081 -0.1248
 1082loPI    C316971   6.334  12.012   5.515  0.1946 -0.1016  0.1639
 1082loPI   PO416972   6.355  12.337   5.992  0.5944  0.3351 -0.2063
 1082loPI   GL116973   6.247  12.201   6.375  0.0482 -0.1593 -0.0195
 1082loPI   GL216974   5.999  11.989   6.296 -0.0028  0.1354 -0.1829
 1082loPI   C1A16975   6.560  12.178   6.744  0.1931 -0.0611 -0.0110
 1082loPI   C2A16976   6.510  12.219   7.128  0.1979  0.2332  0.1557
 1082loPI   C3A16977   6.475  12.229   7.504  0.0184 -0.2136  0.1159
 1082loPI   C4A16978   6.468  12.202   7.980  0.1998 -0.1091 -0.1722
 1082loPI   C5A16979   6.435  12.143   8.463 -0.1426  0.0217 -0.2688
 1082loPI   C6A16980   6.607  12.062   8.886  0.0297 -0.1810  0.1307
 1082loPI   C1B16981   5.657  11.924   6.632 -0.1522  0.3568 -0.1133
 1082loPI   C2B16982   5.634  11.943   7.071  0.0991  0.1090 -0.3616
 1082loPI   C3B16983   5.607  12.020   7.526  0.0094 -0.0220  0.2277
 1082loPI   C4B16984   5.647  11.960   7.966  0.1120 -0.1896 -0.0828
 1083loPI    C116985  12.679  10.895   5.683 -0.0671  0.2247  0.0518
 1083loPI    C216986  12.642  11.266   5.537 -0.0230  0.2001 -0.0220
 1083loPI    C316987  12.897  11.008   5.367 -0.2841  0.0350 -0.1693
 1083loPI   PO416988  12.641  10.915   5.922 -0.0189  0.1682 -0.0954
 1083loPI   GL116989  12.952  10.973   6.294 -0.3114 -0.0752  0.1606
 1083loPI   GL216990  12.711  10.641   6.389 -0.2328  0.2225  0.1281
 1083loPI   C1A16991  12.912  11.027   6.721 -0.2109 -0.0100 -0.2429
 1083loPI   C2A16992  12.851  11.015   7.136  0.2119 -0.4336 -0.0498
 1083loPI   C3A16993  12.804  11.109   7.537  0.0844 -0.1704  0.0444
 1083loPI   C4A16994  12.809  11.197   8.023 -0.1583 -0.0030  0.2406
 1083loPI   C5A16995  12.760  11.091   8.418 -0.0632 -0.1490  0.0881
 1083loPI   C6A16996  12.667  11.032   8.816  0.0324  0.3200 -0.1648
 1083loPI   C1B16997  12.501  10.600   6.790 -0.1365 -0.0070 -0.0445
 1083loPI   C2B16998  12.473  10.663   7.276 -0.0393 -0.0070  0.0112
 1083loPI   C3B16999  12.448  10.779   7.702  0.0934  0.0819  0.1961
 1083loPI   C4B17000  12.444  10.851   8.040 -0.3041  0.2041 -0.0668
 1084loPI    C117001   3.271  13.781   5.353 -0.0527  0.0844 -0.1569
 1084loPI    C217002   3.382  14.164   5.319  0.1642  0.0411  0.0350
 1084loPI    C317003   3.347  13.936   4.992  0.1034  0.2046 -0.0738
 1084loPI   PO417004   3.323  13.762   5.610 -0.0000  0.3590  0.0394
 1084loPI   GL117005   3.147  13.825   6.002 -0.0109  0.1891 -0.0379
 1084loPI   GL217006   3.300  13.914   6.229  0.1337  0.0961  0.4501
 1084loPI   C1A17007   2.903  13.610   6.310 -0.0356  0.0451 -0.0741
 1084loPI   C2A17008   2.893  13.570   6.715 -0.0204  0.0014  0.0607
 1084loPI   C3A17009   2.912  13.514   7.112 -0.0107  0.0860  0.1015
 1084loPI   C4A17010   2.847  13.570   7.521 -0.1408 -0.2234  0.1866
 1084loPI   C5A17011   2.846  13.499   7.924  0.0265  0.2364 -0.1238
 1084loPI   C6A17012   2.889  13.462   8.376  0.2174 -0.1571  0.2671
 1084loPI   C1B17013   3.179  13.958   6.691  0.1989  0.0785 -0.2356
 1084loPI   C2B17014   3.184  13.958   7.164 -0.1751 -0.0549 -0.0069
 1084loPI   C3B17015   3.178  13.907   7.572  0.0029 -0.2013  0.0744
 1084loPI   C4B17016   3.200  14.003   8.004 -0.0528  0.1331  0.1391
 1085loPI    C117017   0.911   0.356   5.528 -0.1528 -0.0777  0.1375
 1085loPI    C217018   0.592   0.143   5.414 -0.1778  0.0234  0.0172
 1085loPI    C317019   0.811   0.338   5.141 -0.0258 -0.0272  0.1019
 1085loPI   PO417020   0.739   0.409   5.770 -0.0179  0.2029  0.2630
 1085loPI   GL117021   1.029   0.538   6.065  0.0353  0.2217 -0.0929
 1085loPI   GL217022   1.321   0.478   6.143 -0.0098 -0.0488  0.0104
 1085loPI   C1A17023   0.891   0.564   6.483  0.1088 -0.0484 -0.1214
 1085loPI   C2A17024   0.880   0.535   7.004  0.3606  0.2918  0.0856
 1085loPI   C3A17025   0.978   0.518   7.426  0.0167  0.0182 -0.2337
 1085loPI   C4A17026   0.854   0.502   7.860 -0.1366  0.1785  0.3935
 1085loPI   C5A17027   0.940   0.626   8.273  0.1885 -0.2492  0.1494
 1085loPI   C6A17028   1.217   0.926   8.372  0.1953 -0.0490  0.0198
 1085loPI   C1B17029   1.372   0.442   6.573  0.0011  0.2734  0.1090
 1085loPI   C2B17030   1.358   0.408   7.066  0.0197 -0.1972 -0.1351
 1085loPI   C3B17031   1.472   0.371   7.490  0.0810  0.1445 -0.1093
 1085loPI   C4B17032   1.358   0.503   7.975 -0.1460 -0.0885 -0.0272
 1086loPI    C117033  13.146   9.392   5.790  0.1624 -0.0792 -0.1585
 1086loPI    C217034  12.949   9.184   5.511  0.1424 -0.1141 -0.1184
 1086loPI    C317035  12.919   9.582   5.521 -0.0370 -0.1289 -0.0272
 1086loPI   PO417036  13.108   9.314   6.073 -0.1567  0.0422 -0.0545
 1086loPI   GL117037  13.110   9.530   6.403 -0.0625  0.0666 -0.0007
 1086loPI   GL217038  12.779   9.734   6.506  0.1381  0.2670  0.0958
 1086loPI   C1A17039  13.242   9.579   6.796 -0.1897 -0.0092 -0.3204
 1086loPI   C2A17040  13.220   9.553   7.203 -0.0107 -0.0734 -0.2148
 1086loPI   C3A17041  13.139   9.563   7.583 -0.3657 -0.0639  0.0750
 1086loPI   C4A17042  13.165   9.605   8.052 -0.1638 -0.1035  0.0427
 1086loPI   C5A17043  13.236   9.354   8.464  0.0286  0.2613 -0.2043
 1086loPI   C6A17044  13.561   9.056   8.585 -0.0320  0.0209  0.1356
 1086loPI   C1B17045  12.749   9.668   6.884  0.0573  0.1295  0.1657
 1086loPI   C2B17046  12.658   9.611   7.315 -0.0663  0.3958  0.2311
 1086loPI   C3B17047  12.721   9.713   7.804 -0.0347 -0.1896  0.1437
 1086loPI   C4B17048  12.576   9.825   8.238 -0.0258  0.2678 -0.1321
 1087loPI    C117049  14.980  12.660   5.715 -0.1167  0.1719  0.2781
 1087loPI    C217050  14.767  12.985   5.620  0.0052  0.2018  0.1027
 1087loPI    C317051  14.973  12.791   5.337 -0.1524 -0.0919  0.1851
 1087loPI   PO417052  14.982  12.622   5.951  0.1661  0.0403 -0.0860
 1087loPI   GL117053  15.146  12.449   6.270 -0.1832 -0.0854 -0.0923
 1087loPI   GL217054  15.484  12.293   6.350 -0.0357 -0.0985  0.0411
 1087loPI   C1A17055  15.141  12.255   6.647  0.1205  0.0435 -0.1214
 1087loPI   C2A17056  15.303  12.291   6.984  0.0563 -0.1318 -0.1343
 1087loPI   C3A17057  15.284  12.188   7.394  0.0735 -0.2056 -0.4677
 1087loPI   C4A17058  15.354  12.172   7.826  0.4078 -0.3718 -0.2976
 1087loPI   C5A17059  15.264  12.202   8.266  0.0945 -0.0336  0.0660
 1087loPI   C6A17060  14.989  11.876   8.555  0.0442 -0.1197 -0.1872
 1087loPI   C1B17061  15.709  12.204   6.708  0.2509 -0.1089  0.4716
 1087loPI   C2B17062  15.759  12.216   7.135 -0.0889  0.3369 -0.0073
 1087loPI   C3B17063  15.776  12.215   7.592 -0.1041 -0.1078  0.1560
 1087loPI   C4B17064  15.805  12.134   8.083  0.2157 -0.0877  0.0870
 1088loPI    C117065   5.840  12.465   5.917 -0.0007  0.1249 -0.1333
 1088loPI    C217066   5.607  12.739   5.742 -0.0939 -0.0517 -0.2899
 1088loPI    C317067   5.655  12.380   5.573 -0.1974 -0.2327  0.0546
 1088loPI   PO417068   5.763  12.403   6.067 -0.2055  0.1730  0.0119
 1088loPI   GL117069   5.830  12.447   6.491  0.2274  0.3943 -0.0310
 1088loPI   GL217070   5.517  12.416   6.611  0.0782 -0.1405 -0.0625
 1088loPI   C1A17071   6.020  12.312   6.818 -0.0131  0.2402  0.0368
 1088loPI   C2A17072   5.959  12.339   7.288 -0.1573 -0.2895  0.1124
 1088loPI   C3A17073   5.993  12.240   7.724 -0.2045  0.1883 -0.0828
 1088loPI   C4A17074   5.934  12.325   8.108  0.1997  0.2232  0.0417
 1088loPI   C5A17075   5.887  12.416   8.500 -0.1745 -0.0500  0.2211
 1088loPI   C6A17076   5.896  12.820   8.559  0.0404 -0.1437 -0.0386
 1088loPI   C1B17077   5.561  12.482   7.002 -0.2757 -0.1174 -0.0240
 1088loPI   C2B17078   5.424  12.502   7.343  0.1448  0.1933 -0.1454
 1088loPI   C3B17079   5.458  12.486   7.830 -0.1593 -0.2566  0.3011
 1088loPI   C4B17080   5.361  12.515   8.256  0.2841  0.0710  0.1701
 1089loPI    C117081   7.507   7.649   5.730 -0.2667 -0.2256 -0.1104
 1089loPI    C217082   7.790   7.546   5.466 -0.1147  0.1756 -0.1112
 1089loPI    C317083   7.437   7.685   5.338 -0.2485 -0.1524 -0.1071
 1089loPI   PO417084   7.474   7.457   5.880  0.0007 -0.1649 -0.0577
 1089loPI   GL117085   7.543   7.449   6.279  0.2391 -0.1783  0.0106
 1089loPI   GL217086   7.428   7.130   6.418  0.0691 -0.1057  0.0011
 1089loPI   C1A17087   7.615   7.629   6.709  0.0408 -0.1053  0.0917
 1089loPI   C2A17088   7.704   7.628   7.173 -0.0396  0.0651 -0.3329
 1089loPI   C3A17089   7.710   7.707   7.682  0.0750  0.0771  0.0406
 1089loPI   C4A17090   7.771   7.665   8.146  0.1681 -0.3214 -0.4180
 1089loPI   C5A17091   7.710   7.717   8.551  0.2890  0.1074 -0.0808
 1089loPI   C6A17092   7.411   7.945   8.800 -0.3658 -0.0049  0.0708
 1089loPI   C1B17093   7.229   7.268   6.802  0.4219  0.0268  0.2017
 1089loPI   C2B17094   7.301   7.201   7.245  0.1916 -0.1303 -0.0703
 1089loPI   C3B17095   7.379   7.353   7.774  0.2065 -0.0160 -0.1821
 1089loPI   C4B17096   7.435   7.293   8.296 -0.0748 -0.4074  0.0505
 1090loPI    C117097  14.317   3.891   6.081 -0.0832  0.1588 -0.1074
 1090loPI    C217098  14.555   4.211   6.110  0.1471 -0.0177 -0.0046
 1090loPI    C317099  14.492   4.040   5.754 -0.0234  0.1740 -0.0688
 1090loPI   PO417100  14.396   3.723   6.268 -0.1319 -0.2782  0.0136
 1090loPI   GL117101  14.595   3.731   6.539  0.0118  0.5279  0.2334
 1090loPI   GL217102  14.874   3.488   6.573 -0.0566  0.1139 -0.1153
 1090loPI   C1A17103  14.467   3.717   7.011 -0.1243 -0.1099  0.1955
 1090loPI   C2A17104  14.512   3.724   7.349  0.1321 -0.1588 -0.1372
 1090loPI   C3A17105  14.528   3.575   7.691 -0.1570 -0.0663 -0.1244
 1090loPI   C4A17106  14.530   3.707   8.034  0.3312  0.0739  0.0293
 1090loPI   C5A17107  14.531   3.724   8.442  0.0661 -0.0336 -0.0102
 1090loPI   C6A17108  14.850   3.450   8.770 -0.0894 -0.0076  0.3016
 1090loPI   C1B17109  15.008   3.591   6.990 -0.0303  0.0472 -0.3374
 1090loPI   C2B17110  15.025   3.651   7.451  0.0335  0.0316 -0.1030
 1090loPI   C3B17111  15.086   3.701   7.916 -0.1404 -0.0743  0.0268
 1090loPI   C4B17112  14.985   3.481   8.292  0.3612  0.1106  0.2880
 1091loPI    C117113   9.223   2.608   5.850 -0.1332 -0.2090  0.1231
 1091loPI    C217114   9.279   2.248   5.685  0.1121 -0.0558 -0.1391
 1091loPI    C317115   9.244   2.571   5.452 -0.1615  0.0859  0.0919
 1091loPI   PO417116   9.046   2.583   5.984  0.1332  0.2056 -0.2169
 1091loPI   GL117117   9.089   2.546   6.461  0.2264  0.3095  0.3032
 1091loPI   GL217118   9.178   2.851   6.447 -0.0351 -0.0229 -0.0212
 1091loPI   C1A17119   9.144   2.636   6.917  0.2062 -0.0084  0.2205
 1091loPI   C2A17120   9.158   2.724   7.214  0.1176  0.0676 -0.0405
 1091loPI   C3A17121   9.183   2.721   7.676  0.0480  0.3238  0.0158
 1091loPI   C4A17122   9.203   2.753   8.057 -0.2461  0.1177 -0.0772
 1091loPI   C5A17123   9.257   3.034   8.404  0.1663  0.2471 -0.1180
 1091loPI   C6A17124   9.421   3.230   8.677 -0.2157 -0.1853 -0.0968
 1091loPI   C1B17125   9.061   3.088   6.779 -0.0918  0.1003 -0.2549
 1091loPI   C2B17126   8.941   3.199   7.181  0.1300 -0.0778 -0.1334
 1091loPI   C3B17127   8.976   3.260   7.647 -0.0478  0.2627  0.1110
 1091loPI   C4B17128   9.022   3.239   8.013 -0.3020  0.0325  0.4150
 1092loPI    C117129  14.982   7.352   5.606  0.3999 -0.0345  0.0467
 1092loPI    C217130  14.990   7.038   5.359 -0.0431 -0.1043  0.1120
 1092loPI    C317131  14.978   7.409   5.210 -0.2142 -0.1430  0.0272
 1092loPI   PO417132  15.031   7.220   5.838  0.0136  0.0328 -0.2025
 1092loPI   GL117133  14.841   7.019   6.124  0.1944  0.2697  0.0532
 1092loPI   GL217134  14.563   7.022   6.265  0.0566  0.1246  0.0647
 1092loPI   C1A17135  15.012   6.918   6.493  0.0613 -0.1835  0.0297
 1092loPI   C2A17136  14.908   6.830   6.935 -0.0377 -0.3739 -0.0041
 1092loPI   C3A17137  14.999   6.803   7.409  0.0708  0.0996 -0.2144
 1092loPI   C4A17138  14.966   6.742   7.824 -0.0494 -0.1167  0.3535
 1092loPI   C5A17139  14.816   6.853   8.276 -0.3568 -0.4667 -0.0805
 1092loPI   C6A17140  14.485   6.899   8.614 -0.1486 -0.1504 -0.1381
 1092loPI   C1B17141  14.503   6.978   6.592  0.1718  0.1188  0.0868
 1092loPI   C2B17142  14.433   6.934   7.082  0.0729  0.1045 -0.1021
 1092loPI   C3B17143  14.489   6.893   7.462 -0.2035 -0.0218  0.0899
 1092loPI   C4B17144  14.473   6.893   7.933 -0.0761 -0.2076 -0.1652
 1093loPI    C117145   8.001  15.349   5.878  0.0475 -0.0102  0.1325
 1093loPI    C217146   7.648  15.266   6.046  0.0724 -0.2969  0.0488
 1093loPI    C317147   7.664  15.391   5.667  0.0418  0.0076  0.1453
 1093loPI   PO417148   8.128  15.475   6.052  0.1948  0.1764 -0.1594
 1093loPI   GL117149   7.898  15.432   6.484  0.0740  0.0632  0.0148
 1093loPI   GL217150   8.104  15.729   6.538  0.0971 -0.1794 -0.5309
 1093loPI   C1A17151   7.780  15.511   6.903  0.0681 -0.1373 -0.0420
 1093loPI   C2A17152   7.804  15.647   7.268  0.1988 -0.2053 -0.1082
 1093loPI   C3A17153   7.841  15.557   7.662  0.0123  0.0891  0.0767
 1093loPI   C4A17154   7.880  15.591   8.021  0.0840  0.2961  0.2944
 1093loPI   C5A17155   7.925  15.347   8.419 -0.0524  0.0455 -0.2389
 1093loPI   C6A17156   7.801  15.426   8.773 -0.0223  0.0951 -0.0553
 1093loPI   C1B17157   8.176  15.910   6.968  0.0331 -0.1887  0.0767
 1093loPI   C2B17158   8.199  15.925   7.438  0.1102  0.0208  0.0525
 1093loPI   C3B17159   8.195  15.932   7.862  0.0472  0.2018 -0.1064
 1093loPI   C4B17160   8.336  15.812   8.274 -0.2518  0.1086  0.1719
 1094loPI    C117161  12.839   3.879   5.597 -0.0743  0.0437 -0.0515
 1094loPI    C217162  13.102   4.172   5.528  0.1759 -0.1109  0.2235
 1094loPI    C317163  13.094   3.852   5.290  0.0739  0.0019  0.0737
 1094loPI   PO417164  12.912   3.820   5.883  0.0803 -0.0286 -0.0867
 1094loPI   GL117165  12.864   3.933   6.256 -0.2708  0.2712  0.1216
 1094loPI   GL217166  12.901   4.053   6.546 -0.0684  0.1346  0.3179
 1094loPI   C1A17167  13.063   3.594   6.683  0.0824  0.0361  0.2160
 1094loPI   C2A17168  13.106   3.537   7.086 -0.1549  0.1211 -0.2188
 1094loPI   C3A17169  13.070   3.473   7.474 -0.1699 -0.1062 -0.2759
 1094loPI   C4A17170  13.149   3.585   7.839  0.0686 -0.1233  0.0671
 1094loPI   C5A17171  13.124   3.591   8.281  0.1161 -0.0910 -0.0548
 1094loPI   C6A17172  12.821   3.623   8.566  0.0054  0.0873 -0.0426
 1094loPI   C1B17173  12.910   4.003   6.969  0.1266  0.0870  0.0390
 1094loPI   C2B17174  12.920   4.086   7.380 -0.1719  0.1897 -0.1783
 1094loPI   C3B17175  12.964   4.086   7.800  0.2684  0.1244  0.1726
 1094loPI   C4B17176  13.090   4.070   8.172  0.0880 -0.0648 -0.0712
 1095loPI    C117177   1.823   7.531   6.057  0.0518 -0.1011  0.0753
 1095loPI    C217178   1.975   7.574   5.689 -0.0337 -0.3199  0.0131
 1095loPI    C317179   1.654   7.342   5.748 -0.2590  0.0224  0.1660
 1095loPI   PO417180   1.797   7.787   6.142  0.0214  0.1315 -0.0687
 1095loPI   GL117181   1.758   8.004   6.488 -0.1206  0.0251  0.0110
 1095loPI   GL217182   1.454   8.129   6.311  0.0701  0.0104  0.0951
 1095loPI   C1A17183   1.723   7.981   6.903 -0.1711 -0.4427  0.2883
 1095loPI   C2A17184   1.560   8.033   7.327 -0.2012  0.0721  0.0652
 1095loPI   C3A17185   1.662   7.942   7.746  0.1073  0.1802 -0.0142
 1095loPI   C4A17186   1.649   7.940   8.171 -0.1369  0.0994  0.0544
 1095loPI   C5A17187   1.792   7.728   8.516 -0.2059 -0.0183  0.0227
 1095loPI   C6A17188   1.941   7.676   8.982 -0.1771 -0.1522 -0.4664
 1095loPI   C1B17189   1.211   8.215   6.614 -0.1072 -0.2564  0.1071
 1095loPI   C2B17190   1.224   8.281   7.044  0.4396 -0.2406  0.1708
 1095loPI   C3B17191   1.072   8.155   7.425 -0.0606  0.2339 -0.1455
 1095loPI   C4B17192   1.120   8.195   7.885  0.1150  0.0609 -0.3550
 1096loPI    C117193   4.400  13.359   5.577  0.1073 -0.1389  0.0978
 1096loPI    C217194   4.193  13.424   5.241  0.2509  0.2480  0.0798
 1096loPI    C317195   4.537  13.219   5.228  0.0290 -0.1313  0.0638
 1096loPI   PO417196   4.430  13.370   5.815  0.0710 -0.0290  0.1848
 1096loPI   GL117197   4.197  13.410   6.178  0.4470 -0.1059  0.1132
 1096loPI   GL217198   3.928  13.443   6.336  0.3182  0.0354 -0.1580
 1096loPI   C1A17199   4.308  13.306   6.624  0.0762 -0.0659 -0.1219
 1096loPI   C2A17200   4.334  13.229   7.002  0.0428  0.1594  0.0333
 1096loPI   C3A17201   4.325  13.190   7.464  0.0974  0.0097  0.3146
 1096loPI   C4A17202   4.366  13.235   7.845 -0.0058  0.2502  0.0349
 1096loPI   C5A17203   4.389  13.300   8.313 -0.1116  0.1529  0.0108
 1096loPI   C6A17204   4.531  13.048   8.612 -0.3214  0.3262  0.0582
 1096loPI   C1B17205   3.839  13.304   6.811  0.2033  0.0090 -0.1942
 1096loPI   C2B17206   3.834  13.303   7.228  0.1188 -0.1282  0.2790
 1096loPI   C3B17207   3.785  13.310   7.648  0.2746  0.1195  0.0882
 1096loPI   C4B17208   3.907  13.389   8.091 -0.1592  0.2155  0.2389
 1097loPI    C117209  12.133  11.626   6.078  0.0367 -0.1505 -0.1698
 1097loPI    C217210  12.147  12.024   6.117 -0.0707 -0.1653  0.0337
 1097loPI    C317211  11.970  11.860   5.798  0.0978 -0.0495 -0.1215
 1097loPI   PO417212  12.073  11.540   6.245 -0.2470 -0.3393  0.1181
 1097loPI   GL117213  12.104  11.733   6.585  0.2307 -0.3330 -0.2763
 1097loPI   GL217214  12.063  11.998   6.625 -0.1540  0.0857  0.1304
 1097loPI   C1A17215  12.167  11.670   6.997 -0.0215  0.3822 -0.0030
 1097loPI   C2A17216  12.210  11.685   7.472 -0.0030 -0.1256  0.0276
 1097loPI   C3A17217  12.205  11.726   7.885 -0.1541  0.0085  0.3250
 1097loPI   C4A17218  12.150  11.819   8.318  0.0043 -0.0667 -0.0776
 1097loPI   C5A17219  12.252  11.807   8.697 -0.0478 -0.2815 -0.0046
 1097loPI   C6A17220  12.276  11.741   9.145  0.0798  0.0688 -0.0451
 1097loPI   C1B17221  11.970  12.129   6.940  0.1342 -0.1998 -0.0500
 1097loPI   C2B17222  12.147  12.166   7.346  0.0218  0.0921 -0.0184
 1097loPI   C3B17223  12.101  12.154   7.751 -0.1446  0.0172 -0.2198
 1097loPI   C4B17224  12.046  12.291   8.217 -0.1038  0.0615 -0.0646
 1098loPI    C117225  11.578   3.387   5.543  0.0831 -0.1521  0.0616
 1098loPI    C217226  11.819   3.706   5.555 -0.1125  0.0057 -0.1375
 1098loPI    C317227  11.906   3.399   5.314 -0.0156 -0.0169 -0.0743
 1098loPI   PO417228  11.495   3.318   5.786 -0.1465  0.2844  0.0146
 1098loPI   GL117229  11.579   3.236   6.223 -0.1023 -0.2562  0.1531
 1098loPI   GL217230  11.703   3.451   6.448 -0.2075  0.0129  0.1013
 1098loPI   C1A17231  11.345   3.013   6.595 -0.0990  0.0840  0.0114
 1098loPI   C2A17232  11.439   3.045   7.084  0.0749 -0.1541 -0.0221
 1098loPI   C3A17233  11.432   3.085   7.538  0.1775 -0.0219 -0.1560
 1098loPI   C4A17234  11.406   3.228   7.888  0.0111 -0.0723  0.2758
 1098loPI   C5A17235  11.450   3.231   8.337 -0.0202  0.1230  0.2633
 1098loPI   C6A17236  11.728   3.524   8.566  0.1353  0.0375  0.1222
 1098loPI   C1B17237  11.785   3.429   6.890 -0.1726 -0.0935  0.3042
 1098loPI   C2B17238  11.685   3.413   7.301 -0.1482 -0.1110  0.0472
 1098loPI   C3B17239  11.751   3.481   7.629  0.1933 -0.1919  0.0791
 1098loPI   C4B17240  11.774   3.516   8.093 -0.3038  0.1800  0.2125
 1099loPI    C117241   3.296  13.299   5.322  0.1901  0.1357  0.0836
 1099loPI    C217242   3.232  13.059   5.009  0.1679  0.1307  0.0920
 1099loPI    C317243   3.303  13.449   4.952  0.1598  0.1306  0.0810
 1099loPI   PO417244   3.048  13.254   5.537 -0.1138 -0.0472  0.1362
 1099loPI   GL117245   3.051  13.147   6.046  0.2453 -0.0940 -0.0306
 1099loPI   GL217246   2.803  13.300   5.960 -0.0530 -0.4178 -0.2754
 1099loPI   C1A17247   3.076  13.112   6.461  0.4047  0.0239  0.5142
 1099loPI   C2A17248   3.042  13.042   6.890  0.0892  0.0161 -0.2415
 1099loPI   C3A17249   3.097  12.997   7.265  0.2575 -0.0923  0.0681
 1099loPI   C4A17250   3.041  13.120   7.614 -0.2594 -0.1689  0.0839
 1099loPI   C5A17251   3.001  13.057   8.102  0.2007 -0.0908  0.3291
 1099loPI   C6A17252   2.860  13.002   8.506  0.1456  0.0704 -0.1728
 1099loPI   C1B17253   2.588  13.238   6.365 -0.2698 -0.1014 -0.1196
 1099loPI   C2B17254   2.534  13.238   6.850  0.0642  0.0949  0.2749
 1099loPI   C3B17255   2.582  13.154   7.205  0.1116  0.0921 -0.1491
 1099loPI   C4B17256   2.507  13.203   7.715 -0.2805 -0.0762 -0.1234
 1100loPI    C117257  10.443  14.066   5.987 -0.4335 -0.1855 -0.1063
 1100loPI    C217258  10.412  14.449   6.095  0.0243 -0.1522 -0.0733
 1100loPI    C317259  10.373  14.346   5.710 -0.0481 -0.0667 -0.0893
 1100loPI   PO417260  10.388  13.983   6.241 -0.1192 -0.2962  0.2834
 1100loPI   GL117261  10.640  13.755   6.415 -0.0765  0.0127 -0.1142
 1100loPI   GL217262  10.373  13.519   6.368 -0.0334 -0.1346 -0.0155
 1100loPI   C1A17263  10.735  13.870   6.772 -0.0478  0.1157 -0.1426
 1100loPI   C2A17264  10.685  13.916   7.186 -0.0878 -0.1598  0.0676
 1100loPI   C3A17265  10.560  13.923   7.671 -0.1908 -0.3225  0.2066
 1100loPI   C4A17266  10.639  13.882   8.093 -0.2350 -0.1303  0.1864
 1100loPI   C5A17267  10.758  13.924   8.493  0.1025 -0.1058 -0.2875
 1100loPI   C6A17268  10.936  13.936   8.902 -0.1114 -0.0545  0.2974
 1100loPI   C1B17269  10.275  13.623   6.744  0.0501 -0.0716 -0.2157
 1100loPI   C2B17270  10.313  13.517   7.277  0.1255 -0.3688 -0.1837
 1100loPI   C3B17271  10.214  13.561   7.756  0.1220 -0.1273  0.4770
 1100loPI   C4B17272  10.286  13.481   8.198 -0.0465  0.1187 -0.2629
 1101loPI    C117273   0.333   4.524   5.808 -0.0762  0.0196  0.0470
 1101loPI    C217274  -0.010   4.506   5.603 -0.0641  0.0753  0.0216
 1101loPI    C317275   0.294   4.266   5.505 -0.0085  0.2008 -0.1184
 1101loPI   PO417276   0.306   4.527   6.093  0.1345 -0.3560  0.0681
 1101loPI   GL117277   0.227   4.457   6.434  0.1238 -0.0927  0.1482
 1101loPI   GL217278   0.347   4.139   6.393 -0.2993  0.1181 -0.1088
 1101loPI   C1A17279   0.199   4.424   6.845  0.0361  0.0946 -0.3418
 1101loPI   C2A17280   0.195   4.403   7.364 -0.0793  0.2043 -0.0269
 1101loPI   C3A17281   0.207   4.382   7.791  0.1632 -0.1159 -0.3154
 1101loPI   C4A17282   0.175   4.460   8.194  0.0919 -0.1348  0.2530
 1101loPI   C5A17283  -0.113   4.504   8.640 -0.1017 -0.0140  0.0979
 1101loPI   C6A17284  -0.301   4.792   8.881  0.1672 -0.3581 -0.0064
 1101loPI   C1B17285   0.362   3.981   6.860  0.0865  0.0494 -0.0098
 1101loPI   C2B17286   0.320   3.861   7.248  0.2574  0.1048  0.1939
 1101loPI   C3B17287   0.374   3.896   7.621 -0.0692 -0.0255 -0.0662
 1101loPI   C4B17288   0.363   3.828   8.087 -0.4062  0.2772 -0.1038
 1102loPI    C117289  15.979   1.606   5.695 -0.1290  0.3244 -0.1030
 1102loPI    C217290  15.944   1.466   5.322  0.1031 -0.0930  0.0245
 1102loPI    C317291  16.291   1.620   5.445 -0.0162  0.1798  0.0276
 1102loPI   PO417292  15.842   1.412   5.836 -0.2340  0.1686  0.2118
 1102loPI   GL117293  15.724   1.414   6.260 -0.1994  0.0769 -0.0024
 1102loPI   GL217294  15.900   1.127   6.433  0.0269 -0.1841  0.0132
 1102loPI   C1A17295  15.655   1.571   6.680 -0.0966  0.2155  0.1425
 1102loPI   C2A17296  15.686   1.595   7.167 -0.1782  0.0001 -0.0307
 1102loPI   C3A17297  15.765   1.664   7.633 -0.1280 -0.2344 -0.2381
 1102loPI   C4A17298  15.782   1.652   7.964  0.0796  0.1246  0.0462
 1102loPI   C5A17299  15.766   1.563   8.402  0.2224  0.0052 -0.1675
 1102loPI   C6A17300  15.753   1.471   8.835  0.0625 -0.0402  0.1661
 1102loPI   C1B17301  15.889   1.148   6.936 -0.0673 -0.0439  0.1950
 1102loPI   C2B17302  15.867   1.126   7.285  0.0652 -0.1742 -0.1591
 1102loPI   C3B17303  15.912   1.112   7.680  0.1504 -0.1479  0.1361
 1102loPI   C4B17304  15.953   1.112   8.136  0.0432 -0.0698 -0.2000
 1103loPI    C117305  11.038  13.361   5.574  0.0263 -0.0725 -0.1765
 1103loPI    C217306  11.342  13.552   5.398 -0.0047  0.0542 -0.0937
 1103loPI    C317307  11.044  13.402   5.176 -0.0819  0.2794 -0.1451
 1103loPI   PO417308  11.041  13.417   5.786  0.0280  0.1317  0.1626
 1103loPI   GL117309  10.924  13.420   6.198  0.1975  0.0358 -0.2756
 1103loPI   GL217310  11.223  13.256   6.269  0.1042  0.0496 -0.0522
 1103loPI   C1A17311  10.721  13.370   6.702 -0.0242  0.2040 -0.1131
 1103loPI   C2A17312  10.773  13.434   7.071 -0.1624  0.0250 -0.0558
 1103loPI   C3A17313  10.770  13.506   7.551 -0.0463 -0.0612  0.0898
 1103loPI   C4A17314  10.838  13.434   8.000 -0.1100  0.2062  0.1819
 1103loPI   C5A17315  10.782  13.415   8.370  0.2139  0.0132 -0.3226
 1103loPI   C6A17316  10.522  13.528   8.702 -0.0237  0.1817 -0.4097
 1103loPI   C1B17317  11.202  13.316   6.694 -0.1852  0.2066  0.0851
 1103loPI   C2B17318  11.338  13.276   7.144  0.3723 -0.0791 -0.0957
 1103loPI   C3B17319  11.238  13.322   7.495 -0.2760  0.0262 -0.0737
 1103loPI   C4B17320  11.345  13.321   7.931 -0.2331 -0.1622 -0.0296
 1104loPI    C117321  15.983  13.995   5.540 -0.1291  0.2544 -0.1244
 1104loPI    C217322  16.113  13.735   5.266  0.1587  0.1795  0.0775
 1104loPI    C317323  15.720  13.794   5.315  0.0865 -0.2469  0.0560
 1104loPI   PO417324  16.111  13.980   5.832  0.1406 -0.0602 -0.0339
 1104loPI   GL117325  15.757  14.164   6.196  0.2221  0.0143  0.0983
 1104loPI   GL217326  15.755  14.043   6.462 -0.1002 -0.1807 -0.0468
 1104loPI   C1A17327  16.122  14.336   6.413  0.0997  0.1658  0.1274
 1104loPI   C2A17328  16.255  14.427   6.773 -0.1890 -0.2636  0.2369
 1104loPI   C3A17329  16.195  14.483   7.161 -0.2367 -0.4559 -0.0089
 1104loPI   C4A17330  16.156  14.439   7.577  0.0953 -0.0940 -0.1051
 1104loPI   C5A17331  16.121  14.385   8.030 -0.0339  0.0584  0.1337
 1104loPI   C6A17332  15.705  14.502   8.238 -0.0813  0.1794 -0.2327
 1104loPI   C1B17333  15.878  14.099   6.887  0.2929 -0.3371  0.0299
 1104loPI   C2B17334  15.710  14.028   7.271 -0.1293 -0.1581 -0.1079
 1104loPI   C3B17335  15.757  14.058   7.706 -0.0224 -0.0445  0.1239
 1104loPI   C4B17336  15.786  14.051   8.085 -0.2550  0.1506  0.1253
 1105loPI    C117337   3.234  10.754   5.638 -0.0319 -0.2789 -0.0617
 1105loPI    C217338   3.034  10.921   5.335  0.2711 -0.0886 -0.1610
 1105loPI    C317339   3.318  10.650   5.261  0.1826 -0.2175 -0.0323
 1105loPI   PO417340   3.045  10.828   5.851 -0.1688  0.0476 -0.1549
 1105loPI   GL117341   2.991  10.741   6.360 -0.2892 -0.0214 -0.0992
 1105loPI   GL217342   3.333  10.646   6.461  0.0506 -0.4191  0.4190
 1105loPI   C1A17343   2.763  10.874   6.692  0.3277  0.0007 -0.2035
 1105loPI   C2A17344   2.670  10.863   7.099  0.0488 -0.0318  0.1890
 1105loPI   C3A17345   2.749  10.882   7.558 -0.1625  0.0122  0.1965
 1105loPI   C4A17346   2.831  10.827   7.945 -0.1791 -0.0796  0.1106
 1105loPI   C5A17347   2.795  10.794   8.395  0.2101 -0.0168 -0.1202
 1105loPI   C6A17348   2.489  10.975   8.598  0.3350 -0.1155  0.1111
 1105loPI   C1B17349   3.309  10.754   6.878 -0.0502 -0.1199  0.2274
 1105loPI   C2B17350   3.170  10.751   7.264 -0.2597 -0.1618  0.0499
 1105loPI   C3B17351   3.263  10.798   7.597 -0.0819 -0.0685  0.2310
 1105loPI   C4B17352   3.344  10.741   7.965  0.0916  0.1271 -0.1262
 1106loPI    C117353   1.509   9.018   5.854 -0.0646  0.2425  0.1868
 1106loPI    C217354   1.161   9.059   6.047 -0.2013 -0.3091  0.0768
 1106loPI    C317355   1.164   8.955   5.661  0.0869 -0.0837  0.0146
 1106loPI   PO417356   1.683   8.992   6.105 -0.0905  0.0386  0.0644
 1106loPI   GL117357   1.545   9.086   6.452  0.0611  0.1163 -0.0928
 1106loPI   GL217358   1.416   9.321   6.602 -0.0484 -0.0861  0.0847
 1106loPI   C1A17359   1.442   8.949   6.922 -0.0096  0.0379 -0.2892
 1106loPI   C2A17360   1.407   9.083   7.320  0.0360 -0.0403 -0.1688
 1106loPI   C3A17361   1.389   8.942   7.855 -0.0152 -0.0163 -0.1637
 1106loPI   C4A17362   1.375   8.917   8.280  0.1011  0.2052 -0.0930
 1106loPI   C5A17363   1.045   8.827   8.635 -0.0535 -0.4970 -0.0455
 1106loPI   C6A17364   0.938   8.961   9.092 -0.0964 -0.5552  0.0751
 1106loPI   C1B17365   1.298   9.520   7.013  0.3138  0.2537 -0.0648
 1106loPI   C2B17366   1.257   9.524   7.498 -0.1708  0.1033 -0.3292
 1106loPI   C3B17367   1.217   9.511   7.897  0.1769  0.0953 -0.3028
 1106loPI   C4B17368   1.242   9.408   8.416 -0.1281 -0.3108 -0.1443
 1107loPI    C117369  16.592   7.593   5.535 -0.1443  0.0216 -0.0935
 1107loPI    C217370  16.351   7.753   5.259 -0.1387  0.0495 -0.0822
 1107loPI    C317371  16.659   7.965   5.402 -0.2403  0.0976  0.0679
 1107loPI   PO417372  16.442   7.511   5.673  0.4446  0.0746 -0.1433
 1107loPI   GL117373  16.394   7.422   6.054  0.2868  0.3631 -0.2766
 1107loPI   GL217374  16.697   7.381   6.156  0.0795  0.0614 -0.0511
 1107loPI   C1A17375  16.311   7.439   6.576 -0.1621  0.1193 -0.0212
 1107loPI   C2A17376  16.188   7.455   6.950 -0.0833 -0.4506  0.3336
 1107loPI   C3A17377  16.118   7.490   7.357  0.0766 -0.3636 -0.0753
 1107loPI   C4A17378  16.125   7.549   7.806  0.2492  0.1120 -0.1161
 1107loPI   C5A17379  16.211   7.396   8.184 -0.0541 -0.3101 -0.2228
 1107loPI   C6A17380  16.207   7.764   8.473  0.1481 -0.2209 -0.2998
 1107loPI   C1B17381  16.793   7.329   6.495 -0.1002  0.1987 -0.1785
 1107loPI   C2B17382  16.684   7.336   6.917 -0.0440  0.0531  0.3400
 1107loPI   C3B17383  16.632   7.313   7.338  0.2742 -0.2757  0.1248
 1107loPI   C4B17384  16.591   7.368   7.824 -0.1887 -0.0817 -0.2608
 1108loPI    C117385   0.655   9.234   5.597 -0.2425 -0.0190 -0.0112
 1108loPI    C217386   0.713   8.885   5.411 -0.2332 -0.0933  0.1292
 1108loPI    C317387   0.930   9.205   5.308 -0.1898 -0.1475  0.0510
 1108loPI   PO417388   0.695   9.147   5.854  0.0122  0.1566  0.2181
 1108loPI   GL117389   0.690   9.191   6.272  0.1405 -0.2213  0.0456
 1108loPI   GL217390   0.523   8.899   6.365 -0.1862 -0.0899  0.0019
 1108loPI   C1A17391   0.835   9.195   6.640  0.0316 -0.2253 -0.2561
 1108loPI   C2A17392   0.894   9.198   7.107 -0.2343 -0.1065  0.2102
 1108loPI   C3A17393   0.913   9.109   7.535  0.1036  0.1416 -0.2090
 1108loPI   C4A17394   0.894   9.042   8.006 -0.0428 -0.0668 -0.0863
 1108loPI   C5A17395   0.724   9.085   8.367  0.1861  0.3062  0.0956
 1108loPI   C6A17396   0.357   9.293   8.382  0.1832  0.0459 -0.3528
 1108loPI   C1B17397   0.502   8.872   6.785 -0.1734  0.1964 -0.0141
 1108loPI   C2B17398   0.516   8.855   7.224  0.2304 -0.1775  0.1319
 1108loPI   C3B17399   0.506   8.800   7.687  0.0567  0.3353 -0.0532
 1108loPI   C4B17400   0.454   8.715   8.131  0.0499  0.0045 -0.2126
 1109loPI    C117401  14.496   6.997   5.537  0.0718  0.0360 -0.1535
 1109loPI    C217402  14.545   6.604   5.482 -0.1817 -0.0179 -0.0096
 1109loPI    C317403  14.266   6.801   5.275  0.0601  0.1221 -0.2078
 1109loPI   PO417404  14.451   7.058   5.785 -0.3139  0.1548  0.3940
 1109loPI   GL117405  14.567   7.431   5.978 -0.2788 -0.2052 -0.0792
 1109loPI   GL217406  14.419   7.576   6.167 -0.0114 -0.1238 -0.2431
 1109loPI   C1A17407  14.800   7.376   6.416  0.1798 -0.1138  0.0881
 1109loPI   C2A17408  14.785   7.341   6.867 -0.0330 -0.1030  0.3319
 1109loPI   C3A17409  14.822   7.411   7.243 -0.1696 -0.2330  0.3928
 1109loPI   C4A17410  14.799   7.354   7.668  0.2189  0.1113 -0.0399
 1109loPI   C5A17411  14.721   7.304   8.075  0.2035 -0.1109  0.0827
 1109loPI   C6A17412  14.423   7.364   8.353  0.2598  0.1440 -0.2067
 1109loPI   C1B17413  14.354   7.516   6.573 -0.1982  0.1713 -0.0352
 1109loPI   C2B17414  14.354   7.528   6.964 -0.0110  0.1418 -0.0792
 1109loPI   C3B17415  14.349   7.419   7.402  0.0912 -0.0812  0.2329
 1109loPI   C4B17416  14.266   7.475   7.810 -0.2882 -0.1816 -0.1438
 1110loPI    C117417   5.605   9.995   5.978 -0.1312  0.1565 -0.0092
 1110loPI    C217418   5.999  10.030   5.922 -0.1151  0.1205  0.0790
 1110loPI    C317419   5.745  10.206   5.668 -0.0446 -0.0133 -0.0868
 1110loPI   PO417420   5.539  10.062   6.185 -0.1132  0.1249  0.1440
 1110loPI   GL117421   5.321  10.179   6.509 -0.2818 -0.4339  0.2762
 1110loPI   GL217422   5.642  10.131   6.661 -0.1650 -0.0447  0.0133
 1110loPI   C1A17423   5.179  10.165   6.938 -0.0280 -0.0323 -0.1774
 1110loPI   C2A17424   5.302  10.127   7.345  0.2213 -0.0011 -0.1844
 1110loPI   C3A17425   5.256  10.249   7.703 -0.1143  0.1516 -0.2016
 1110loPI   C4A17426   5.272  10.133   8.125 -0.1315  0.0035  0.1025
 1110loPI   C5A17427   5.338  10.284   8.473  0.1014 -0.2407 -0.3744
 1110loPI   C6A17428   5.208   9.988   8.885  0.1315  0.0650 -0.0896
 1110loPI   C1B17429   5.729  10.111   7.121  0.1063 -0.2942  0.1031
 1110loPI   C2B17430   5.738  10.067   7.533 -0.0754  0.0176 -0.1156
 1110loPI   C3B17431   5.717  10.146   7.931 -0.3609  0.2280 -0.1177
 1110loPI   C4B17432   5.785  10.035   8.344  0.0761  0.0651  0.0635
 1111loPI    C117433   5.094   5.184   5.524  0.2822  0.1313  0.0220
 1111loPI    C217434   5.392   4.957   5.385 -0.0230 -0.2162 -0.0797
 1111loPI    C317435   5.286   5.288   5.189  0.1468 -0.2123 -0.1670
 1111loPI   PO417436   5.126   5.208   5.787  0.1194 -0.0235  0.0962
 1111loPI   GL117437   4.963   5.307   6.211  0.0757 -0.3493  0.2982
 1111loPI   GL217438   5.240   5.141   6.257  0.3699  0.1205  0.1030
 1111loPI   C1A17439   4.971   5.589   6.728 -0.0378  0.0579  0.1567
 1111loPI   C2A17440   4.978   5.482   7.133  0.1310  0.0455 -0.2855
 1111loPI   C3A17441   5.098   5.423   7.555 -0.0551 -0.0543 -0.0815
 1111loPI   C4A17442   5.097   5.622   7.950  0.2309  0.0380  0.0978
 1111loPI   C5A17443   4.979   5.603   8.354 -0.1988  0.1976  0.0300
 1111loPI   C6A17444   4.938   5.332   8.739  0.0093  0.4497  0.0641
 1111loPI   C1B17445   5.058   5.112   6.715  0.1118 -0.1999 -0.0186
 1111loPI   C2B17446   5.160   4.995   7.239 -0.0358 -0.3567 -0.4232
 1111loPI   C3B17447   5.250   5.014   7.726 -0.3710  0.0465  0.0233
 1111loPI   C4B17448   5.218   5.172   8.132  0.1973  0.0662  0.1272
 1112loPI    C117449  13.933  11.882   5.595 -0.0826  0.0988  0.0063
 1112loPI    C217450  13.778  11.626   5.329  0.0929 -0.0647  0.0594
 1112loPI    C317451  14.047  11.898   5.212 -0.0219  0.0332  0.0215
 1112loPI   PO417452  13.743  11.978   5.745  0.1549 -0.1993 -0.2392
 1112loPI   GL117453  13.744  11.875   6.202 -0.0353 -0.0972 -0.0987
 1112loPI   GL217454  13.377  11.916   6.116  0.1855  0.0750 -0.0301
 1112loPI   C1A17455  13.846  12.142   6.464 -0.0627  0.0163 -0.0251
 1112loPI   C2A17456  13.956  12.132   6.923  0.0522 -0.2590 -0.3348
 1112loPI   C3A17457  13.927  12.221   7.399 -0.1674 -0.1076 -0.2132
 1112loPI   C4A17458  13.914  12.181   7.832  0.0061  0.1088  0.2054
 1112loPI   C5A17459  13.955  12.225   8.293 -0.1205 -0.0055  0.0758
 1112loPI   C6A17460  14.147  12.004   8.590 -0.0894  0.1235 -0.3033
 1112loPI   C1B17461  13.090  11.981   6.544  0.2032  0.2972  0.1014
 1112loPI   C2B17462  13.046  11.832   6.972 -0.1833 -0.0982  0.2290
 1112loPI   C3B17463  13.012  11.886   7.458  0.1209  0.3789  0.1552
 1112loPI   C4B17464  12.983  11.995   7.862  0.3157 -0.3320 -0.0504
 1113loPI    C117465  11.759  13.727   5.578  0.1270 -0.0148 -0.0759
 1113loPI    C217466  11.689  13.881   5.216  0.1471  0.1445 -0.0127
 1113loPI    C317467  11.962  13.592   5.261 -0.0593 -0.0787 -0.1694
 1113loPI   PO417468  11.840  13.972   5.810  0.0040 -0.0188 -0.1120
 1113loPI   GL117469  11.891  13.953   6.340  0.1318  0.0246 -0.1094
 1113loPI   GL217470  12.123  13.808   6.380 -0.2239 -0.1444  0.1261
 1113loPI   C1A17471  11.852  13.984   6.760 -0.3654 -0.1839 -0.3282
 1113loPI   C2A17472  11.982  14.013   7.150 -0.0957 -0.1581 -0.0363
 1113loPI   C3A17473  12.011  14.032   7.627  0.0043 -0.0672  0.2668
 1113loPI   C4A17474  12.098  14.039   8.109 -0.1675 -0.1144  0.1172
 1113loPI   C5A17475  12.042  14.116   8.570  0.0814  0.0300  0.2370
 1113loPI   C6A17476  12.201  14.075   9.029  0.2657 -0.1867 -0.3669
 1113loPI   C1B17477  12.318  13.930   6.695  0.0285 -0.0002 -0.0362
 1113loPI   C2B17478  12.565  13.931   7.076  0.1858  0.2794  0.2190
 1113loPI   C3B17479  12.455  13.892   7.470 -0.0749 -0.0970 -0.0312
 1113loPI   C4B17480  12.533  13.907   7.935 -0.0971  0.1352 -0.2399
 1114loPI    C117481  12.353  16.716   5.672  0.1479  0.0252  0.1703
 1114loPI    C217482  12.628  17.006   5.653  0.2571 -0.0884 -0.0144
 1114loPI    C317483  12.444  16.882   5.320 -0.1362  0.0961  0.1282
 1114loPI   PO417484  12.458  16.576   5.935 -0.1638  0.0475  0.0686
 1114loPI   GL117485  12.248  16.720   6.233 -0.1306  0.3238 -0.0954
 1114loPI   GL217486  12.159  16.410   6.290  0.0518  0.0285 -0.3123
 1114loPI   C1A17487  12.079  16.815   6.638  0.2045 -0.3868  0.4319
 1114loPI   C2A17488  12.087  16.778   7.060  0.4611  0.0528  0.2457
 1114loPI   C3A17489  12.203  16.719   7.500  0.0153  0.1387  0.2653
 1114loPI   C4A17490  12.188  16.858   7.869  0.1563  0.0684  0.5396
 1114loPI   C5A17491  12.266  16.769   8.266 -0.1927 -0.0425 -0.0057
 1114loPI   C6A17492  12.112  16.432   8.538 -0.0610 -0.0993 -0.0547
 1114loPI   C1B17493  12.306  16.336   6.690 -0.2799 -0.0622 -0.0171
 1114loPI   C2B17494  12.325  16.299   7.073  0.1746 -0.1972  0.1853
 1114loPI   C3B17495  12.425  16.226   7.516 -0.2161  0.1985  0.0063
 1114loPI   C4B17496  12.230  16.307   7.896 -0.0198 -0.1707 -0.0198
 1115loPI    C117497  10.192   6.404   5.663  0.0550  0.0511  0.0387
 1115loPI    C217498  10.349   6.216   5.347  0.2251 -0.0616  0.1888
 1115loPI    C317499  10.212   6.590   5.309  0.0118 -0.1635 -0.0780
 1115loPI   PO417500  10.287   6.270   5.832 -0.1214 -0.1503 -0.2216
 1115loPI   GL117501  10.386   6.195   6.234  0.1098  0.1424 -0.3990
 1115loPI   GL217502  10.130   6.214   6.370  0.2012 -0.0295 -0.5032
 1115loPI   C1A17503  10.551   6.054   6.688 -0.1586 -0.2254  0.2651
 1115loPI   C2A17504  10.482   6.015   7.100  0.0144 -0.0368  0.1224
 1115loPI   C3A17505  10.538   6.113   7.548 -0.3918  0.3478  0.0899
 1115loPI   C4A17506  10.543   6.039   8.001  0.2537  0.0277 -0.0562
 1115loPI   C5A17507  10.631   6.227   8.434 -0.1759  0.3474  0.0851
 1115loPI   C6A17508  10.572   6.684   8.563  0.0033  0.1036 -0.1633
 1115loPI   C1B17509   9.986   6.088   6.866  0.0965  0.1158  0.2160
 1115loPI   C2B17510  10.061   6.150   7.323 -0.1249 -0.0998 -0.0055
 1115loPI   C3B17511  10.059   6.256   7.829  0.2055  0.0681 -0.2271
 1115loPI   C4B17512  10.150   6.227   8.283 -0.0913 -0.1483 -0.1521
 1116loPI    C117513  12.859   0.048   5.696  0.1187 -0.1180 -0.1313
 1116loPI    C217514  12.780  -0.105   5.334  0.2011 -0.3591 -0.0498
 1116loPI    C317515  13.110   0.113   5.392  0.0062 -0.0145 -0.2030
 1116loPI   PO417516  12.617   0.045   5.822  0.3139 -0.1366 -0.1550
 1116loPI   GL117517  12.404   0.051   6.220 -0.2177  0.0099 -0.1930
 1116loPI   GL217518  12.477   0.358   6.247  0.0781  0.1628 -0.1652
 1116loPI   C1A17519  12.256   0.092   6.668 -0.0973 -0.0887  0.1248
 1116loPI   C2A17520  12.346   0.156   7.125  0.0494 -0.0439  0.2698
 1116loPI   C3A17521  12.348   0.081   7.517 -0.1861 -0.2143  0.0656
 1116loPI   C4A17522  12.356   0.126   7.962  0.0627 -0.1874 -0.0128
 1116loPI   C5A17523  12.629   0.097   8.302  0.0020  0.3074 -0.0703
 1116loPI   C6A17524  13.011   0.160   8.383  0.2308  0.0776  0.1684
 1116loPI   C1B17525  12.647   0.486   6.714 -0.0226  0.0232 -0.0246
 1116loPI   C2B17526  12.768   0.483   7.168  0.1580 -0.1753 -0.1710
 1116loPI   C3B17527  12.669   0.557   7.572 -0.1437 -0.0037 -0.1674
 1116loPI   C4B17528  12.662   0.553   7.965 -0.1659 -0.1595  0.0962
 1117loPI    C117529   0.786  16.955   5.816  0.2240  0.1033  0.0005
 1117loPI    C217530   0.967  16.920   5.461 -0.0049  0.2203 -0.1303
 1117loPI    C317531   0.612  17.101   5.487 -0.0540  0.0900  0.1391
 1117loPI   PO417532   0.819  16.653   5.929 -0.1500  0.0893  0.2105
 1117loPI   GL117533   0.693  16.453   6.290  0.1180  0.2841  0.1451
 1117loPI   GL217534   0.540  16.737   6.336  0.2182 -0.1472  0.3110
 1117loPI   C1A17535   0.830  16.579   6.731  0.1349  0.1243  0.0583
 1117loPI   C2A17536   0.904  16.623   7.227 -0.2331  0.1507  0.0057
 1117loPI   C3A17537   0.925  16.597   7.655  0.1215  0.0132 -0.0134
 1117loPI   C4A17538   0.970  16.681   8.072  0.0206 -0.0296  0.3522
 1117loPI   C5A17539   0.795  16.793   8.447  0.0925  0.2293  0.2413
 1117loPI   C6A17540   0.514  16.646   8.832 -0.0475  0.0087 -0.0790
 1117loPI   C1B17541   0.596  17.115   6.679 -0.0246  0.0440  0.2214
 1117loPI   C2B17542   0.632  17.095   7.080  0.0932  0.0951 -0.1220
 1117loPI   C3B17543   0.705  17.133   7.504  0.2051 -0.0026  0.1155
 1117loPI   C4B17544   0.696  17.116   7.929 -0.0700  0.0272  0.2905
 1118loPI    C117545   7.778   0.588   5.684 -0.0724 -0.0440  0.0158
 1118loPI    C217546   8.166   0.564   5.778 -0.0396  0.1605 -0.0639
 1118loPI    C317547   8.055   0.608   5.396 -0.1530 -0.1701 -0.0717
 1118loPI   PO417548   7.669   0.700   5.820 -0.1518 -0.0717 -0.0218
 1118loPI   GL117549   7.628   0.918   6.289  0.3394  0.1961  0.3668
 1118loPI   GL217550   7.475   0.623   6.293 -0.0030 -0.0402 -0.2095
 1118loPI   C1A17551   7.396   0.909   6.673 -0.1647  0.0698 -0.1007
 1118loPI   C2A17552   7.326   0.816   7.160  0.0914 -0.0465  0.1303
 1118loPI   C3A17553   7.446   0.881   7.587  0.1441 -0.3100  0.2668
 1118loPI   C4A17554   7.405   0.822   8.014  0.0145 -0.2845  0.0334
 1118loPI   C5A17555   7.560   0.756   8.480 -0.1119  0.0880  0.0588
 1118loPI   C6A17556   7.629   0.550   8.864  0.1450 -0.2826 -0.2364
 1118loPI   C1B17557   7.482   0.431   6.699  0.0597 -0.1238  0.1007
 1118loPI   C2B17558   7.534   0.398   7.097 -0.0634 -0.0317 -0.0425
 1118loPI   C3B17559   7.601   0.426   7.520  0.0744  0.0295 -0.2020
 1118loPI   C4B17560   7.579   0.392   7.968  0.3083 -0.0651 -0.0995
 1119loPI    C117561  15.942   4.671   6.006 -0.1162  0.1296 -0.0849
 1119loPI    C217562  16.314   4.580   6.122 -0.3036 -0.2029  0.2777
 1119loPI    C317563  16.218   4.570   5.734  0.1155  0.0941  0.1587
 1119loPI   PO417564  15.925   4.919   6.105 -0.2112 -0.0789 -0.0170
 1119loPI   GL117565  15.833   5.092   6.563 -0.0941 -0.1026  0.3326
 1119loPI   GL217566  16.117   5.172   6.469 -0.3262 -0.0879 -0.0683
 1119loPI   C1A17567  15.966   5.169   7.002 -0.1357 -0.0877  0.0748
 1119loPI   C2A17568  15.875   5.153   7.393  0.1547  0.0931  0.1922
 1119loPI   C3A17569  15.980   5.200   7.837  0.3124  0.0069  0.1104
 1119loPI   C4A17570  15.995   5.250   8.306 -0.0949 -0.0255 -0.1380
 1119loPI   C5A17571  15.877   4.944   8.433  0.3136  0.0644  0.1291
 1119loPI   C6A17572  15.588   4.657   8.553  0.0759 -0.5190  0.0724
 1119loPI   C1B17573  16.391   4.994   6.721 -0.1579 -0.1843 -0.0152
 1119loPI   C2B17574  16.505   5.125   7.218 -0.1341  0.1020  0.3216
 1119loPI   C3B17575  16.427   5.034   7.600  0.3110  0.1319  0.3777
 1119loPI   C4B17576  16.484   5.084   8.002  0.1392 -0.0881 -0.2095
 1120loPI    C117577   5.585   1.610   5.528  0.1619  0.0659 -0.0866
 1120loPI    C217578   5.456   1.736   5.171 -0.1334 -0.2835 -0.1091
 1120loPI    C317579   5.740   1.455   5.193  0.1923  0.0419 -0.0614
 1120loPI   PO417580   5.419   1.650   5.673  0.3543  0.1625 -0.1172
 1120loPI   GL117581   5.538   1.729   6.079 -0.3036  0.2630 -0.1011
 1120loPI   GL217582   5.299   1.749   6.220 -0.1053  0.0515  0.0217
 1120loPI   C1A17583   5.745   1.721   6.495  0.2236  0.0101  0.0067
 1120loPI   C2A17584   5.698   1.664   7.011  0.2928  0.0819  0.0563
 1120loPI   C3A17585   5.734   1.698   7.505  0.0036  0.1319 -0.0919
 1120loPI   C4A17586   5.820   1.767   8.011  0.1889 -0.3513 -0.4168
 1120loPI   C5A17587   5.889   1.593   8.396  0.1823  0.0039 -0.1064
 1120loPI   C6A17588   5.861   1.306   8.696  0.0215 -0.0204  0.3582
 1120loPI   C1B17589   5.149   1.808   6.582 -0.0116 -0.1639  0.2283
 1120loPI   C2B17590   5.201   1.820   6.987  0.0477 -0.0783 -0.1808
 1120loPI   C3B17591   5.242   1.939   7.426  0.0826  0.0550 -0.4482
 1120loPI   C4B17592   5.373   1.828   7.807 -0.2565 -0.0799 -0.0126
 1121loPI    C117593  14.924  13.470   5.680  0.2753  0.1797 -0.1134
 1121loPI    C217594  14.718  13.582   5.356  0.0033  0.0256  0.0032
 1121loPI    C317595  15.009  13.310   5.323  0.1961  0.2478 -0.1631
 1121loPI   PO417596  14.754  13.433   5.896 -0.1872  0.1188  0.1740
 1121loPI   GL117597  14.815  13.495   6.296 -0.3924  0.1522 -0.0135
 1121loPI   GL217598  15.038  13.443   6.438 -0.0717 -0.0475 -0.0287
 1121loPI   C1A17599  14.582  13.522   6.720 -0.0160 -0.3769 -0.1923
 1121loPI   C2A17600  14.597  13.480   7.192 -0.0968  0.0514 -0.0716
 1121loPI   C3A17601  14.491  13.321   7.583  0.0254 -0.2363  0.2596
 1121loPI   C4A17602  14.536  13.395   8.055 -0.0970  0.0434  0.2135
 1121loPI   C5A17603  14.522  13.681   8.404  0.1050  0.0062 -0.0795
 1121loPI   C6A17604  14.322  13.803   8.751  0.1420  0.0456 -0.1760
 1121loPI   C1B17605  15.069  13.357   6.829  0.0358  0.2204 -0.2915
 1121loPI   C2B17606  15.037  13.318   7.268  0.3262 -0.3987  0.0080
 1121loPI   C3B17607  15.039  13.229   7.644  0.0790 -0.1799  0.0834
 1121loPI   C4B17608  15.014  13.284   8.059 -0.0262  0.0130  0.2040
 1122loPI    C117609   4.065   7.583   5.688 -0.0305  0.0096  0.1601
 1122loPI    C217610   4.449   7.537   5.587 -0.0447  0.0334  0.0948
 1122loPI    C317611   4.168   7.556   5.302 -0.0948  0.0115  0.1426
 1122loPI   PO417612   4.081   7.713   5.895  0.1827 -0.2880 -0.0111
 1122loPI   GL117613   4.058   7.917   6.255 -0.2032  0.0798  0.0314
 1122loPI   GL217614   4.300   8.144   6.338  0.0558  0.1864 -0.1197
 1122loPI   C1A17615   4.040   7.759   6.679  0.0333 -0.2543  0.0377
 1122loPI   C2A17616   3.929   7.740   7.088  0.0673 -0.0139  0.1911
 1122loPI   C3A17617   3.999   7.648   7.542  0.0200 -0.0647 -0.1849
 1122loPI   C4A17618   3.996   7.647   7.974 -0.0464  0.1497 -0.1785
 1122loPI   C5A17619   4.024   7.626   8.360 -0.1368  0.0358 -0.0338
 1122loPI   C6A17620   3.793   7.362   8.658  0.1118 -0.0927 -0.0087
 1122loPI   C1B17621   4.330   8.133   6.693  0.1838  0.0613 -0.0662
 1122loPI   C2B17622   4.324   8.084   7.210  0.0192 -0.1548  0.0014
 1122loPI   C3B17623   4.397   8.141   7.666  0.0557 -0.0683  0.2696
 1122loPI   C4B17624   4.314   8.051   8.072  0.1899  0.2270  0.1636
 1123loPI    C117625   6.787   8.755   5.968 -0.3017 -0.0568  0.0785
 1123loPI    C217626   6.715   8.946   5.624  0.2213 -0.0400 -0.0301
 1123loPI    C317627   6.736   8.546   5.630 -0.1361 -0.0610  0.0553
 1123loPI   PO417628   6.663   8.895   6.118 -0.2390  0.4148  0.0428
 1123loPI   GL117629   6.585   8.898   6.573  0.1759 -0.0208 -0.1205
 1123loPI   GL217630   6.311   9.029   6.612 -0.0426 -0.1086  0.1648
 1123loPI   C1A17631   6.831   8.775   6.889 -0.0154 -0.1620  0.1444
 1123loPI   C2A17632   6.973   8.783   7.332  0.2364  0.2242 -0.0324
 1123loPI   C3A17633   6.942   8.779   7.795 -0.1545  0.3131 -0.0912
 1123loPI   C4A17634   7.012   8.854   8.252  0.2530  0.0175  0.0991
 1123loPI   C5A17635   7.301   9.150   8.444 -0.1392  0.0969 -0.0303
 1123loPI   C6A17636   7.397   9.319   8.821 -0.1858 -0.3549 -0.0060
 1123loPI   C1B17637   6.427   8.959   7.044 -0.3410  0.0947 -0.0066
 1123loPI   C2B17638   6.479   8.899   7.467 -0.1369  0.4098  0.2267
 1123loPI   C3B17639   6.475   8.887   7.895 -0.1477 -0.0416  0.2694
 1123loPI   C4B17640   6.447   8.916   8.332  0.0811  0.1379  0.1153
 1124loPI    C117641   8.994  15.022   5.792 -0.0321  0.0568  0.2249
 1124loPI    C217642   9.004  14.677   5.590 -0.0743 -0.0387  0.3838
 1124loPI    C317643   8.714  14.943   5.518 -0.0588 -0.0491  0.2820
 1124loPI   PO417644   8.963  14.984   5.979  0.3200 -0.1267 -0.0703
 1124loPI   GL117645   9.125  15.134   6.363 -0.1793  0.2629  0.0865
 1124loPI   GL217646   9.101  14.810   6.485  0.0982  0.2205 -0.2370
 1124loPI   C1A17647   9.263  15.182   6.736 -0.2543  0.1373  0.0650
 1124loPI   C2A17648   9.400  15.207   7.158  0.1751 -0.1970  0.1302
 1124loPI   C3A17649   9.415  15.165   7.512 -0.0134 -0.0870 -0.1129
 1124loPI   C4A17650   9.367  15.126   7.967 -0.0656  0.0210  0.1207
 1124loPI   C5A17651   9.360  15.010   8.397  0.0310 -0.0264  0.0439
 1124loPI   C6A17652   9.493  15.213   8.807  0.0240 -0.1912  0.2807
 1124loPI   C1B17653   8.961  14.845   6.889 -0.1579 -0.2526 -0.0010
 1124loPI   C2B17654   8.965  14.941   7.277  0.2541 -0.0131 -0.2780
 1124loPI   C3B17655   8.971  14.853   7.689 -0.1313 -0.0099 -0.1907
 1124loPI   C4B17656   8.937  14.740   8.090  0.1430 -0.0022  0.0773
 1125loPI    C117657  14.779   1.480   5.507  0.1918 -0.0662  0.0951
 1125loPI    C217658  14.992   1.381   5.183 -0.0219  0.0938 -0.0977
 1125loPI    C317659  14.657   1.596   5.144 -0.1052  0.0270  0.2218
 1125loPI   PO417660  15.008   1.617   5.714  0.0608 -0.1867 -0.1833
 1125loPI   GL117661  15.043   1.496   6.133 -0.0515  0.1739 -0.1722
 1125loPI   GL217662  14.747   1.567   6.332  0.1891 -0.2990 -0.1126
 1125loPI   C1A17663  15.173   1.282   6.446  0.0581  0.3887  0.0936
 1125loPI   C2A17664  15.279   1.178   6.878 -0.1550  0.0109 -0.0130
 1125loPI   C3A17665  15.352   1.286   7.383  0.0411 -0.0410 -0.0086
 1125loPI   C4A17666  15.313   1.285   7.799 -0.2744 -0.0999  0.1790
 1125loPI   C5A17667  15.462   1.109   8.221 -0.0639 -0.1177 -0.1489
 1125loPI   C6A17668  15.431   0.938   8.647  0.0088  0.0039 -0.0742
 1125loPI   C1B17669  14.822   1.386   6.811  0.2615 -0.0412  0.4122
 1125loPI   C2B17670  14.848   1.339   7.322  0.1903 -0.2527  0.2723
 1125loPI   C3B17671  14.770   1.329   7.756 -0.1354  0.0931  0.1545
 1125loPI   C4B17672  14.964   1.345   8.177  0.2376 -0.0030  0.0511
 1126loPI    C117673  15.297   5.463   5.716 -0.2668 -0.1490 -0.2154
 1126loPI    C217674  15.274   5.560   5.329 -0.0411  0.2013 -0.1456
 1126loPI    C317675  15.520   5.268   5.448 -0.1478  0.0592 -0.2703
 1126loPI   PO417676  15.085   5.426   5.923  0.0795  0.1139  0.0934
 1126loPI   GL117677  14.846   5.634   6.288  0.1458 -0.0069  0.1581
 1126loPI   GL217678  14.734   5.332   6.413 -0.3616  0.1300 -0.1869
 1126loPI   C1A17679  14.777   5.816   6.765 -0.0921  0.0274  0.3230
 1126loPI   C2A17680  14.749   5.942   7.200  0.0906 -0.3256 -0.3314
 1126loPI   C3A17681  14.665   5.910   7.670 -0.1219 -0.2645  0.0294
 1126loPI   C4A17682  14.748   5.839   8.059 -0.3227  0.1914 -0.3108
 1126loPI   C5A17683  14.819   6.001   8.422  0.0495  0.2582  0.2421
 1126loPI   C6A17684  15.016   6.120   8.851  0.5035  0.1648  0.1113
 1126loPI   C1B17685  14.890   5.361   6.865 -0.0209 -0.0171 -0.1887
 1126loPI   C2B17686  14.999   5.501   7.286  0.2807  0.1170  0.0205
 1126loPI   C3B17687  14.875   5.431   7.718  0.0138 -0.0337  0.2509
 1126loPI   C4B17688  14.824   5.333   8.056 -0.0047 -0.1933  0.0198
 1127loPI    C117689  12.029   7.958   5.902  0.0154 -0.0709 -0.2499
 1127loPI    C217690  11.925   8.256   5.655  0.1330  0.1772 -0.0056
 1127loPI    C317691  12.215   8.001   5.550  0.3035  0.3870 -0.0509
 1127loPI   PO417692  12.143   8.090   6.083  0.0697  0.0374  0.0781
 1127loPI   GL117693  12.102   8.263   6.486  0.1629 -0.2465  0.0134
 1127loPI   GL217694  12.393   8.049   6.494 -0.0181 -0.0758 -0.2028
 1127loPI   C1A17695  12.226   8.420   6.935 -0.3015 -0.1886 -0.0196
 1127loPI   C2A17696  12.189   8.376   7.344 -0.1039  0.2276  0.1299
 1127loPI   C3A17697  12.198   8.368   7.813 -0.0306 -0.3410  0.1309
 1127loPI   C4A17698  12.183   8.520   8.160 -0.2241 -0.0038  0.1244
 1127loPI   C5A17699  11.968   8.610   8.530 -0.0145  0.0012  0.0680
 1127loPI   C6A17700  11.625   8.853   8.741 -0.2352  0.0896 -0.1612
 1127loPI   C1B17701  12.317   7.850   6.798 -0.0893 -0.0453 -0.0587
 1127loPI   C2B17702  12.399   7.887   7.240  0.3572  0.5089  0.0886
 1127loPI   C3B17703  12.370   7.905   7.688 -0.1221 -0.0491 -0.2437
 1127loPI   C4B17704  12.318   7.951   8.128 -0.3487  0.1587 -0.1441
 1128loPI    C117705   8.590   6.901   5.983  0.0596  0.2216 -0.0522
 1128loPI    C217706   8.776   6.921   5.630 -0.1893  0.1165 -0.1916
 1128loPI    C317707   8.388   6.824   5.647 -0.1133 -0.1504  0.1303
 1128loPI   PO417708   8.725   6.706   6.074 -0.1261 -0.0337 -0.0154
 1128loPI   GL117709   8.871   6.719   6.414  0.3684  0.0135  0.0375
 1128loPI   GL217710   8.951   6.969   6.511  0.1033 -0.0666  0.0765
 1128loPI   C1A17711   8.986   6.447   6.701  0.1537  0.0434  0.2836
 1128loPI   C2A17712   9.030   6.440   7.173  0.0726  0.0330  0.3561
 1128loPI   C3A17713   8.966   6.384   7.637 -0.0471 -0.2359  0.1481
 1128loPI   C4A17714   9.060   6.421   8.150 -0.0889  0.1459 -0.0826
 1128loPI   C5A17715   8.785   6.405   8.489  0.1481  0.2395 -0.1415
 1128loPI   C6A17716   8.488   6.385   8.770  0.0831 -0.1651 -0.1509
 1128loPI   C1B17717   8.839   6.877   6.906  0.1614  0.1565  0.0148
 1128loPI   C2B17718   8.806   6.891   7.396  0.0235 -0.4938 -0.3023
 1128loPI   C3B17719   8.874   6.881   7.927 -0.0550  0.2450 -0.0311
 1128loPI   C4B17720   8.998   6.883   8.390  0.0358 -0.0892  0.0861
 1129loPI    C117721   5.306   5.742   5.447  0.2566 -0.0606  0.2321
 1129loPI    C217722   5.578   5.665   5.165  0.2411  0.0924  0.1745
 1129loPI    C317723   5.446   6.039   5.219 -0.0318  0.0039  0.1347
 1129loPI   PO417724   5.437   5.614   5.647 -0.0672  0.4384 -0.2788
 1129loPI   GL117725   5.426   5.627   6.121  0.2187  0.0031  0.1507
 1129loPI   GL217726   5.227   5.772   6.228 -0.2869 -0.2651  0.0029
 1129loPI   C1A17727   5.465   5.482   6.551 -0.0483 -0.0353 -0.2175
 1129loPI   C2A17728   5.439   5.456   6.900  0.3582 -0.1243  0.1601
 1129loPI   C3A17729   5.525   5.347   7.376 -0.2113  0.2465 -0.0793
 1129loPI   C4A17730   5.563   5.422   7.804 -0.2157  0.1607 -0.0048
 1129loPI   C5A17731   5.545   5.561   8.131 -0.3933  0.2416  0.1012
 1129loPI   C6A17732   5.449   5.458   8.620 -0.2363  0.0180  0.1156
 1129loPI   C1B17733   5.364   5.948   6.688 -0.0064  0.1033  0.0265
 1129loPI   C2B17734   5.361   5.881   7.131  0.1843 -0.2907 -0.0044
 1129loPI   C3B17735   5.383   5.862   7.562 -0.2853 -0.0406  0.0246
 1129loPI   C4B17736   5.446   6.007   8.014  0.0233  0.1016  0.0870
 1130loPI    C117737   6.898  11.663   5.997  0.0666  0.0614  0.0203
 1130loPI    C217738   6.721  11.675   5.638 -0.2406 -0.2215  0.1571
 1130loPI    C317739   6.834  12.015   5.817 -0.2354 -0.0677 -0.1319
 1130loPI   PO417740   6.792  11.598   6.131 -0.2068 -0.1726 -0.1420
 1130loPI   GL117741   6.666  11.646   6.564  0.2326 -0.2564 -0.2816
 1130loPI   GL217742   6.453  11.697   6.435  0.1643  0.2689 -0.0978
 1130loPI   C1A17743   6.646  11.716   6.921 -0.1135  0.1921  0.0029
 1130loPI   C2A17744   6.647  11.746   7.304 -0.1091 -0.0231  0.1544
 1130loPI   C3A17745   6.697  11.809   7.750 -0.1197 -0.2666 -0.4418
 1130loPI   C4A17746   6.649  11.699   8.291  0.0041  0.2005  0.3244
 1130loPI   C5A17747   6.749  11.581   8.722 -0.3725  0.3986 -0.3213
 1130loPI   C6A17748   6.525  11.607   9.056 -0.0877  0.1161 -0.1110
 1130loPI   C1B17749   6.189  11.824   6.767  0.2899 -0.1532 -0.0655
 1130loPI   C2B17750   6.175  11.783   7.146  0.1681  0.0051  0.2657
 1130loPI   C3B17751   6.205  11.832   7.535 -0.2656 -0.0948  0.1325
 1130loPI   C4B17752   6.136  11.841   8.046 -0.0965  0.2839  0.1165
 1131loPI    C117753   4.232   7.047   5.732  0.2626 -0.0706 -0.1166
 1131loPI    C217754   4.326   6.754   5.476 -0.1841 -0.2070 -0.1323
 1131loPI    C317755   4.042   7.020   5.381  0.0141  0.0581  0.0052
 1131loPI   PO417756   4.300   6.924   5.974  0.0540 -0.2130  0.0231
 1131loPI   GL117757   4.142   7.023   6.393  0.2176  0.0496  0.1998
 1131loPI   GL217758   4.176   7.321   6.594  0.3407  0.0604  0.2176
 1131loPI   C1A17759   4.298   6.751   6.699  0.1581 -0.3651  0.0425
 1131loPI   C2A17760   4.203   6.757   7.204  0.0820  0.0521 -0.0193
 1131loPI   C3A17761   4.233   6.587   7.697  0.0655 -0.1485  0.0192
 1131loPI   C4A17762   4.269   6.674   8.160 -0.0455  0.1151  0.3292
 1131loPI   C5A17763   4.142   6.736   8.565 -0.1273  0.0233  0.3232
 1131loPI   C6A17764   4.142   7.049   8.857 -0.1037 -0.0036  0.0145
 1131loPI   C1B17765   4.052   7.174   7.011 -0.5101 -0.0210 -0.0302
 1131loPI   C2B17766   4.076   7.178   7.430  0.0521 -0.1013 -0.1528
 1131loPI   C3B17767   4.086   7.127   7.894  0.0944 -0.0630 -0.2205
 1131loPI   C4B17768   4.148   7.148   8.333 -0.1834 -0.1324  0.2656
 1132loPI    C117769  14.988   5.068   5.594  0.0337 -0.1233 -0.0396
 1132loPI    C217770  14.607   4.965   5.531 -0.0222 -0.0609  0.1872
 1132loPI    C317771  14.750   5.305   5.377 -0.0611 -0.0783  0.1120
 1132loPI   PO417772  15.058   4.934   5.827 -0.4591  0.0989  0.2365
 1132loPI   GL117773  15.104   5.027   6.269  0.1997 -0.4220 -0.0361
 1132loPI   GL217774  15.391   4.858   6.327  0.0472 -0.1813 -0.2717
 1132loPI   C1A17775  15.060   4.910   6.745 -0.1559  0.0598  0.1129
 1132loPI   C2A17776  15.150   4.954   7.134 -0.1276  0.2128  0.0259
 1132loPI   C3A17777  15.150   4.965   7.609 -0.2010 -0.2020 -0.3398
 1132loPI   C4A17778  15.017   4.808   7.998  0.0177 -0.2329  0.3137
 1132loPI   C5A17779  14.984   4.847   8.437 -0.1549 -0.2628  0.3908
 1132loPI   C6A17780  15.265   5.093   8.668  0.0402 -0.0165  0.1310
 1132loPI   C1B17781  15.549   4.739   6.726  0.3937 -0.1005 -0.1038
 1132loPI   C2B17782  15.606   4.796   7.148  0.2104 -0.1229 -0.0489
 1132loPI   C3B17783  15.599   4.806   7.567 -0.1977 -0.1316 -0.0385
 1132loPI   C4B17784  15.589   4.832   7.926  0.3068  0.1432 -0.1653
 1133loPI    C117785   4.021  12.607   5.602 -0.0706 -0.2191 -0.4118
 1133loPI    C217786   4.160  12.951   5.451 -0.1978 -0.0403 -0.1295
 1133loPI    C317787   4.032  12.662   5.206  0.3276 -0.0690 -0.3846
 1133loPI   PO417788   3.905  12.619   5.842 -0.2137 -0.3178  0.1307
 1133loPI   GL117789   3.883  12.736   6.317 -0.1862 -0.0553  0.1462
 1133loPI   GL217790   4.030  12.941   6.280 -0.0475  0.0127 -0.0348
 1133loPI   C1A17791   3.637  12.495   6.606  0.0331 -0.2754  0.0019
 1133loPI   C2A17792   3.700  12.380   6.998  0.0339  0.0964  0.2199
 1133loPI   C3A17793   3.615  12.448   7.400 -0.2349 -0.0436 -0.0332
 1133loPI   C4A17794   3.623  12.372   7.888 -0.1957  0.2591  0.1081
 1133loPI   C5A17795   3.692  12.503   8.357  0.1974  0.2208  0.0714
 1133loPI   C6A17796   3.656  12.381   8.719 -0.0454  0.1174 -0.1416
 1133loPI   C1B17797   4.017  12.849   6.812 -0.0872 -0.0453  0.1190
 1133loPI   C2B17798   3.982  12.809   7.190  0.0440 -0.0140  0.1043
 1133loPI   C3B17799   3.974  12.712   7.668  0.2449 -0.2789 -0.2787
 1133loPI   C4B17800   3.962  12.919   7.967  0.3925  0.0046 -0.0121
 1134loPI    C117801  14.609   0.746   5.671  0.0670 -0.1476 -0.2681
 1134loPI    C217802  14.417   1.076   5.549  0.2322 -0.0055 -0.1487
 1134loPI    C317803  14.758   0.965   5.371  0.3598  0.0823  0.0375
 1134loPI   PO417804  14.613   0.777   5.954 -0.1810  0.1771 -0.0926
 1134loPI   GL117805  14.756   0.984   6.289 -0.2088 -0.0120  0.1777
 1134loPI   GL217806  14.367   1.010   6.381 -0.1246 -0.2026 -0.2807
 1134loPI   C1A17807  14.980   0.861   6.676  0.1833 -0.0429  0.1243
 1134loPI   C2A17808  15.026   0.860   7.176 -0.0138  0.1451 -0.0502
 1134loPI   C3A17809  14.938   0.849   7.655 -0.3399 -0.1026 -0.0172
 1134loPI   C4A17810  15.062   0.827   8.092  0.0341  0.0773 -0.2155
 1134loPI   C5A17811  15.021   0.570   8.470 -0.2141 -0.1160 -0.0995
 1134loPI   C6A17812  15.027   0.693   8.871  0.2385 -0.1738 -0.0230
 1134loPI   C1B17813  14.458   1.004   6.734  0.0795  0.1387  0.1097
 1134loPI   C2B17814  14.482   0.993   7.192  0.3050  0.3891  0.1530
 1134loPI   C3B17815  14.408   1.014   7.655 -0.0443 -0.0738  0.1039
 1134loPI   C4B17816  14.544   0.986   8.029  0.0162  0.1966 -0.0209
 1135loPI    C117817   4.882  16.972   5.304  0.0543 -0.2175  0.0947
 1135loPI    C217818   4.990  16.693   5.038 -0.1455 -0.1037 -0.1098
 1135loPI    C317819   5.197  17.034   5.065 -0.3129  0.0189 -0.3437
 1135loPI   PO417820   4.844  16.861   5.503  0.3941 -0.0160 -0.0008
 1135loPI   GL117821   4.629  16.678   5.943  0.1715  0.2326  0.0597
 1135loPI   GL217822   4.817  16.972   6.039  0.2807  0.0293  0.1253
 1135loPI   C1A17823   4.520  16.667   6.334 -0.3019 -0.1288  0.2182
 1135loPI   C2A17824   4.631  16.721   6.739 -0.1244 -0.0513  0.0530
 1135loPI   C3A17825   4.578  16.653   7.128 -0.3218 -0.1636 -0.2848
 1135loPI   C4A17826   4.654  16.776   7.501  0.0490  0.0165 -0.1256
 1135loPI   C5A17827   4.570  16.782   7.940  0.1491  0.3810  0.0625
 1135loPI   C6A17828   4.698  16.564   8.332  0.1894 -0.0452 -0.0080
 1135loPI   C1B17829   4.917  16.970   6.429  0.0920 -0.2243  0.0910
 1135loPI   C2B17830   5.028  17.011   6.896  0.1679  0.0783  0.3836
 1135loPI   C3B17831   5.014  17.102   7.261 -0.2777 -0.1138  0.0126
 1135loPI   C4B17832   4.959  17.106   7.708  0.0632  0.1284 -0.3831
 1136loPI    C117833   8.423   1.483   5.748 -0.1748 -0.2131 -0.0622
 1136loPI    C217834   8.289   1.779   5.515  0.1440 -0.0196 -0.0063
 1136loPI    C317835   8.473   1.464   5.351  0.2880  0.0734 -0.0244
 1136loPI   PO417836   8.300   1.500   5.922 -0.0788  0.1039  0.0669
 1136loPI   GL117837   8.390   1.368   6.368 -0.0869 -0.0952  0.0188
 1136loPI   GL217838   8.125   1.143   6.396 -0.0758 -0.1209  0.0882
 1136loPI   C1A17839   8.580   1.422   6.744 -0.1146 -0.1274  0.2075
 1136loPI   C2A17840   8.602   1.427   7.216  0.3375 -0.2270 -0.2310
 1136loPI   C3A17841   8.674   1.435   7.660 -0.0027 -0.0351  0.2826
 1136loPI   C4A17842   8.633   1.540   8.056  0.1801  0.1769 -0.0663
 1136loPI   C5A17843   8.589   1.805   8.475  0.1665 -0.0476  0.0996
 1136loPI   C6A17844   8.571   1.692   8.829  0.0617 -0.1497 -0.2789
 1136loPI   C1B17845   8.248   1.091   6.922 -0.1511  0.0656 -0.0493
 1136loPI   C2B17846   8.221   1.133   7.391 -0.0431 -0.2388  0.1006
 1136loPI   C3B17847   8.312   1.035   7.767  0.1178 -0.3955  0.0877
 1136loPI   C4B17848   8.381   1.145   8.123 -0.0122 -0.0964  0.3003
 1137loPI    C117849   2.870   1.851   5.792  0.0182 -0.1096  0.0921
 1137loPI    C217850   2.731   1.595   6.066 -0.1382 -0.0367  0.0822
 1137loPI    C317851   2.492   1.722   5.772  0.0525 -0.1798 -0.1387
 1137loPI   PO417852   3.035   2.037   5.972  0.1965  0.1285 -0.3526
 1137loPI   GL117853   3.056   1.980   6.280  0.2751 -0.1138  0.1579
 1137loPI   GL217854   2.821   1.902   6.526  0.3567  0.1728 -0.0554
 1137loPI   C1A17855   3.194   2.287   6.706  0.1360 -0.2307  0.2669
 1137loPI   C2A17856   3.095   2.239   7.107 -0.2006  0.0035  0.0744
 1137loPI   C3A17857   3.117   2.317   7.534 -0.0868 -0.2838  0.0411
 1137loPI   C4A17858   3.177   2.152   7.980  0.0175  0.0730 -0.1438
 1137loPI   C5A17859   3.280   1.874   8.219  0.1161  0.1535  0.2253
 1137loPI   C6A17860   3.340   1.473   8.420 -0.1046 -0.2561 -0.2855
 1137loPI   C1B17861   2.702   1.930   6.897  0.0841 -0.1326  0.1310
 1137loPI   C2B17862   2.826   1.928   7.330 -0.0296  0.2945  0.0797
 1137loPI   C3B17863   2.820   1.869   7.778  0.0702 -0.0415 -0.3244
 1137loPI   C4B17864   2.802   1.796   8.242  0.2523 -0.3817  0.1181
 1138loPI    C117865   3.291   0.612   5.079  0.1441  0.0369 -0.0114
 1138loPI    C217866   2.923   0.770   5.064  0.0920 -0.0659  0.1583
 1138loPI    C317867   3.005   0.433   4.864  0.0334 -0.1621  0.2945
 1138loPI   PO417868   3.332   0.657   5.378 -0.0846  0.1387 -0.3024
 1138loPI   GL117869   3.197   0.610   5.729  0.1973  0.2340 -0.2271
 1138loPI   GL217870   3.152   0.216   5.782 -0.2346 -0.2940  0.1198
 1138loPI   C1A17871   3.245   0.566   6.149 -0.0211  0.0454  0.1115
 1138loPI   C2A17872   3.258   0.465   6.535  0.2713 -0.2906 -0.0680
 1138loPI   C3A17873   3.232   0.455   6.912 -0.0273 -0.5010  0.0243
 1138loPI   C4A17874   3.239   0.485   7.315 -0.0223  0.0602  0.0668
 1138loPI   C5A17875   3.344   0.394   7.697 -0.2156  0.2818 -0.2597
 1138loPI   C6A17876   3.195   0.447   8.035 -0.1278  0.3461  0.4665
 1138loPI   C1B17877   3.350  -0.022   6.142  0.0826  0.0129  0.0930
 1138loPI   C2B17878   3.418  -0.024   6.605  0.0481  0.0823  0.1658
 1138loPI   C3B17879   3.481  -0.068   7.038 -0.1426  0.4672  0.0212
 1138loPI   C4B17880   3.429  -0.069   7.518 -0.0090 -0.1143 -0.0678
 1139loPI    C117881   0.524   7.075   5.740  0.0796 -0.1270 -0.0087
 1139loPI    C217882   0.271   7.100   5.431 -0.0400 -0.1204  0.0891
 1139loPI    C317883   0.641   7.249   5.399 -0.0635 -0.0884 -0.0387
 1139loPI   PO417884   0.444   7.135   5.981 -0.2313 -0.0296  0.1712
 1139loPI   GL117885   0.277   6.922   6.261  0.0902 -0.1660 -0.1806
 1139loPI   GL217886   0.361   6.629   6.382  0.1301 -0.1189 -0.0280
 1139loPI   C1A17887   0.225   7.141   6.605 -0.1056 -0.0465  0.1052
 1139loPI   C2A17888   0.115   7.090   7.016 -0.0982  0.1506 -0.5142
 1139loPI   C3A17889   0.180   7.063   7.453  0.0451  0.1582 -0.1602
 1139loPI   C4A17890   0.146   7.078   7.959 -0.1396  0.1427  0.1408
 1139loPI   C5A17891  -0.098   7.206   8.388  0.2040  0.1400 -0.1048
 1139loPI   C6A17892  -0.324   7.184   8.756  0.4545 -0.1491  0.4587
 1139loPI   C1B17893   0.339   6.686   6.826 -0.0967  0.1667 -0.1922
 1139loPI   C2B17894   0.258   6.626   7.275  0.0789  0.2493  0.0894
 1139loPI   C3B17895   0.249   6.656   7.744 -0.1130 -0.1895  0.1936
 1139loPI   C4B17896   0.240   6.651   8.210  0.0820  0.2751 -0.0837
 1140loPI    C117897   3.899   9.409   5.841  0.1526  0.2429  0.1185
 1140loPI    C217898   3.850   9.177   5.519  0.0491 -0.0390  0.3324
 1140loPI    C317899   3.829   9.575   5.484  0.3446 -0.0514 -0.0608
 1140loPI   PO417900   4.094   9.303   5.990 -0.0521 -0.2289 -0.0781
 1140loPI   GL117901   4.143   9.094   6.426 -0.1934 -0.0370  0.3981
 1140loPI   GL217902   3.811   9.194   6.479  0.1033  0.0881 -0.0565
 1140loPI   C1A17903   4.203   9.109   6.828  0.4616 -0.0710  0.2146
 1140loPI   C2A17904   4.123   9.083   7.275  0.0668  0.1892  0.1479
 1140loPI   C3A17905   4.131   9.118   7.755  0.0642  0.0315 -0.0284
 1140loPI   C4A17906   4.194   8.982   8.193 -0.4209  0.0648 -0.3350
 1140loPI   C5A17907   4.140   9.159   8.550 -0.0324  0.0455  0.0655
 1140loPI   C6A17908   3.956   9.062   8.857  0.2880  0.1361 -0.0696
 1140loPI   C1B17909   3.689   9.153   6.987 -0.1656  0.0716  0.0573
 1140loPI   C2B17910   3.659   9.231   7.320  0.4579 -0.0526 -0.0287
 1140loPI   C3B17911   3.603   9.231   7.784  0.2037  0.2296  0.2532
 1140loPI   C4B17912   3.675   9.229   8.201 -0.0565  0.0455  0.0863
 1141loPI    C117913   5.909   9.427   5.809  0.0198 -0.2628 -0.0949
 1141loPI    C217914   6.114   9.696   5.596  0.1657 -0.1486  0.1843
 1141loPI    C317915   5.720   9.655   5.541  0.1544  0.0734  0.0906
 1141loPI   PO417916   5.987   9.563   6.084  0.1316  0.0797 -0.1013
 1141loPI   GL117917   5.841   9.412   6.481  0.0114 -0.2749 -0.1163
 1141loPI   GL217918   5.846   9.148   6.592  0.1121  0.0575 -0.2728
 1141loPI   C1A17919   5.828   9.668   6.841  0.1317 -0.2279 -0.2345
 1141loPI   C2A17920   5.800   9.537   7.285  0.1093 -0.1900 -0.0241
 1141loPI   C3A17921   5.887   9.582   7.721 -0.0918 -0.0855 -0.1077
 1141loPI   C4A17922   5.873   9.520   8.150 -0.0259 -0.0737  0.2260
 1141loPI   C5A17923   6.133   9.346   8.481  0.0508  0.1161 -0.1451
 1141loPI   C6A17924   6.015   9.144   8.917 -0.2353  0.0577  0.0205
 1141loPI   C1B17925   5.924   9.079   7.030  0.3349  0.0946 -0.1279
 1141loPI   C2B17926   5.927   9.015   7.547 -0.1028 -0.1011  0.1818
 1141loPI   C3B17927   5.978   8.983   8.032  0.2513  0.3180 -0.3933
 1141loPI   C4B17928   5.955   8.914   8.481 -0.3263  0.0981 -0.0253
 1142loPI    C117929   2.361  12.816   5.520 -0.1165 -0.1873  0.0223
 1142loPI    C217930   2.222  12.965   5.176 -0.0027 -0.1376 -0.0024
 1142loPI    C317931   2.293  12.573   5.209 -0.3249 -0.1927  0.0703
 1142loPI   PO417932   2.337  12.955   5.710 -0.1983  0.1272  0.1788
 1142loPI   GL117933   2.203  13.030   6.172 -0.2208 -0.0353 -0.0354
 1142loPI   GL217934   2.331  13.424   6.025 -0.2005 -0.1999  0.0387
 1142loPI   C1A17935   2.159  12.858   6.602  0.2231 -0.3952  0.1093
 1142loPI   C2A17936   2.207  12.737   7.065  0.1358  0.3046 -0.0118
 1142loPI   C3A17937   2.217  12.822   7.436 -0.0012  0.1565 -0.0644
 1142loPI   C4A17938   2.182  12.882   7.912  0.2431  0.0737  0.1799
 1142loPI   C5A17939   2.380  12.964   8.289  0.1207 -0.2126 -0.1570
 1142loPI   C6A17940   2.379  13.141   8.698 -0.2207  0.1458 -0.1543
 1142loPI   C1B17941   2.427  13.706   6.271  0.1226 -0.1046  0.0027
 1142loPI   C2B17942   2.389  13.691   6.724 -0.0234  0.0453  0.1290
 1142loPI   C3B17943   2.439  13.642   7.114 -0.0811  0.3796  0.1374
 1142loPI   C4B17944   2.368  13.713   7.533  0.2436  0.2166  0.1976
 1143loPI    C117945   8.734  11.643   5.841  0.0126 -0.2083 -0.0462
 1143loPI    C217946   8.972  11.634   5.519  0.0044  0.0273 -0.0605
 1143loPI    C317947   8.579  11.695   5.476 -0.0408 -0.2328 -0.0271
 1143loPI   PO417948   8.879  11.435   5.969  0.1290 -0.2649  0.0507
 1143loPI   GL117949   9.033  11.447   6.406  0.2149 -0.0143  0.1035
 1143loPI   GL217950   8.824  11.262   6.495  0.0855 -0.2254  0.1250
 1143loPI   C1A17951   8.977  11.619   6.768  0.0771 -0.0413 -0.1792
 1143loPI   C2A17952   8.941  11.587   7.164  0.0827  0.0397 -0.2951
 1143loPI   C3A17953   8.824  11.536   7.588 -0.0732 -0.3000 -0.1307
 1143loPI   C4A17954   8.924  11.545   8.029  0.0120  0.2354  0.0664
 1143loPI   C5A17955   8.946  11.504   8.438 -0.0737 -0.2592  0.1178
 1143loPI   C6A17956   8.786  11.419   8.820  0.2632 -0.0541  0.2054
 1143loPI   C1B17957   8.619  11.268   6.935 -0.0400 -0.0433  0.0988
 1143loPI   C2B17958   8.545  11.162   7.324  0.0705  0.0624  0.1785
 1143loPI   C3B17959   8.537  11.235   7.856  0.1355 -0.0195 -0.0081
 1143loPI   C4B17960   8.484  11.311   8.354 -0.0738  0.2170 -0.1247
 1144loPI    C117961  14.731  15.106   5.503  0.0138  0.0307 -0.0416
 1144loPI    C217962  14.354  15.169   5.386 -0.0161  0.1977  0.1375
 1144loPI    C317963  14.657  15.291   5.156 -0.0690  0.0205 -0.0297
 1144loPI   PO417964  14.703  15.083   5.812 -0.0059  0.0977  0.0255
 1144loPI   GL117965  14.659  14.858   6.199  0.2635  0.2090  0.0949
 1144loPI   GL217966  14.342  15.091   6.307 -0.2285  0.3124  0.0676
 1144loPI   C1A17967  14.677  14.838   6.595 -0.0800 -0.1512  0.2228
 1144loPI   C2A17968  14.605  14.832   7.038 -0.1502  0.3373  0.0706
 1144loPI   C3A17969  14.555  14.866   7.505 -0.0896 -0.0578  0.0043
 1144loPI   C4A17970  14.602  14.884   7.889  0.2377 -0.2275 -0.0568
 1144loPI   C5A17971  14.542  14.826   8.350 -0.2732 -0.1797  0.3472
 1144loPI   C6A17972  14.335  14.710   8.657  0.0431  0.1202 -0.0517
 1144loPI   C1B17973  14.463  15.287   6.784  0.3337 -0.1000 -0.1684
 1144loPI   C2B17974  14.473  15.268   7.239 -0.0713  0.2162  0.2471
 1144loPI   C3B17975  14.475  15.318   7.705  0.1733  0.3609 -0.0800
 1144loPI   C4B17976  14.421  15.285   8.173  0.0724 -0.1030  0.1111
 1145loPI    C117977   8.724   7.543   5.802 -0.1516  0.3900 -0.0079
 1145loPI    C217978   8.432   7.332   5.627  0.0662 -0.1190  0.2218
 1145loPI    C317979   8.713   7.509   5.403 -0.2718  0.1670  0.0129
 1145loPI   PO417980   8.776   7.419   6.019 -0.1240 -0.0855 -0.4202
 1145loPI   GL117981   8.809   7.426   6.385 -0.0199 -0.0230 -0.1322
 1145loPI   GL217982   9.078   7.604   6.487 -0.2758 -0.0407 -0.1124
 1145loPI   C1A17983   8.691   7.325   6.828 -0.1472 -0.1886  0.1113
 1145loPI   C2A17984   8.629   7.407   7.317  0.2591 -0.2390  0.0480
 1145loPI   C3A17985   8.691   7.272   7.736 -0.1645  0.0315  0.2378
 1145loPI   C4A17986   8.703   7.303   8.193 -0.0323 -0.1244  0.3564
 1145loPI   C5A17987   8.790   7.446   8.585  0.2147  0.2355  0.3549
 1145loPI   C6A17988   8.781   7.601   8.987  0.0465  0.2010  0.1720
 1145loPI   C1B17989   9.014   7.730   6.900 -0.1608 -0.0582  0.0431
 1145loPI   C2B17990   9.024   7.705   7.315  0.0244  0.0060 -0.0922
 1145loPI   C3B17991   9.021   7.656   7.739  0.0720 -0.1105 -0.0902
 1145loPI   C4B17992   9.070   7.806   8.154 -0.2008 -0.0276  0.4419
 1146loPI    C117993   4.870   1.515   5.768 -0.2122 -0.1786  0.0312
 1146loPI    C217994   5.022   1.664   5.429 -0.1540 -0.1567  0.0666
 1146loPI    C317995   5.075   1.278   5.520 -0.0148 -0.1213  0.1375
 1146loPI   PO417996   4.679   1.728   5.831 -0.0541  0.1663  0.1811
 1146loPI   GL117997   4.688   1.824   6.227 -0.1254  0.1228  0.0706
 1146loPI   GL217998   4.378   1.746   6.247 -0.3461  0.1891  0.0992
 1146loPI   C1A17999   4.687   1.970   6.574  0.0429 -0.1053 -0.0039
 1146loPI   C2A18000   4.717   1.995   7.055  0.0959  0.1816  0.4414
 1146loPI   C3A18001   4.750   2.072   7.476  0.0807  0.1094 -0.2015
 1146loPI   C4A18002   4.645   2.017   7.852  0.0913  0.0920 -0.1431
 1146loPI   C5A18003   4.646   2.059   8.256  0.1453 -0.0347 -0.1169
 1146loPI   C6A18004   4.408   2.164   8.611 -0.2157 -0.0009 -0.1063
 1146loPI   C1B18005   4.402   1.592   6.663 -0.1606  0.1865  0.0169
 1146loPI   C2B18006   4.361   1.547   7.114 -0.1503  0.0673  0.1475
 1146loPI   C3B18007   4.341   1.693   7.541 -0.0496 -0.0089 -0.1880
 1146loPI   C4B18008   4.409   1.625   8.005  0.1002  0.1093  0.1437
 1147loPI    C118009   7.550   6.253   5.999 -0.0974 -0.1485 -0.0481
 1147loPI    C218010   7.192   6.078   6.036 -0.1308 -0.0287  0.2269
 1147loPI    C318011   7.523   5.880   6.141 -0.1293 -0.0821  0.1236
 1147loPI   PO418012   7.686   6.455   6.145  0.2265 -0.3129  0.0488
 1147loPI   GL118013   7.492   6.634   6.511 -0.1353  0.1364  0.1088
 1147loPI   GL218014   7.916   6.590   6.597  0.0811 -0.1841  0.0798
 1147loPI   C1A18015   7.484   6.828   6.807 -0.3549  0.3945 -0.2979
 1147loPI   C2A18016   7.500   6.747   7.311 -0.3770  0.0526  0.1586
 1147loPI   C3A18017   7.503   6.779   7.733  0.1786 -0.1285 -0.0121
 1147loPI   C4A18018   7.502   6.741   8.172 -0.1016 -0.1539 -0.1025
 1147loPI   C5A18019   7.578   6.365   8.482 -0.2334 -0.1679  0.0371
 1147loPI   C6A18020   7.448   5.994   8.364 -0.1784 -0.2821 -0.0221
 1147loPI   C1B18021   7.972   6.673   6.970  0.0439  0.1372  0.0208
 1147loPI   C2B18022   8.010   6.697   7.350  0.0228  0.0449  0.0766
 1147loPI   C3B18023   8.025   6.675   7.777  0.1068  0.0511 -0.1217
 1147loPI   C4B18024   7.969   6.617   8.235 -0.0784 -0.1531 -0.1769
 1148loPI    C118025  13.298   5.985   5.878  0.0507 -0.0775 -0.0807
 1148loPI    C218026  13.566   5.788   5.657  0.0720  0.0219 -0.1441
 1148loPI    C318027  13.346   6.078   5.492 -0.0119  0.0007 -0.0699
 1148loPI   PO418028  13.503   6.000   6.120  0.3474 -0.0899  0.1282
 1148loPI   GL118029  13.548   5.844   6.619 -0.2418 -0.0453  0.0443
 1148loPI   GL218030  13.888   5.765   6.485 -0.0693  0.2540 -0.1449
 1148loPI   C1A18031  13.517   5.743   7.079  0.3404  0.4254  0.0169
 1148loPI   C2A18032  13.371   5.804   7.485 -0.0572 -0.4158  0.3828
 1148loPI   C3A18033  13.339   5.810   7.934  0.2184 -0.2736 -0.0032
 1148loPI   C4A18034  13.391   5.733   8.431  0.2681  0.2486 -0.3315
 1148loPI   C5A18035  13.470   6.068   8.776  0.1794 -0.0337 -0.1383
 1148loPI   C6A18036  13.712   6.444   8.856  0.0900  0.0633 -0.2276
 1148loPI   C1B18037  13.994   5.697   6.949  0.1030 -0.0682  0.0597
 1148loPI   C2B18038  13.882   5.600   7.336 -0.0032  0.0701  0.1382
 1148loPI   C3B18039  13.836   5.698   7.719  0.0300 -0.0306 -0.2908
 1148loPI   C4B18040  13.843   5.730   8.069 -0.0834 -0.1351  0.1552
 1149loPI    C118041   9.817   7.739   5.941 -0.0810  0.0587  0.1780
 1149loPI    C218042   9.648   7.894   5.613 -0.1294 -0.1148  0.1199
 1149loPI    C318043   9.725   7.502   5.632  0.2144 -0.0481  0.1688
 1149loPI   PO418044   9.740   7.845   6.138  0.1010 -0.0449 -0.0376
 1149loPI   GL118045   9.814   7.855   6.583  0.1025  0.1043 -0.0826
 1149loPI   GL218046   9.561   7.609   6.611 -0.1287 -0.0044  0.0814
 1149loPI   C1A18047   9.851   8.146   6.943 -0.1204  0.2067  0.0511
 1149loPI   C2A18048   9.898   7.969   7.380 -0.1475 -0.0152  0.1686
 1149loPI   C3A18049   9.906   8.083   7.791 -0.1646  0.1586  0.1863
 1149loPI   C4A18050   9.920   8.140   8.221 -0.1227  0.3619 -0.1036
 1149loPI   C5A18051   9.629   8.232   8.494 -0.1549  0.0704  0.1337
 1149loPI   C6A18052   9.392   8.402   8.846 -0.2175  0.2194  0.0964
 1149loPI   C1B18053   9.567   7.684   6.983 -0.2621 -0.0780 -0.1296
 1149loPI   C2B18054   9.526   7.575   7.406  0.1280 -0.0046 -0.1655
 1149loPI   C3B18055   9.530   7.677   7.867  0.0406 -0.0463  0.3505
 1149loPI   C4B18056   9.592   7.766   8.275 -0.0056  0.0648 -0.0210
 1150loPI    C118057  11.194   3.702   5.733 -0.1071  0.1492  0.0508
 1150loPI    C218058  10.939   3.394   5.721  0.0686  0.0033  0.0172
 1150loPI    C318059  11.141   3.500   5.392  0.2580 -0.0591  0.1123
 1150loPI   PO418060  11.167   3.765   5.989  0.1528 -0.3257  0.0396
 1150loPI   GL118061  11.183   3.550   6.295 -0.0424  0.4545 -0.0802
 1150loPI   GL218062  10.913   3.771   6.425  0.2004  0.0575 -0.0002
 1150loPI   C1A18063  11.294   3.500   6.764 -0.0006  0.0937  0.1154
 1150loPI   C2A18064  11.258   3.548   7.123  0.0606  0.0774 -0.0577
 1150loPI   C3A18065  11.261   3.569   7.590 -0.1836 -0.0416  0.4717
 1150loPI   C4A18066  11.215   3.696   7.952 -0.0600 -0.1102  0.1083
 1150loPI   C5A18067  11.267   3.732   8.370  0.0225  0.1238  0.2277
 1150loPI   C6A18068  11.292   4.082   8.558  0.0853  0.2102 -0.0157
 1150loPI   C1B18069  11.015   3.975   6.737 -0.1703  0.1030  0.2466
 1150loPI   C2B18070  11.095   4.037   7.099 -0.0358  0.1154 -0.1742
 1150loPI   C3B18071  11.119   4.049   7.599 -0.3199  0.0130  0.1808
 1150loPI   C4B18072  11.214   4.164   7.922 -0.1309 -0.0671 -0.0587
 1151loPI    C118073  14.470  11.736   5.608 -0.0037  0.2533 -0.1763
 1151loPI    C218074  14.257  11.419   5.491 -0.0796  0.1624  0.1940
 1151loPI    C318075  14.653  11.425   5.435 -0.1005  0.0791  0.0299
 1151loPI   PO418076  14.369  11.784   5.826 -0.3149  0.2287 -0.1199
 1151loPI   GL118077  14.413  11.770   6.253  0.2168  0.0266  0.0176
 1151loPI   GL218078  14.574  11.524   6.397 -0.2061  0.1460  0.0904
 1151loPI   C1A18079  14.125  11.712   6.650  0.0577 -0.0636 -0.1874
 1151loPI   C2A18080  14.081  11.626   7.014  0.1643  0.0873 -0.1565
 1151loPI   C3A18081  14.032  11.676   7.483  0.0767  0.0094 -0.0666
 1151loPI   C4A18082  14.095  11.728   7.935 -0.1478 -0.0243  0.5750
 1151loPI   C5A18083  14.069  11.550   8.306 -0.0300 -0.0700  0.2953
 1151loPI   C6A18084  14.041  11.425   8.743  0.6594  0.1327 -0.1204
 1151loPI   C1B18085  14.606  11.535   6.906  0.0317 -0.1055 -0.2496
 1151loPI   C2B18086  14.567  11.560   7.314 -0.0970  0.0853 -0.2251
 1151loPI   C3B18087  14.478  11.631   7.689  0.1712  0.1194 -0.0121
 1151loPI   C4B18088  14.585  11.558   7.976 -0.0526 -0.0563 -0.1250
 1152loPI    C118089  16.523  17.463   5.687 -0.1262  0.0012 -0.0165
 1152loPI    C218090  16.168  17.304   5.592 -0.1464  0.1339 -0.1674
 1152loPI    C318091  16.499  17.185   5.401 -0.0585 -0.2248  0.1934
 1152loPI   PO418092  16.613  17.397   5.971 -0.1048 -0.0638  0.3457
 1152loPI   GL118093  16.514  17.244   6.324 -0.0129 -0.0684  0.0658
 1152loPI   GL218094  16.786  17.112   6.333  0.1344  0.2444 -0.0475
 1152loPI   C1A18095  16.345  17.038   6.613  0.0701 -0.0617  0.1655
 1152loPI   C2A18096  16.269  17.042   7.007  0.0663  0.0545  0.0274
 1152loPI   C3A18097  16.242  17.085   7.468 -0.3261 -0.1742  0.2758
 1152loPI   C4A18098  16.370  17.148   7.937  0.2802 -0.2294  0.0127
 1152loPI   C5A18099  16.475  17.329   8.361 -0.2494 -0.1213 -0.0705
 1152loPI   C6A18100  16.731  17.224   8.666 -0.0385 -0.2903 -0.0132
 1152loPI   C1B18101  16.816  16.940   6.725  0.2132  0.0601 -0.2908
 1152loPI   C2B18102  16.812  16.897   7.191 -0.1416 -0.0992 -0.0555
 1152loPI   C3B18103  16.771  17.027   7.661  0.1284  0.1584 -0.0065
 1152loPI   C4B18104  16.830  17.031   8.138 -0.1544 -0.0416 -0.2612
 1153loPI    C118105   6.035  16.596   5.709 -0.0861 -0.3146  0.1846
 1153loPI    C218106   6.204  16.370   5.425 -0.0170  0.1159 -0.1279
 1153loPI    C318107   5.817  16.469   5.398 -0.0962 -0.1167  0.1091
 1153loPI   PO418108   6.009  16.390   5.964  0.1090 -0.1073 -0.3266
 1153loPI   GL118109   5.775  16.601   6.300  0.0410  0.0996 -0.0551
 1153loPI   GL218110   6.015  16.795   6.373  0.2456 -0.0033  0.1280
 1153loPI   C1A18111   5.633  16.451   6.661  0.0448  0.1333 -0.0617
 1153loPI   C2A18112   5.735  16.533   6.959 -0.1326  0.0074  0.0325
 1153loPI   C3A18113   5.734  16.452   7.376  0.1237  0.0817  0.0395
 1153loPI   C4A18114   5.642  16.522   7.863 -0.0779  0.1061  0.3982
 1153loPI   C5A18115   5.655  16.398   8.341 -0.2559 -0.2104  0.1146
 1153loPI   C6A18116   5.360  16.224   8.663 -0.1927  0.0929  0.1674
 1153loPI   C1B18117   6.043  16.840   6.822 -0.0773  0.1489 -0.0372
 1153loPI   C2B18118   5.995  16.897   7.307  0.3409 -0.0030 -0.0863
 1153loPI   C3B18119   6.010  16.888   7.781 -0.0145  0.2121  0.1612
 1153loPI   C4B18120   5.851  16.799   8.171 -0.0389  0.1440  0.1150
 1154loPI    C118121  15.590  16.982   5.642 -0.0739  0.3571 -0.0667
 1154loPI    C218122  15.718  17.261   5.384  0.0962  0.1161 -0.2481
 1154loPI    C318123  15.669  16.883   5.262  0.2290 -0.0133  0.0862
 1154loPI   PO418124  15.821  17.048   5.879  0.2513  0.2674 -0.1570
 1154loPI   GL118125  15.788  17.124   6.328 -0.0146 -0.0570  0.0359
 1154loPI   GL218126  15.908  16.765   6.295 -0.5938  0.1054 -0.0617
 1154loPI   C1A18127  15.828  17.194   6.672 -0.0525 -0.1300 -0.1994
 1154loPI   C2A18128  15.828  17.227   7.058 -0.1294  0.2130 -0.0351
 1154loPI   C3A18129  15.813  17.288   7.513  0.1933 -0.0794  0.1514
 1154loPI   C4A18130  15.679  17.221   8.032 -0.0421  0.3986  0.2976
 1154loPI   C5A18131  15.432  17.039   8.447 -0.1149  0.0055 -0.0230
 1154loPI   C6A18132  15.119  17.288   8.602 -0.2649  0.0443 -0.0407
 1154loPI   C1B18133  15.970  16.707   6.808 -0.0510 -0.3517  0.2680
 1154loPI   C2B18134  16.008  16.679   7.221  0.2575  0.1642  0.3082
 1154loPI   C3B18135  15.954  16.757   7.709 -0.0495 -0.3748 -0.1811
 1154loPI   C4B18136  16.006  16.868   8.136 -0.0355 -0.1637  0.1872
 1155loPI    C118137   2.424   2.596   5.910  0.0704  0.0416  0.1193
 1155loPI    C218138   2.812   2.507   5.942  0.0575 -0.0926 -0.0808
 1155loPI    C318139   2.698   2.884   5.874  0.1502 -0.0473  0.0116
 1155loPI   PO418140   2.323   2.541   6.108 -0.1193 -0.1825 -0.0840
 1155loPI   GL118141   2.518   2.386   6.467 -0.0277 -0.0142  0.1398
 1155loPI   GL218142   2.786   2.421   6.462 -0.0567 -0.0552  0.1133
 1155loPI   C1A18143   2.559   2.404   6.939 -0.0172 -0.0997  0.1717
 1155loPI   C2A18144   2.647   2.383   7.340 -0.0574 -0.1539 -0.2032
 1155loPI   C3A18145   2.629   2.454   7.698 -0.2428 -0.0048  0.2405
 1155loPI   C4A18146   2.757   2.378   8.108 -0.2219  0.0343  0.1146
 1155loPI   C5A18147   3.105   2.326   8.443  0.0393  0.1472 -0.2533
 1155loPI   C6A18148   3.370   2.276   8.740  0.1452  0.0627 -0.0102
 1155loPI   C1B18149   2.961   2.696   6.791 -0.0466 -0.0015  0.1631
 1155loPI   C2B18150   2.989   2.755   7.135  0.0492 -0.0151  0.1549
 1155loPI   C3B18151   2.994   2.827   7.576  0.4242 -0.2359 -0.1157
 1155loPI   C4B18152   3.035   2.789   8.076  0.0873  0.1112  0.0119
 1156loPI    C118153  16.914   5.014   5.867  0.0590 -0.1320 -0.0096
 1156loPI    C218154  16.702   4.675   5.847  0.0257 -0.1154  0.0597
 1156loPI    C318155  17.002   4.739   5.590 -0.0071 -0.1706  0.0076
 1156loPI   PO418156  17.053   5.055   6.084 -0.0099  0.1927 -0.1305
 1156loPI   GL118157  17.225   5.389   6.206  0.0531  0.1271  0.1509
 1156loPI   GL218158  16.963   5.618   6.232 -0.0648  0.1887 -0.0337
 1156loPI   C1A18159  17.344   5.405   6.562  0.2676  0.4333 -0.2086
 1156loPI   C2A18160  17.375   5.390   6.992  0.1282  0.0943  0.1304
 1156loPI   C3A18161  17.309   5.376   7.415 -0.2309 -0.0408  0.1115
 1156loPI   C4A18162  17.314   5.397   7.805  0.0503 -0.1282  0.0816
 1156loPI   C5A18163  17.237   5.495   8.134  0.1851  0.0566 -0.1581
 1156loPI   C6A18164  17.365   5.612   8.542  0.3925  0.1621 -0.0038
 1156loPI   C1B18165  16.855   5.549   6.554  0.0669  0.0043  0.2312
 1156loPI   C2B18166  16.787   5.604   6.943 -0.1053  0.0444  0.0021
 1156loPI   C3B18167  16.803   5.544   7.360 -0.2180  0.3145  0.1324
 1156loPI   C4B18168  16.767   5.505   7.836  0.0627 -0.2588  0.1966
 1157loPI    C118169   9.418   0.688   5.910 -0.1075 -0.0733 -0.0209
 1157loPI    C218170   9.609   0.993   5.736  0.1326 -0.0980  0.1937
 1157loPI    C318171   9.479   0.686   5.515  0.1790  0.0053  0.0211
 1157loPI   PO418172   9.512   0.603   6.041  0.0420 -0.1294 -0.0111
 1157loPI   GL118173   9.434   0.539   6.488  0.1897  0.1094 -0.1596
 1157loPI   GL218174   9.258   0.878   6.570  0.2695  0.1746  0.1155
 1157loPI   C1A18175   9.518   0.346   6.841 -0.0417  0.0494  0.0335
 1157loPI   C2A18176   9.545   0.387   7.330  0.0336 -0.0053  0.2001
 1157loPI   C3A18177   9.535   0.338   7.743  0.1390 -0.1613  0.2339
 1157loPI   C4A18178   9.537   0.440   8.053 -0.1235  0.2038 -0.0062
 1157loPI   C5A18179   9.651   0.473   8.496 -0.2923  0.0382  0.1631
 1157loPI   C6A18180   9.935   0.459   8.835 -0.0785  0.2777 -0.3445
 1157loPI   C1B18181   9.306   0.799   6.939  0.1056 -0.1661  0.1914
 1157loPI   C2B18182   9.341   0.882   7.353 -0.1100  0.1891 -0.1443
 1157loPI   C3B18183   9.450   0.861   7.773  0.2850 -0.0466  0.1023
 1157loPI   C4B18184   9.358   0.910   8.254  0.2235 -0.0870 -0.2444
 1158loPI    C118185   0.466   1.429   5.758  0.0907  0.1923  0.0076
 1158loPI    C218186   0.853   1.377   5.843  0.0845  0.1985  0.0398
 1158loPI    C318187   0.713   1.277   5.482  0.1306  0.2637  0.0037
 1158loPI   PO418188   0.335   1.214   6.023  0.2007  0.0049  0.0277
 1158loPI   GL118189   0.423   1.167   6.456 -0.3219 -0.4690 -0.0939
 1158loPI   GL218190   0.709   1.134   6.384 -0.0667 -0.1678  0.2257
 1158loPI   C1A18191   0.296   1.148   6.902 -0.1297 -0.0734  0.0038
 1158loPI   C2A18192   0.166   1.112   7.377  0.0763 -0.1880  0.0318
 1158loPI   C3A18193   0.278   1.148   7.739 -0.0955 -0.0087 -0.0569
 1158loPI   C4A18194   0.233   1.003   8.198 -0.2256  0.1126  0.3562
 1158loPI   C5A18195   0.434   1.024   8.464 -0.1268  0.0534 -0.1352
 1158loPI   C6A18196   0.781   0.887   8.749  0.0921 -0.1963 -0.0632
 1158loPI   C1B18197   0.759   0.969   6.808 -0.2298 -0.1645 -0.2552
 1158loPI   C2B18198   0.768   0.960   7.242 -0.0245 -0.0500  0.2943
 1158loPI   C3B18199   0.837   1.071   7.622  0.0047 -0.0882  0.2398
 1158loPI   C4B18200   0.705   0.998   8.044 -0.0974 -0.0635 -0.0471
 1159loPI    C118201   2.728   6.900   5.719 -0.1097 -0.1951 -0.0241
 1159loPI    C218202   2.882   7.190   5.491 -0.1423 -0.2765 -0.1514
 1159loPI    C318203   3.124   6.929   5.673 -0.0900  0.0538  0.2711
 1159loPI   PO418204   2.571   6.944   5.898 -0.1599 -0.0026 -0.0330
 1159loPI   GL118205   2.550   6.913   6.340  0.0874  0.5614 -0.0481
 1159loPI   GL218206   2.207   6.925   6.429 -0.3128  0.1336 -0.1503
 1159loPI   C1A18207   2.721   7.164   6.785 -0.2392 -0.0988  0.0353
 1159loPI   C2A18208   2.700   7.079   7.181  0.1716  0.0826  0.3367
 1159loPI   C3A18209   2.858   7.246   7.579  0.0886 -0.0467 -0.1458
 1159loPI   C4A18210   2.805   7.102   8.005  0.1180 -0.0496 -0.1446
 1159loPI   C5A18211   2.652   7.254   8.378  0.0534 -0.0631  0.1160
 1159loPI   C6A18212   2.811   7.486   8.794  0.1717  0.0171 -0.1057
 1159loPI   C1B18213   2.372   6.808   6.850  0.2198 -0.1321  0.3600
 1159loPI   C2B18214   2.360   6.765   7.291  0.0752 -0.0155 -0.0890
 1159loPI   C3B18215   2.470   6.883   7.641  0.2534 -0.1157  0.0355
 1159loPI   C4B18216   2.398   6.844   8.110 -0.0292 -0.0209  0.1170
 1160loPI    C118217  11.779  16.161   5.977  0.1229  0.0065 -0.0071
 1160loPI    C218218  11.777  16.554   6.054  0.0553 -0.0040  0.0453
 1160loPI    C318219  11.996  16.411   5.752  0.2163  0.0536  0.1337
 1160loPI   PO418220  11.750  16.050   6.158  0.3095 -0.0683  0.2007
 1160loPI   GL118221  11.638  16.214   6.499  0.3717 -0.2074  0.0622
 1160loPI   GL218222  11.516  15.987   6.606 -0.0575 -0.0360 -0.1160
 1160loPI   C1A18223  11.825  16.401   6.819 -0.0413  0.1512  0.0532
 1160loPI   C2A18224  11.777  16.401   7.188  0.2877  0.2223  0.0178
 1160loPI   C3A18225  11.786  16.345   7.628 -0.0348  0.0370 -0.3830
 1160loPI   C4A18226  11.823  16.458   8.072  0.0203  0.0976 -0.2702
 1160loPI   C5A18227  11.543  16.498   8.474  0.1896 -0.0261 -0.0623
 1160loPI   C6A18228  11.350  16.378   8.760 -0.1931  0.3130  0.2807
 1160loPI   C1B18229  11.421  16.047   7.000  0.1094  0.1696  0.0573
 1160loPI   C2B18230  11.438  16.015   7.424  0.2559 -0.1492  0.2143
 1160loPI   C3B18231  11.456  16.100   7.940 -0.1059 -0.1343 -0.1625
 1160loPI   C4B18232  11.469  15.965   8.479  0.2515 -0.2183  0.2966
 1161loPI    C118233   0.976   7.117   5.708 -0.1842 -0.0559 -0.2882
 1161loPI    C218234   1.340   7.048   5.559 -0.0765 -0.2029  0.0338
 1161loPI    C318235   1.190   7.419   5.558  0.2411 -0.0690  0.2597
 1161loPI   PO418236   0.979   7.068   5.924 -0.3661  0.1970  0.1013
 1161loPI   GL118237   0.930   7.200   6.240 -0.1722  0.2275 -0.2662
 1161loPI   GL218238   0.796   7.380   6.346  0.2510  0.3881 -0.0831
 1161loPI   C1A18239   0.764   7.026   6.731 -0.0005  0.0147 -0.1687
 1161loPI   C2A18240   0.622   6.988   7.159  0.1650 -0.1248  0.1078
 1161loPI   C3A18241   0.628   6.954   7.587 -0.2244 -0.1698 -0.1725
 1161loPI   C4A18242   0.745   6.899   8.044  0.4271 -0.0274  0.2539
 1161loPI   C5A18243   0.513   7.040   8.375 -0.0324 -0.5224  0.2131
 1161loPI   C6A18244   0.490   7.231   8.843  0.0819  0.1493 -0.0339
 1161loPI   C1B18245   0.548   7.529   6.599  0.2358 -0.0297  0.0072
 1161loPI   C2B18246   0.514   7.449   7.022 -0.3276  0.3901  0.1142
 1161loPI   C3B18247   0.532   7.444   7.511  0.0778  0.3476 -0.3614
 1161loPI   C4B18248   0.549   7.341   7.971 -0.0499 -0.5780 -0.1099
 1162loPI    C118249  13.330   3.746   5.684 -0.2801  0.0220 -0.0741
 1162loPI    C218250  13.543   4.082   5.642 -0.0920 -0.1152 -0.2335
 1162loPI    C318251  13.605   3.773   5.395 -0.0406 -0.3836  0.1072
 1162loPI   PO418252  13.408   3.621   5.935  0.1228  0.0640 -0.2967
 1162loPI   GL118253  13.318   3.751   6.321 -0.1547 -0.0807 -0.1514
 1162loPI   GL218254  13.515   3.480   6.449  0.0584  0.0131  0.0439
 1162loPI   C1A18255  13.390   3.917   6.709 -0.0488 -0.3343  0.1998
 1162loPI   C2A18256  13.362   3.963   7.167  0.0543 -0.2477  0.3199
 1162loPI   C3A18257  13.447   3.908   7.598  0.0557  0.0770  0.0681
 1162loPI   C4A18258  13.520   3.903   7.963 -0.1671  0.0695 -0.2145
 1162loPI   C5A18259  13.661   3.980   8.403 -0.4265  0.0290  0.0290
 1162loPI   C6A18260  13.786   3.790   8.791  0.1046  0.2713  0.1723
 1162loPI   C1B18261  13.566   3.469   6.865 -0.1647 -0.1977 -0.1376
 1162loPI   C2B18262  13.653   3.455   7.273  0.1943 -0.1377 -0.1364
 1162loPI   C3B18263  13.616   3.445   7.730  0.0524  0.1661  0.0915
 1162loPI   C4B18264  13.610   3.464   8.234  0.1682 -0.0206  0.2751
 1163loPI    C118265   0.899   9.926   5.753 -0.2161 -0.0518 -0.0367
 1163loPI    C218266   0.801  10.090   5.402  0.2583 -0.0739 -0.1870
 1163loPI    C318267   0.766   9.695   5.455 -0.1810 -0.0251 -0.0731
 1163loPI   PO418268   0.795  10.045   5.983 -0.3802 -0.0782 -0.2557
 1163loPI   GL118269   0.401  10.137   6.189 -0.1042  0.0886  0.0163
 1163loPI   GL218270   0.101  10.232   6.351  0.1555  0.1834  0.2043
 1163loPI   C1A18271   0.619  10.176   6.612  0.0269  0.1169 -0.0727
 1163loPI   C2A18272   0.596  10.170   7.083 -0.2730 -0.3292  0.0922
 1163loPI   C3A18273   0.634  10.108   7.489 -0.1637  0.1945  0.1990
 1163loPI   C4A18274   0.645  10.136   7.939  0.0725 -0.2212  0.1759
 1163loPI   C5A18275   0.529  10.092   8.377 -0.0714 -0.0412 -0.1278
 1163loPI   C6A18276   0.132  10.078   8.604  0.2823 -0.1830 -0.1908
 1163loPI   C1B18277   0.166  10.345   6.819  0.0291 -0.2329 -0.3154
 1163loPI   C2B18278   0.128  10.296   7.152 -0.0042 -0.0445  0.0711
 1163loPI   C3B18279   0.096  10.316   7.514 -0.1745  0.0443 -0.0395
 1163loPI   C4B18280   0.142  10.306   7.930  0.0193  0.1781 -0.2354
 1164loPI    C118281   3.585   6.861   5.917 -0.0026  0.0322  0.3333
 1164loPI    C218282   3.861   6.686   6.147  0.1642 -0.0448  0.0790
 1164loPI    C318283   3.914   6.706   5.751 -0.1451  0.0366  0.0389
 1164loPI   PO418284   3.467   7.025   6.050 -0.2437  0.1839  0.0006
 1164loPI   GL118285   3.517   7.059   6.408 -0.2778 -0.1990 -0.3955
 1164loPI   GL218286   3.200   6.988   6.521  0.1532  0.2395 -0.0459
 1164loPI   C1A18287   3.781   6.863   6.739  0.3777  0.1823  0.0570
 1164loPI   C2A18288   3.687   6.810   7.212  0.0093  0.0537 -0.1354
 1164loPI   C3A18289   3.746   6.814   7.613 -0.1813 -0.1292  0.1543
 1164loPI   C4A18290   3.737   6.833   8.106 -0.4105 -0.0047 -0.0734
 1164loPI   C5A18291   3.616   6.932   8.468  0.1371 -0.2636 -0.0207
 1164loPI   C6A18292   3.609   6.936   8.883 -0.0410 -0.0342 -0.3753
 1164loPI   C1B18293   3.241   6.912   6.978  0.2255  0.2943  0.0439
 1164loPI   C2B18294   3.242   6.993   7.419 -0.2227 -0.1643 -0.2740
 1164loPI   C3B18295   3.280   7.023   7.817  0.1396 -0.1161 -0.0218
 1164loPI   C4B18296   3.197   6.945   8.232 -0.0425  0.0917  0.4914
 1165loPI    C118297   7.375  14.522   5.426  0.0101  0.1022  0.2356
 1165loPI    C218298   7.767  14.557   5.352 -0.0455 -0.0715 -0.1710
 1165loPI    C318299   7.520  14.863   5.277 -0.0057 -0.0029 -0.0262
 1165loPI   PO418300   7.330  14.390   5.663  0.3919 -0.1372 -0.2330
 1165loPI   GL118301   7.282  14.488   6.114  0.3755 -0.1458  0.2887
 1165loPI   GL218302   7.550  14.742   6.227  0.1831  0.0368 -0.2660
 1165loPI   C1A18303   7.282  14.308   6.536  0.1130  0.3149  0.1150
 1165loPI   C2A18304   7.246  14.270   6.950  0.1247  0.1124  0.1343
 1165loPI   C3A18305   7.325  14.284   7.404  0.2061 -0.0412 -0.0470
 1165loPI   C4A18306   7.291  14.381   7.852  0.0624  0.2779  0.3810
 1165loPI   C5A18307   7.190  14.367   8.338 -0.2858 -0.0573  0.2335
 1165loPI   C6A18308   6.765  14.535   8.468 -0.3037 -0.2794 -0.0703
 1165loPI   C1B18309   7.622  14.645   6.584 -0.1054 -0.1040  0.0901
 1165loPI   C2B18310   7.591  14.609   7.018 -0.0612 -0.1584 -0.1438
 1165loPI   C3B18311   7.636  14.693   7.387 -0.1917 -0.1093 -0.0153
 1165loPI   C4B18312   7.626  14.728   7.853 -0.2673  0.1561 -0.1580
 1166loPI    C118313   7.675   1.307   5.751 -0.2030  0.2577 -0.2153
 1166loPI    C218314   7.812   1.047   5.480 -0.2893  0.1247 -0.1331
 1166loPI    C318315   7.980   1.409   5.513 -0.0314  0.0053 -0.1086
 1166loPI   PO418316   7.643   1.263   5.942 -0.0893  0.0832  0.0910
 1166loPI   GL118317   7.780   1.453   6.308 -0.0828 -0.2295 -0.0792
 1166loPI   GL218318   7.613   1.708   6.472  0.1997 -0.2465 -0.1391
 1166loPI   C1A18319   7.713   1.263   6.655 -0.2320  0.1230 -0.0448
 1166loPI   C2A18320   7.723   1.179   7.022  0.1203 -0.0368  0.0036
 1166loPI   C3A18321   7.704   1.272   7.481  0.1258 -0.1131  0.3503
 1166loPI   C4A18322   7.822   1.182   7.825 -0.0504  0.0200 -0.0301
 1166loPI   C5A18323   7.888   1.177   8.291  0.2419 -0.0593  0.2338
 1166loPI   C6A18324   7.840   1.115   8.770  0.2386 -0.2847  0.1099
 1166loPI   C1B18325   7.580   1.701   6.896 -0.0186 -0.2032 -0.0456
 1166loPI   C2B18326   7.515   1.763   7.308  0.0031  0.0742  0.2337
 1166loPI   C3B18327   7.618   1.711   7.699 -0.1046 -0.0116  0.1198
 1166loPI   C4B18328   7.646   1.681   8.131 -0.0919 -0.0573  0.0014
 1167loPI    C118329  13.454   2.111   5.579 -0.0599 -0.0571 -0.1094
 1167loPI    C218330  13.156   2.221   5.336 -0.0221 -0.1284 -0.1889
 1167loPI    C318331  13.532   2.213   5.200  0.0203 -0.0123 -0.0813
 1167loPI   PO418332  13.504   2.206   5.752  0.0116  0.0304  0.0971
 1167loPI   GL118333  13.625   2.210   6.140  0.0223 -0.1768  0.3244
 1167loPI   GL218334  13.868   2.479   6.225 -0.1936  0.2182 -0.1933
 1167loPI   C1A18335  13.533   2.097   6.568 -0.0728  0.0250  0.2952
 1167loPI   C2A18336  13.572   2.123   7.060  0.1219 -0.1073 -0.2273
 1167loPI   C3A18337  13.542   2.187   7.452 -0.1888 -0.0119 -0.2096
 1167loPI   C4A18338  13.602   2.113   7.853 -0.0395 -0.2573 -0.0431
 1167loPI   C5A18339  13.429   1.831   8.181 -0.2448  0.2162 -0.1292
 1167loPI   C6A18340  13.096   1.716   8.597 -0.0957 -0.1224 -0.2628
 1167loPI   C1B18341  13.899   2.482   6.679  0.1103 -0.1907 -0.2955
 1167loPI   C2B18342  13.850   2.520   7.033 -0.2053 -0.0436 -0.1156
 1167loPI   C3B18343  13.984   2.433   7.456  0.0944 -0.3046 -0.1276
 1167loPI   C4B18344  14.069   2.412   7.871  0.1911 -0.3038  0.0106
 1168loPI    C118345   7.637  12.636   5.846  0.0439 -0.1925 -0.0849
 1168loPI    C218346   7.944  12.741   6.081 -0.1159  0.0811  0.0060
 1168loPI    C318347   7.949  12.833   5.692  0.0224 -0.1249 -0.0426
 1168loPI   PO418348   7.589  12.398   5.961 -0.0261  0.0735  0.0656
 1168loPI   GL118349   7.480  12.297   6.464 -0.3052 -0.1421  0.0651
 1168loPI   GL218350   7.184  12.441   6.537  0.2245  0.0987  0.1084
 1168loPI   C1A18351   7.573  12.005   6.854  0.2519  0.1924 -0.1590
 1168loPI   C2A18352   7.436  12.007   7.245 -0.1177 -0.4475 -0.1488
 1168loPI   C3A18353   7.458  12.001   7.618  0.1504 -0.2257  0.2041
 1168loPI   C4A18354   7.507  11.957   8.069  0.3224 -0.0920  0.0176
 1168loPI   C5A18355   7.582  11.639   8.395 -0.0096  0.0278 -0.0747
 1168loPI   C6A18356   7.666  11.165   8.639  0.1963  0.1909  0.0829
 1168loPI   C1B18357   7.338  12.442   6.981  0.2675  0.1071 -0.0482
 1168loPI   C2B18358   7.334  12.503   7.429 -0.2894 -0.0414 -0.1746
 1168loPI   C3B18359   7.349  12.522   7.880  0.0827  0.0123  0.1392
 1168loPI   C4B18360   7.328  12.594   8.352 -0.1871  0.0873  0.0713
 1169loPI    C118361  10.447   0.905   5.522 -0.0314 -0.2282  0.0263
 1169loPI    C218362  10.803   0.850   5.348 -0.0216 -0.0355 -0.0169
 1169loPI    C318363  10.477   0.909   5.123  0.0240  0.4133  0.0263
 1169loPI   PO418364  10.552   1.076   5.783 -0.2229 -0.2581  0.0754
 1169loPI   GL118365  10.806   1.054   6.093 -0.4324  0.2737  0.0322
 1169loPI   GL218366  10.517   0.896   6.227  0.2326 -0.1107 -0.1043
 1169loPI   C1A18367  11.047   0.939   6.426  0.0194  0.0299 -0.0798
 1169loPI   C2A18368  11.193   0.921   6.803  0.0596 -0.0061  0.1143
 1169loPI   C3A18369  11.200   0.948   7.277  0.0845  0.1857  0.1326
 1169loPI   C4A18370  11.146   0.929   7.664 -0.1626  0.3112  0.1729
 1169loPI   C5A18371  11.282   0.960   8.099  0.0359  0.0765 -0.2346
 1169loPI   C6A18372  11.186   1.230   8.466 -0.2587  0.2277 -0.1961
 1169loPI   C1B18373  10.608   1.007   6.725 -0.1683  0.0022 -0.4210
 1169loPI   C2B18374  10.722   1.048   7.161  0.0506 -0.5107  0.0719
 1169loPI   C3B18375  10.685   1.115   7.638  0.0031  0.2500  0.0792
 1169loPI   C4B18376  10.795   1.066   8.076  0.1329  0.0163 -0.2308
 1170loPI    C118377   8.685   4.741   5.966  0.0289 -0.0340 -0.2236
 1170loPI    C218378   8.412   4.980   6.133 -0.2344 -0.4031 -0.1140
 1170loPI    C318379   8.352   4.834   5.766  0.0770 -0.0509 -0.3119
 1170loPI   PO418380   8.913   4.864   6.094  0.4026 -0.1887 -0.0733
 1170loPI   GL118381   8.927   5.076   6.401 -0.0378  0.4431  0.0352
 1170loPI   GL218382   9.347   5.005   6.457 -0.0700  0.0070  0.1563
 1170loPI   C1A18383   8.921   5.122   6.797 -0.0413 -0.0526 -0.0503
 1170loPI   C2A18384   8.927   5.076   7.184  0.0562  0.0445 -0.0407
 1170loPI   C3A18385   8.910   5.112   7.682 -0.2383  0.0610 -0.1305
 1170loPI   C4A18386   9.043   5.119   8.169  0.2511  0.0679 -0.0639
 1170loPI   C5A18387   9.096   5.140   8.602  0.0747 -0.0575  0.1564
 1170loPI   C6A18388   8.823   5.057   8.873  0.2362  0.1894  0.0765
 1170loPI   C1B18389   9.411   4.926   6.922  0.0322  0.0158 -0.1200
 1170loPI   C2B18390   9.389   4.913   7.364  0.1299  0.2674  0.2208
 1170loPI   C3B18391   9.449   4.946   7.836 -0.1643  0.1307  0.1450
 1170loPI   C4B18392   9.635   4.885   8.341 -0.0436 -0.1246 -0.1428
 1171loPI    C118393  10.370  10.795   5.603 -0.1150 -0.1625 -0.1230
 1171loPI    C218394  10.527  10.485   5.404 -0.0243 -0.2534  0.0872
 1171loPI    C318395  10.130  10.519   5.440 -0.0333 -0.3687  0.0996
 1171loPI   PO418396  10.557  10.753   5.802  0.1250 -0.0937 -0.2117
 1171loPI   GL118397  10.439  10.785   6.253  0.0658  0.4097 -0.0240
 1171loPI   GL218398  10.402  11.167   6.428 -0.1387 -0.1481  0.1535
 1171loPI   C1A18399  10.563  10.703   6.710 -0.2108 -0.2932 -0.0343
 1171loPI   C2A18400  10.535  10.658   7.106 -0.2734 -0.0984 -0.2239
 1171loPI   C3A18401  10.488  10.763   7.561  0.0166 -0.2097 -0.0154
 1171loPI   C4A18402  10.532  10.765   8.018 -0.0013  0.0089 -0.0442
 1171loPI   C5A18403  10.521  10.874   8.456  0.1131 -0.1264 -0.0941
 1171loPI   C6A18404  10.550  10.686   8.814 -0.1190  0.1808  0.3750
 1171loPI   C1B18405  10.463  11.214   6.798  0.2515 -0.0158 -0.2494
 1171loPI   C2B18406  10.447  11.193   7.269  0.3465 -0.0832  0.0887
 1171loPI   C3B18407  10.458  11.275   7.627 -0.1771 -0.1552  0.1953
 1171loPI   C4B18408  10.463  11.282   8.129 -0.2551 -0.1133  0.1813
 1172loPI    C118409  12.444  13.976   5.851  0.0119 -0.0547 -0.1078
 1172loPI    C218410  12.252  13.958   5.501  0.0110  0.3009 -0.1301
 1172loPI    C318411  12.651  13.968   5.509  0.0312 -0.2267 -0.0929
 1172loPI   PO418412  12.314  14.095   5.968  0.0256 -0.0701 -0.0216
 1172loPI   GL118413  12.438  14.252   6.343 -0.0537  0.1060  0.1743
 1172loPI   GL218414  12.247  14.411   6.545 -0.1780 -0.4475 -0.1791
 1172loPI   C1A18415  12.709  14.167   6.625 -0.0007 -0.2628  0.0654
 1172loPI   C2A18416  12.897  14.307   6.968 -0.1393 -0.1273  0.3008
 1172loPI   C3A18417  12.862  14.257   7.392  0.1628  0.1639  0.2552
 1172loPI   C4A18418  12.923  14.326   7.828  0.1472 -0.6119  0.1747
 1172loPI   C5A18419  13.052  14.385   8.258  0.0509  0.3889 -0.1783
 1172loPI   C6A18420  12.994  14.320   8.657 -0.0994 -0.2475  0.1195
 1172loPI   C1B18421  12.398  14.410   6.993 -0.0875 -0.1001 -0.2897
 1172loPI   C2B18422  12.421  14.437   7.544 -0.1015  0.2321 -0.0486
 1172loPI   C3B18423  12.399  14.387   7.999 -0.0479 -0.0034 -0.2878
 1172loPI   C4B18424  12.545  14.516   8.376  0.1460  0.1346 -0.0087
 1173loPI    C118425   0.288  12.070   5.625  0.2956 -0.0031  0.0103
 1173loPI    C218426   0.665  12.144   5.515  0.2767 -0.0905 -0.1154
 1173loPI    C318427   0.371  12.164   5.245  0.2000 -0.0889 -0.0322
 1173loPI   PO418428   0.167  12.197   5.808 -0.2215 -0.0007  0.1161
 1173loPI   GL118429   0.279  12.464   6.121 -0.3178  0.3135 -0.1715
 1173loPI   GL218430   0.001  12.574   6.106 -0.1378 -0.2096  0.1653
 1173loPI   C1A18431   0.492  12.568   6.466 -0.0269  0.2828 -0.1985
 1173loPI   C2A18432   0.499  12.541   6.877  0.3231  0.1021  0.2902
 1173loPI   C3A18433   0.533  12.505   7.345 -0.0344  0.1672  0.3435
 1173loPI   C4A18434   0.541  12.486   7.792 -0.3123 -0.2256  0.0902
 1173loPI   C5A18435   0.342  12.415   8.203 -0.0526 -0.0426 -0.0225
 1173loPI   C6A18436   0.388  12.542   8.607 -0.1377 -0.2230 -0.1978
 1173loPI   C1B18437  -0.099  12.678   6.562 -0.3035  0.0605  0.4053
 1173loPI   C2B18438   0.025  12.656   6.933 -0.0784 -0.3348  0.2270
 1173loPI   C3B18439   0.033  12.662   7.351  0.1697  0.2465  0.1200
 1173loPI   C4B18440   0.049  12.608   7.801  0.2369 -0.0894 -0.2080
 1174loPI    C118441  15.679   2.202   5.786  0.1275 -0.0851  0.0399
 1174loPI    C218442  15.661   1.945   5.480 -0.0023  0.0024 -0.0265
 1174loPI    C318443  15.772   2.324   5.417 -0.4000  0.1226 -0.0325
 1174loPI   PO418444  15.870   2.015   5.996 -0.1178  0.1137  0.1721
 1174loPI   GL118445  15.871   1.971   6.409  0.0267  0.1775  0.0647
 1174loPI   GL218446  16.084   1.738   6.416 -0.0728 -0.0838  0.0107
 1174loPI   C1A18447  15.972   1.929   6.867 -0.2083 -0.0060 -0.1645
 1174loPI   C2A18448  16.085   1.929   7.335 -0.0473 -0.0889  0.0368
 1174loPI   C3A18449  16.110   1.987   7.811  0.1468 -0.3426  0.1383
 1174loPI   C4A18450  16.085   1.960   8.204 -0.2149 -0.1517 -0.0061
 1174loPI   C5A18451  16.000   2.174   8.541 -0.0357 -0.1535  0.3241
 1174loPI   C6A18452  15.627   2.374   8.439 -0.1530  0.1377  0.0495
 1174loPI   C1B18453  16.177   1.471   6.678  0.0518  0.2798  0.2550
 1174loPI   C2B18454  16.232   1.465   7.104 -0.1423  0.0080 -0.1137
 1174loPI   C3B18455  16.270   1.463   7.459 -0.1177  0.0312  0.2041
 1174loPI   C4B18456  16.273   1.387   7.878  0.1201 -0.0940  0.1041
 1175loPI    C118457  10.174   0.492   5.327  0.0763 -0.0083  0.2727
 1175loPI    C218458   9.936   0.812   5.355  0.0932  0.0002  0.3226
 1175loPI    C318459   9.791   0.466   5.216  0.1032  0.0595  0.1624
 1175loPI   PO418460  10.296   0.438   5.654 -0.0945 -0.2631  0.0479
 1175loPI   GL118461  10.243   0.456   6.192  0.2526  0.1519  0.0802
 1175loPI   GL218462   9.949   0.549   6.252 -0.0052  0.0924 -0.0983
 1175loPI   C1A18463  10.402   0.569   6.560  0.3141 -0.0390  0.2332
 1175loPI   C2A18464  10.377   0.665   6.976 -0.1304 -0.0031 -0.1365
 1175loPI   C3A18465  10.373   0.591   7.364 -0.1671  0.1069  0.0288
 1175loPI   C4A18466  10.358   0.654   7.818  0.1640 -0.0226  0.0375
 1175loPI   C5A18467  10.409   0.735   8.159  0.0060 -0.0259 -0.0506
 1175loPI   C6A18468  10.323   0.552   8.494 -0.1062 -0.3329 -0.0895
 1175loPI   C1B18469   9.922   0.745   6.654 -0.1380  0.0351  0.0611
 1175loPI   C2B18470   9.872   0.704   7.170 -0.0859  0.0136  0.2772
 1175loPI   C3B18471   9.902   0.685   7.608 -0.1519 -0.0142  0.0849
 1175loPI   C4B18472   9.859   0.788   8.009  0.0596 -0.0161 -0.0139
 1176loPI    C118473   4.991   9.885   5.956 -0.2974  0.0541 -0.0619
 1176loPI    C218474   5.199  10.155   5.747 -0.1521 -0.0233 -0.0189
 1176loPI    C318475   5.249   9.765   5.675 -0.2983 -0.0419 -0.0222
 1176loPI   PO418476   5.023   9.887   6.210 -0.2893  0.1842 -0.0456
 1176loPI   GL118477   4.824   9.987   6.568  0.2710  0.0041 -0.1435
 1176loPI   GL218478   4.696  10.315   6.573 -0.3041  0.2239 -0.2160
 1176loPI   C1A18479   4.861   9.824   7.015  0.0334  0.3420 -0.0177
 1176loPI   C2A18480   4.907   9.821   7.492  0.1581  0.0748 -0.0481
 1176loPI   C3A18481   4.955   9.820   7.933  0.1424  0.1039 -0.0328
 1176loPI   C4A18482   4.894   9.790   8.430 -0.0691 -0.0831  0.0446
 1176loPI   C5A18483   4.778   9.707   8.842 -0.0673  0.3152  0.0644
 1176loPI   C6A18484   4.757   9.606   9.286 -0.3198  0.2876 -0.2341
 1176loPI   C1B18485   4.719  10.344   6.965 -0.1495 -0.3080 -0.0557
 1176loPI   C2B18486   4.842  10.305   7.379  0.0501 -0.0181 -0.1375
 1176loPI   C3B18487   4.784  10.372   7.827 -0.1883  0.1867  0.0499
 1176loPI   C4B18488   4.830  10.329   8.274 -0.0613 -0.1686  0.2722
 1177loPI    C118489  10.049   9.765   5.538  0.2522 -0.0838  0.0315
 1177loPI    C218490  10.369  10.004   5.518  0.3426 -0.2111 -0.0620
 1177loPI    C318491  10.117   9.982   5.209  0.1790 -0.0239  0.0556
 1177loPI   PO418492  10.043   9.763   5.819  0.2370  0.0848 -0.2503
 1177loPI   GL118493  10.080   9.547   6.208  0.0121  0.2490  0.2151
 1177loPI   GL218494  10.056   9.261   6.266 -0.3651  0.1095  0.0252
 1177loPI   C1A18495  10.381   9.746   6.540  0.0563  0.1726 -0.2578
 1177loPI   C2A18496  10.423   9.756   6.977  0.1368 -0.0499 -0.0924
 1177loPI   C3A18497  10.346   9.760   7.472  0.2742  0.2486 -0.4110
 1177loPI   C4A18498  10.391   9.859   7.896  0.0035  0.0586 -0.2018
 1177loPI   C5A18499  10.265   9.924   8.294 -0.5723 -0.0485 -0.1199
 1177loPI   C6A18500  10.552   9.621   8.625  0.2669  0.0468 -0.2241
 1177loPI   C1B18501   9.960   9.284   6.700  0.1449  0.2155 -0.1454
 1177loPI   C2B18502  10.027   9.479   7.121  0.0893  0.2955 -0.2993
 1177loPI   C3B18503   9.926   9.392   7.531 -0.3405 -0.0207 -0.1171
 1177loPI   C4B18504  10.083   9.454   7.950 -0.2414  0.1318 -0.3535
 1178loPI    C118505  15.381   4.427   5.748 -0.1306 -0.2284  0.0528
 1178loPI    C218506  15.710   4.541   5.552 -0.0778  0.0257  0.2828
 1178loPI    C318507  15.516   4.210   5.441  0.2117 -0.0858  0.0976
 1178loPI   PO418508  15.435   4.488   6.006 -0.0022 -0.1303 -0.2527
 1178loPI   GL118509  15.673   4.398   6.316 -0.1968 -0.0835  0.0712
 1178loPI   GL218510  15.930   4.613   6.488  0.0281 -0.0629 -0.2879
 1178loPI   C1A18511  15.668   4.284   6.778  0.0302 -0.2145  0.2772
 1178loPI   C2A18512  15.724   4.283   7.224 -0.1603  0.2202 -0.0671
 1178loPI   C3A18513  15.800   4.290   7.662 -0.1615  0.0384  0.0271
 1178loPI   C4A18514  15.795   4.390   8.078  0.1354 -0.0290 -0.1156
 1178loPI   C5A18515  15.979   4.312   8.494  0.0642 -0.0281  0.0525
 1178loPI   C6A18516  16.405   4.145   8.514 -0.1146  0.0978 -0.3244
 1178loPI   C1B18517  16.042   4.652   6.995  0.0835 -0.2614 -0.1826
 1178loPI   C2B18518  16.116   4.648   7.408  0.0732  0.0837  0.2916
 1178loPI   C3B18519  16.089   4.707   7.930 -0.2030  0.1844  0.0499
 1178loPI   C4B18520  16.259   4.700   8.309 -0.0707 -0.0149  0.1808
 1179loPI    C118521   0.548  13.954   5.255  0.0923  0.1498 -0.2050
 1179loPI    C218522   0.512  13.633   5.019  0.0806  0.1896 -0.2576
 1179loPI    C318523   0.214  13.899   5.041  0.0310  0.1223 -0.1027
 1179loPI   PO418524   0.665  13.842   5.491 -0.2582 -0.0316 -0.4275
 1179loPI   GL118525   0.592  13.791   5.945  0.2466 -0.1777  0.2256
 1179loPI   GL218526   0.450  13.498   6.123  0.1206 -0.1962 -0.3647
 1179loPI   C1A18527   0.749  13.813   6.366  0.0579 -0.0453  0.0504
 1179loPI   C2A18528   0.701  13.869   6.798  0.1506  0.0024  0.0511
 1179loPI   C3A18529   0.678  13.904   7.187 -0.1159  0.1124 -0.2568
 1179loPI   C4A18530   0.667  13.813   7.495 -0.0123 -0.2369 -0.0194
 1179loPI   C5A18531   0.703  13.931   7.904 -0.2508  0.2897 -0.0774
 1179loPI   C6A18532   0.559  13.884   8.293 -0.3349 -0.0575 -0.0470
 1179loPI   C1B18533   0.307  13.551   6.568  0.0208 -0.0138  0.0115
 1179loPI   C2B18534   0.346  13.546   6.995  0.1635 -0.1848 -0.2236
 1179loPI   C3B18535   0.294  13.477   7.397 -0.2607  0.3985 -0.1167
 1179loPI   C4B18536   0.312  13.533   7.852 -0.0045  0.1395 -0.2253
 1180loPI    C118537  11.253   7.317   5.843 -0.2460  0.1189  0.0455
 1180loPI    C218538  11.579   7.258   5.618 -0.2800  0.0580  0.0118
 1180loPI    C318539  11.341   7.572   5.548 -0.1341  0.2017  0.1494
 1180loPI   PO418540  11.322   7.274   6.085  0.0180 -0.0381  0.1983
 1180loPI   GL118541  11.456   7.512   6.402 -0.1320  0.0612 -0.1853
 1180loPI   GL218542  11.331   7.734   6.585  0.0413  0.2509 -0.0133
 1180loPI   C1A18543  11.159   7.326   6.766  0.1198 -0.3694 -0.0411
 1180loPI   C2A18544  11.077   7.184   7.156  0.0698 -0.0439  0.0177
 1180loPI   C3A18545  11.006   7.306   7.551  0.0647  0.0296 -0.1692
 1180loPI   C4A18546  11.051   7.453   8.023 -0.0623 -0.0639  0.2880
 1180loPI   C5A18547  11.123   7.508   8.443 -0.2471  0.0300 -0.1359
 1180loPI   C6A18548  11.041   7.561   8.903 -0.0963  0.0101  0.1355
 1180loPI   C1B18549  11.503   7.568   7.005  0.1580 -0.0506 -0.0626
 1180loPI   C2B18550  11.518   7.592   7.467  0.1123  0.1427 -0.1506
 1180loPI   C3B18551  11.435   7.742   7.805 -0.0050  0.2571  0.2299
 1180loPI   C4B18552  11.396   7.855   8.196 -0.0170  0.1084 -0.0895
 1181loPI    C118553   1.353  16.647   5.588  0.0302  0.1264  0.0729
 1181loPI    C218554   1.439  16.969   5.366  0.2027  0.0674  0.0528
 1181loPI    C318555   1.252  16.656   5.201  0.0122  0.1659  0.0783
 1181loPI   PO418556   1.598  16.647   5.733  0.2438 -0.0984  0.1023
 1181loPI   GL118557   1.564  16.378   5.970 -0.3446  0.0554 -0.0566
 1181loPI   GL218558   1.278  16.553   6.117 -0.0347 -0.3239  0.0054
 1181loPI   C1A18559   1.522  16.199   6.356 -0.3139  0.0633  0.2901
 1181loPI   C2A18560   1.440  16.012   6.715  0.2069 -0.0553 -0.0776
 1181loPI   C3A18561   1.501  16.020   7.170  0.0652  0.2037  0.0582
 1181loPI   C4A18562   1.585  16.011   7.570  0.5171  0.0384  0.1144
 1181loPI   C5A18563   1.551  15.918   7.988 -0.0298  0.0855  0.2002
 1181loPI   C6A18564   1.639  15.948   8.414 -0.4174  0.0176  0.0228
 1181loPI   C1B18565   1.327  16.606   6.598 -0.3022  0.0030 -0.2129
 1181loPI   C2B18566   1.378  16.462   6.943  0.0429  0.1339  0.1722
 1181loPI   C3B18567   1.395  16.589   7.433  0.0773 -0.2198 -0.0364
 1181loPI   C4B18568   1.366  16.513   7.898 -0.1386 -0.3981  0.0164
 1182loPI    C118569  10.657   2.978   5.490  0.1863 -0.0059  0.0777
 1182loPI    C218570  10.635   3.323   5.289  0.1069 -0.0249  0.0537
 1182loPI    C318571  10.911   3.051   5.190  0.0513 -0.0452 -0.0475
 1182loPI   PO418572  10.697   2.985   5.836  0.0562  0.4107  0.1112
 1182loPI   GL118573  10.610   2.927   6.286 -0.2087 -0.1047  0.0727
 1182loPI   GL218574  10.394   2.803   6.356  0.0812 -0.2162  0.0005
 1182loPI   C1A18575  10.859   3.104   6.602  0.2308  0.1501  0.1769
 1182loPI   C2A18576  10.947   3.138   6.963 -0.0762 -0.0699  0.2326
 1182loPI   C3A18577  10.956   3.265   7.343  0.0402  0.0592 -0.0857
 1182loPI   C4A18578  10.829   3.334   7.790 -0.4558  0.0217 -0.1770
 1182loPI   C5A18579  10.928   3.363   8.205  0.1347  0.2774 -0.1942
 1182loPI   C6A18580  10.742   3.497   8.614 -0.1749  0.1478  0.2344
 1182loPI   C1B18581  10.578   2.774   6.884 -0.4009  0.3268  0.2158
 1182loPI   C2B18582  10.654   2.864   7.421 -0.0997  0.1187  0.1456
 1182loPI   C3B18583  10.524   2.961   7.715  0.0572 -0.0145  0.1754
 1182loPI   C4B18584  10.574   2.963   8.116 -0.1307 -0.2606 -0.1033
 1183loPI    C118585   7.493   9.708   5.907  0.1831  0.1997 -0.1398
 1183loPI    C218586   7.439   9.401   5.657 -0.0380  0.0250  0.1168
 1183loPI    C318587   7.459   9.774   5.514  0.2052 -0.1029 -0.1949
 1183loPI   PO418588   7.479   9.617   6.178 -0.1534  0.0953 -0.2736
 1183loPI   GL118589   7.149   9.420   6.420 -0.1199 -0.2768  0.1438
 1183loPI   GL218590   7.159   9.045   6.388  0.1624  0.3291 -0.1324
 1183loPI   C1A18591   7.157   9.626   6.810  0.0684  0.0935  0.3521
 1183loPI   C2A18592   7.217   9.644   7.257 -0.1372  0.2054 -0.0269
 1183loPI   C3A18593   7.110   9.681   7.701 -0.2923  0.1368  0.0390
 1183loPI   C4A18594   7.183   9.682   8.099  0.1975  0.0136 -0.2369
 1183loPI   C5A18595   7.134   9.770   8.541  0.1207  0.3276  0.0662
 1183loPI   C6A18596   7.042   9.656   8.951  0.2250 -0.2123  0.1632
 1183loPI   C1B18597   7.229   9.131   6.823 -0.1103 -0.2328  0.0125
 1183loPI   C2B18598   7.386   9.166   7.213 -0.2848 -0.1176  0.1312
 1183loPI   C3B18599   7.371   9.289   7.595  0.0730  0.2397 -0.2130
 1183loPI   C4B18600   7.266   9.177   7.960  0.0742  0.1964  0.1965
 1184loPI    C118601  16.792  13.269   5.146  0.0129  0.0303  0.0765
 1184loPI    C218602  16.428  13.378   5.021  0.0272 -0.0724 -0.0576
 1184loPI    C318603  16.601  13.051   4.870 -0.0020 -0.2652  0.3154
 1184loPI   PO418604  16.745  13.384   5.464  0.0870 -0.3553 -0.0115
 1184loPI   GL118605  16.810  13.214   5.899  0.1980  0.2701 -0.0114
 1184loPI   GL218606  16.631  12.993   6.041 -0.1172  0.0296 -0.0128
 1184loPI   C1A18607  16.914  13.424   6.310 -0.1767  0.2899  0.2050
 1184loPI   C2A18608  16.924  13.397   6.775 -0.0538  0.2049 -0.3727
 1184loPI   C3A18609  16.893  13.302   7.186 -0.0569 -0.0586 -0.0447
 1184loPI   C4A18610  16.988  13.321   7.665  0.0563  0.1852  0.3044
 1184loPI   C5A18611  16.912  13.223   8.101  0.1976 -0.2592 -0.1652
 1184loPI   C6A18612  16.704  13.250   8.534  0.1994 -0.1261  0.1097
 1184loPI   C1B18613  16.473  12.926   6.445 -0.0174  0.2216 -0.0933
 1184loPI   C2B18614  16.574  12.896   6.916  0.1493 -0.1555  0.4294
 1184loPI   C3B18615  16.521  12.935   7.309  0.0850  0.4019  0.3468
 1184loPI   C4B18616  16.457  12.929   7.760 -0.3743 -0.1630  0.0112
 1185loPI    C118617   6.489  11.291   5.923 -0.1421  0.0096 -0.0015
 1185loPI    C218618   6.378  10.959   5.730 -0.0679 -0.0359  0.0332
 1185loPI    C318619   6.687  11.175   5.595 -0.0676 -0.0230  0.0547
 1185loPI   PO418620   6.434  11.226   6.195  0.0885 -0.0954  0.1856
 1185loPI   GL118621   6.281  11.268   6.581  0.1227  0.1176 -0.2230
 1185loPI   GL218622   6.005  11.392   6.490 -0.1427  0.1541 -0.1398
 1185loPI   C1A18623   6.254  11.285   6.973  0.0779  0.0124 -0.4260
 1185loPI   C2A18624   6.257  11.336   7.451  0.1941  0.0449 -0.2083
 1185loPI   C3A18625   6.322  11.379   7.930 -0.0923  0.1628 -0.0033
 1185loPI   C4A18626   6.337  11.321   8.314  0.1712 -0.0753 -0.0189
 1185loPI   C5A18627   6.001  11.267   8.586  0.0342  0.0813 -0.2368
 1185loPI   C6A18628   5.616  11.188   8.826 -0.0181  0.2833 -0.1668
 1185loPI   C1B18629   5.843  11.489   6.840 -0.5897 -0.0839 -0.0542
 1185loPI   C2B18630   5.815  11.541   7.320 -0.1035 -0.1141 -0.2068
 1185loPI   C3B18631   5.856  11.568   7.725  0.2116  0.1819  0.0951
 1185loPI   C4B18632   5.825  11.457   8.154 -0.2632 -0.2877  0.1188
 1186loPI    C118633   0.112  12.946   5.610 -0.1115  0.0780  0.0542
 1186loPI    C218634   0.342  12.620   5.575  0.1176  0.2619 -0.2018
 1186loPI    C318635  -0.041  12.609   5.458  0.0408  0.0049  0.0609
 1186loPI   PO418636   0.015  13.030   5.857  0.2347 -0.1799  0.2256
 1186loPI   GL118637   0.003  13.300   6.100  0.2447 -0.0372 -0.0969
 1186loPI   GL218638  -0.052  13.578   6.184 -0.1212  0.1308 -0.3801
 1186loPI   C1A18639  -0.120  13.190   6.574  0.1290 -0.1495  0.1661
 1186loPI   C2A18640  -0.076  13.145   6.980  0.2525 -0.0493 -0.1204
 1186loPI   C3A18641  -0.137  13.223   7.389 -0.1094  0.2060 -0.0583
 1186loPI   C4A18642  -0.088  13.141   7.870  0.3667 -0.1318 -0.1147
 1186loPI   C5A18643  -0.140  12.903   8.204 -0.1278  0.0573 -0.1658
 1186loPI   C6A18644  -0.471  12.830   8.464 -0.1535 -0.0508  0.1238
 1186loPI   C1B18645  -0.155  13.730   6.619 -0.0736  0.0333  0.2679
 1186loPI   C2B18646  -0.124  13.637   7.068 -0.0800  0.1856  0.0949
 1186loPI   C3B18647  -0.167  13.722   7.531 -0.3151  0.2370  0.1652
 1186loPI   C4B18648  -0.202  13.602   7.968  0.2087 -0.0423  0.1748
 1187loPI    C118649  13.560  10.091   5.809 -0.0134 -0.0431  0.0380
 1187loPI    C218650  13.405   9.763   5.978  0.0033 -0.0493  0.0412
 1187loPI    C318651  13.400   9.805   5.580 -0.0079 -0.0489  0.0414
 1187loPI   PO418652  13.577  10.235   6.017  0.1615 -0.0564 -0.1596
 1187loPI   GL118653  13.462  10.407   6.397  0.1358  0.2764  0.0764
 1187loPI   GL218654  13.179  10.584   6.482  0.1451 -0.2656 -0.0977
 1187loPI   C1A18655  13.537  10.419   6.770 -0.3466 -0.2478 -0.1115
 1187loPI   C2A18656  13.483  10.383   7.168 -0.2846  0.2858 -0.0175
 1187loPI   C3A18657  13.386  10.499   7.582  0.1651  0.2541 -0.1974
 1187loPI   C4A18658  13.374  10.480   7.997  0.0698  0.3986  0.2248
 1187loPI   C5A18659  13.368  10.411   8.460 -0.2619 -0.1332 -0.1490
 1187loPI   C6A18660  13.278  10.188   8.793  0.0764 -0.0213  0.3187
 1187loPI   C1B18661  13.072  10.581   6.859 -0.2386 -0.0464  0.1074
 1187loPI   C2B18662  12.957  10.582   7.258 -0.0717 -0.0932 -0.0997
 1187loPI   C3B18663  12.885  10.661   7.747  0.3000 -0.0138  0.0598
 1187loPI   C4B18664  12.887  10.684   8.190 -0.0529  0.0924 -0.0685
 1188loPI    C118665  11.130  12.384   5.770 -0.1022 -0.0697 -0.0627
 1188loPI    C218666  11.453  12.602   5.681 -0.0072 -0.1699  0.0332
 1188loPI    C318667  11.198  12.494   5.392 -0.0222  0.0150 -0.0239
 1188loPI   PO418668  11.177  12.145   5.890 -0.0700 -0.0384 -0.0619
 1188loPI   GL118669  10.851  12.061   6.258  0.0342 -0.2217 -0.0659
 1188loPI   GL218670  11.121  11.899   6.299  0.1869  0.0760 -0.2111
 1188loPI   C1A18671  10.672  11.931   6.613  0.1783  0.0597  0.0463
 1188loPI   C2A18672  10.686  12.012   6.997 -0.0654 -0.1308 -0.1478
 1188loPI   C3A18673  10.699  12.122   7.402  0.0987  0.0830  0.0783
 1188loPI   C4A18674  10.734  12.102   7.870  0.0302  0.5273 -0.2005
 1188loPI   C5A18675  10.559  12.224   8.285 -0.0506  0.0906  0.0299
 1188loPI   C6A18676  10.392  12.183   8.644  0.2164  0.0042 -0.0129
 1188loPI   C1B18677  11.143  11.914   6.744 -0.0420 -0.1371 -0.3155
 1188loPI   C2B18678  11.147  11.883   7.190  0.2446 -0.0852 -0.2345
 1188loPI   C3B18679  11.203  11.937   7.545 -0.2260 -0.1522  0.1279
 1188loPI   C4B18680  11.227  12.013   7.953  0.0660 -0.1944 -0.0571
 1189loPI    C118681   9.841  12.423   5.701 -0.0444  0.0814 -0.0502
 1189loPI    C218682  10.207  12.387   5.544  0.0096 -0.0964  0.1136
 1189loPI    C318683   9.897  12.200   5.374  0.0620 -0.2596  0.1954
 1189loPI   PO418684   9.810  12.445   5.882 -0.0054  0.0216  0.0819
 1189loPI   GL118685   9.568  12.223   6.120 -0.3018  0.0350 -0.0565
 1189loPI   GL218686   9.608  11.824   6.117  0.4124 -0.1126  0.0093
 1189loPI   C1A18687   9.700  12.304   6.563 -0.2071 -0.0458  0.0975
 1189loPI   C2A18688   9.729  12.257   6.918  0.0273 -0.3108  0.1049
 1189loPI   C3A18689   9.708  12.254   7.345  0.3515  0.1600  0.2193
 1189loPI   C4A18690   9.659  12.259   7.777  0.1526 -0.3940 -0.1120
 1189loPI   C5A18691   9.587  12.118   8.165 -0.0080  0.0037 -0.0506
 1189loPI   C6A18692   9.288  11.869   8.468 -0.0036 -0.3193  0.2635
 1189loPI   C1B18693   9.797  11.815   6.444 -0.1293 -0.1036  0.0308
 1189loPI   C2B18694   9.897  11.780   6.852 -0.2384  0.2030 -0.0529
 1189loPI   C3B18695   9.859  11.737   7.243  0.3168  0.0305  0.2437
 1189loPI   C4B18696   9.875  11.836   7.672  0.0802  0.2156 -0.0300
 1190loPI    C118697   2.759   5.076   5.664  0.1851 -0.1206  0.1135
 1190loPI    C218698   2.652   4.715   5.530 -0.0020 -0.0228 -0.0055
 1190loPI    C318699   2.850   4.966   5.290 -0.0343  0.0228  0.0153
 1190loPI   PO418700   2.781   5.009   5.925 -0.0384  0.3704 -0.0458
 1190loPI   GL118701   2.831   4.908   6.361  0.0969  0.0025 -0.0647
 1190loPI   GL218702   3.056   4.714   6.503  0.2235  0.1822 -0.0463
 1190loPI   C1A18703   2.854   5.247   6.665  0.1770 -0.1535  0.0402
 1190loPI   C2A18704   2.758   5.236   7.100 -0.1067 -0.0938  0.0457
 1190loPI   C3A18705   2.765   5.241   7.561  0.3182 -0.0412  0.1583
 1190loPI   C4A18706   2.699   5.175   7.906  0.4753 -0.2484 -0.0011
 1190loPI   C5A18707   2.798   5.335   8.242  0.0058 -0.2837 -0.1412
 1190loPI   C6A18708   3.109   5.270   8.603  0.0675 -0.0737 -0.3344
 1190loPI   C1B18709   2.917   4.761   6.934  0.0653 -0.1620 -0.2174
 1190loPI   C2B18710   2.890   4.729   7.403  0.0008  0.5273 -0.1749
 1190loPI   C3B18711   2.858   4.681   7.823  0.1815 -0.1011 -0.0919
 1190loPI   C4B18712   2.890   4.567   8.305 -0.3577  0.0768  0.0318
 1191loPI    C118713  16.085   8.525   5.747  0.0407  0.0170  0.0246
 1191loPI    C218714  15.747   8.475   5.539 -0.0132  0.1531  0.0786
 1191loPI    C318715  15.989   8.783   5.456 -0.0330  0.2057  0.2139
 1191loPI   PO418716  16.060   8.536   5.963  0.0912  0.2239  0.3334
 1191loPI   GL118717  15.967   8.218   6.307 -0.1604  0.1963  0.0343
 1191loPI   GL218718  16.110   8.031   6.516  0.0789 -0.2044  0.0297
 1191loPI   C1A18719  15.949   8.452   6.666 -0.0925 -0.0150  0.5954
 1191loPI   C2A18720  15.859   8.460   7.046  0.0094  0.0953 -0.2298
 1191loPI   C3A18721  15.718   8.476   7.467 -0.0118 -0.0936 -0.2274
 1191loPI   C4A18722  15.772   8.482   7.894  0.1672  0.0821  0.0973
 1191loPI   C5A18723  15.929   8.525   8.287 -0.5060  0.2502 -0.0388
 1191loPI   C6A18724  15.790   8.190   8.552 -0.1987 -0.1900 -0.1936
 1191loPI   C1B18725  16.086   8.012   6.956  0.5186 -0.5156 -0.0467
 1191loPI   C2B18726  16.056   7.964   7.362  0.1779  0.2565  0.0381
 1191loPI   C3B18727  15.919   8.006   7.692 -0.3476  0.0056 -0.0051
 1191loPI   C4B18728  15.971   7.984   8.070 -0.0120 -0.4210 -0.2041
 1192loPI    C118729   6.532  16.750   5.653 -0.0029 -0.1710 -0.1064
 1192loPI    C218730   6.541  16.692   5.257  0.0271  0.0098 -0.1331
 1192loPI    C318731   6.263  16.930   5.419 -0.0447 -0.1393 -0.0343
 1192loPI   PO418732   6.527  16.500   5.764  0.4789 -0.0880 -0.0190
 1192loPI   GL118733   6.416  16.381   6.229 -0.1517  0.0343  0.1571
 1192loPI   GL218734   6.744  16.394   6.297 -0.1472  0.1664 -0.3965
 1192loPI   C1A18735   6.246  16.399   6.643  0.0588 -0.0815 -0.0588
 1192loPI   C2A18736   6.197  16.343   7.028 -0.3125 -0.0365 -0.0199
 1192loPI   C3A18737   6.227  16.358   7.460  0.0346 -0.0862  0.1845
 1192loPI   C4A18738   6.149  16.370   7.897  0.0104  0.0619 -0.2229
 1192loPI   C5A18739   6.281  16.601   8.270  0.0927 -0.0846  0.0975
 1192loPI   C6A18740   6.417  16.887   8.678  0.0471 -0.1152 -0.1361
 1192loPI   C1B18741   6.739  16.314   6.686  0.2771  0.3220 -0.1810
 1192loPI   C2B18742   6.695  16.268   7.183  0.3276  0.0342  0.0505
 1192loPI   C3B18743   6.692  16.245   7.678  0.5077 -0.0313 -0.2582
 1192loPI   C4B18744   6.586  16.209   8.202  0.2143  0.0508 -0.1446
 1193loPI    C118745  15.082  15.877   5.506 -0.0203 -0.0669 -0.2332
 1193loPI    C218746  15.279  16.225   5.486  0.1265 -0.1498 -0.2502
 1193loPI    C318747  14.879  16.220   5.480  0.1185  0.0337 -0.0197
 1193loPI   PO418748  15.166  15.728   5.782 -0.2451  0.2849 -0.0554
 1193loPI   GL118749  14.972  15.430   6.096 -0.0386 -0.0662 -0.1046
 1193loPI   GL218750  14.976  15.704   6.211  0.2206  0.1355  0.4207
 1193loPI   C1A18751  15.014  15.151   6.416  0.2027 -0.0282  0.4069
 1193loPI   C2A18752  14.978  15.185   6.828 -0.1285 -0.1163 -0.0626
 1193loPI   C3A18753  14.963  15.124   7.185 -0.0206 -0.1567 -0.0908
 1193loPI   C4A18754  15.022  15.168   7.661 -0.0199  0.1953  0.1082
 1193loPI   C5A18755  14.923  15.142   8.137  0.2129  0.0234  0.2015
 1193loPI   C6A18756  14.983  14.984   8.573 -0.1906 -0.0138 -0.0239
 1193loPI   C1B18757  14.944  15.651   6.621 -0.3064  0.3132  0.0983
 1193loPI   C2B18758  14.935  15.740   6.985  0.2627 -0.1769 -0.2501
 1193loPI   C3B18759  14.809  15.611   7.415 -0.1743  0.0811  0.4932
 1193loPI   C4B18760  14.801  15.689   7.822  0.1566 -0.3050  0.0628
 1194loPI    C118761  13.099  17.095   5.610 -0.2973 -0.1366  0.1313
 1194loPI    C218762  13.269  16.738   5.548  0.2685  0.1812 -0.2262
 1194loPI    C318763  13.074  16.921   5.250 -0.0185  0.1763 -0.0446
 1194loPI   PO418764  13.138  17.131   5.868 -0.0047 -0.1043 -0.0541
 1194loPI   GL118765  12.948  17.155   6.280 -0.0319  0.2951 -0.2460
 1194loPI   GL218766  12.726  17.120   6.111  0.0304 -0.2895 -0.0003
 1194loPI   C1A18767  12.985  17.033   6.663  0.2220  0.0431  0.0444
 1194loPI   C2A18768  12.901  17.003   7.113 -0.1212 -0.0616 -0.0148
 1194loPI   C3A18769  13.021  17.007   7.449 -0.1216  0.0981  0.0474
 1194loPI   C4A18770  13.057  17.078   7.877 -0.0006 -0.1348 -0.2286
 1194loPI   C5A18771  13.061  17.150   8.201 -0.2325 -0.0162 -0.3377
 1194loPI   C6A18772  12.663  17.094   8.478  0.1321 -0.2427 -0.0968
 1194loPI   C1B18773  12.461  17.138   6.585  0.1271 -0.1827 -0.0065
 1194loPI   C2B18774  12.436  17.123   6.979  0.3131 -0.0292 -0.1140
 1194loPI   C3B18775  12.481  17.092   7.369  0.0789 -0.0572  0.0252
 1194loPI   C4B18776  12.587  17.200   7.747 -0.0130  0.1150  0.1475
 1195loPI    C118777  14.317   9.536   5.883  0.2008  0.1618 -0.0062
 1195loPI    C218778  14.280   9.644   5.500  0.0544  0.0651 -0.0203
 1195loPI    C318779  14.296   9.256   5.597  0.1692  0.0908  0.0649
 1195loPI   PO418780  14.343   9.758   6.004  0.3107  0.0907 -0.3045
 1195loPI   GL118781  14.307   9.787   6.378  0.0723  0.1120 -0.0740
 1195loPI   GL218782  14.620   9.750   6.415 -0.0179  0.2207 -0.0339
 1195loPI   C1A18783  14.140   9.803   6.750  0.1387 -0.0798  0.2608
 1195loPI   C2A18784  14.111   9.792   7.228 -0.0227  0.0407  0.2317
 1195loPI   C3A18785  14.018   9.813   7.656  0.1631 -0.0448 -0.0292
 1195loPI   C4A18786  13.979   9.850   8.210 -0.0902 -0.0580  0.1805
 1195loPI   C5A18787  13.853  10.181   8.538  0.1779  0.0651  0.2170
 1195loPI   C6A18788  13.922  10.003   8.844  0.2157 -0.2595  0.0912
 1195loPI   C1B18789  14.603   9.680   6.836  0.1758  0.4334 -0.0231
 1195loPI   C2B18790  14.628   9.757   7.303 -0.3268 -0.0489  0.2321
 1195loPI   C3B18791  14.558   9.752   7.751 -0.2096 -0.1340 -0.1220
 1195loPI   C4B18792  14.531   9.683   8.175 -0.0153  0.0120 -0.0509
 1196loPI    C118793   6.241  13.218   5.682  0.1844  0.0226  0.0059
 1196loPI    C218794   6.032  12.891   5.586  0.0880  0.1359 -0.1759
 1196loPI    C318795   6.194  13.116   5.298  0.2655  0.1768 -0.0457
 1196loPI   PO418796   6.412  13.190   5.866  0.0365  0.2006 -0.1335
 1196loPI   GL118797   6.518  13.151   6.320 -0.1729 -0.1469 -0.0547
 1196loPI   GL218798   6.182  13.151   6.486 -0.2265  0.0101  0.1175
 1196loPI   C1A18799   6.655  13.030   6.689 -0.2226  0.1154 -0.3253
 1196loPI   C2A18800   6.653  13.109   7.150 -0.0379 -0.3681 -0.0653
 1196loPI   C3A18801   6.704  13.113   7.689 -0.1341  0.1839  0.0876
 1196loPI   C4A18802   6.654  13.027   8.085  0.1504 -0.0271  0.0388
 1196loPI   C5A18803   6.875  13.041   8.524  0.2135  0.1315 -0.3184
 1196loPI   C6A18804   7.220  13.021   8.594  0.0479 -0.0093 -0.1996
 1196loPI   C1B18805   6.225  13.163   6.922  0.0277  0.0629  0.1626
 1196loPI   C2B18806   6.234  13.226   7.467  0.0894 -0.0334 -0.2180
 1196loPI   C3B18807   6.237  13.162   7.891  0.2172  0.0962 -0.1251
 1196loPI   C4B18808   6.131  13.194   8.314  0.0279 -0.0108  0.0528
 1197loPI    C118809   4.804  13.746   5.763 -0.2160  0.0060 -0.0499
 1197loPI    C218810   4.975  13.385   5.750 -0.0921  0.0639 -0.0421
 1197loPI    C318811   4.896  13.581   5.411 -0.2101  0.0064 -0.0484
 1197loPI   PO418812   4.782  13.692   6.101 -0.0051  0.1077 -0.0127
 1197loPI   GL118813   4.602  13.602   6.442  0.3931 -0.0990 -0.0908
 1197loPI   GL218814   4.308  13.863   6.441  0.0898  0.0832 -0.1277
 1197loPI   C1A18815   4.697  13.606   6.832  0.3602  0.2291 -0.1473
 1197loPI   C2A18816   4.749  13.626   7.247  0.1598 -0.1684 -0.0496
 1197loPI   C3A18817   4.764  13.576   7.712  0.0839 -0.1551 -0.2100
 1197loPI   C4A18818   4.750  13.670   8.187  0.3354  0.0181  0.0635
 1197loPI   C5A18819   5.121  13.739   8.475  0.1003  0.1031  0.0153
 1197loPI   C6A18820   5.397  13.436   8.814 -0.2428 -0.0677  0.0637
 1197loPI   C1B18821   4.178  13.729   6.835 -0.0661 -0.2727  0.0533
 1197loPI   C2B18822   4.200  13.648   7.321  0.1807 -0.0504  0.4313
 1197loPI   C3B18823   4.216  13.683   7.646  0.1946 -0.2679  0.1810
 1197loPI   C4B18824   4.266  13.742   8.096 -0.0987 -0.2046 -0.0764
 1198loPI    C118825   6.956   6.957   5.711  0.1198 -0.3699 -0.0323
 1198loPI    C218826   6.784   7.168   5.418 -0.1011 -0.1673  0.2373
 1198loPI    C318827   7.060   7.339   5.653  0.0150 -0.3039  0.2019
 1198loPI   PO418828   6.663   6.883   5.802 -0.2725 -0.0586  0.0167
 1198loPI   GL118829   6.671   6.900   6.225  0.1390 -0.2397  0.1067
 1198loPI   GL218830   6.429   7.124   6.437 -0.4162  0.0904  0.0925
 1198loPI   C1A18831   6.849   6.904   6.630 -0.0023 -0.0228 -0.1721
 1198loPI   C2A18832   6.924   6.940   7.028 -0.0410  0.0949  0.1515
 1198loPI   C3A18833   6.947   7.020   7.523  0.2777 -0.1494 -0.2584
 1198loPI   C4A18834   7.082   6.964   7.990 -0.0858  0.1064  0.3705
 1198loPI   C5A18835   7.078   6.993   8.516  0.1486  0.0942 -0.1627
 1198loPI   C6A18836   6.980   7.124   8.894 -0.0243 -0.0961 -0.2043
 1198loPI   C1B18837   6.442   7.058   6.933 -0.2021 -0.0728  0.0913
 1198loPI   C2B18838   6.418   7.091   7.447 -0.1392 -0.0849 -0.1132
 1198loPI   C3B18839   6.468   7.065   7.860  0.1626 -0.3014 -0.2108
 1198loPI   C4B18840   6.614   6.995   8.253 -0.0992 -0.1721 -0.3285
 1199loPI    C118841  11.312   0.264   5.781 -0.1643  0.0492  0.1637
 1199loPI    C218842  11.238   0.496   5.464 -0.2143  0.0041  0.1421
 1199loPI    C318843  11.413   0.140   5.414  0.4118  0.2841  0.2317
 1199loPI   PO418844  11.110   0.218   5.857  0.1665 -0.0691  0.0091
 1199loPI   GL118845  10.999   0.392   6.284 -0.1100 -0.1663 -0.1010
 1199loPI   GL218846  10.759   0.382   6.328 -0.2086  0.0529 -0.0362
 1199loPI   C1A18847  11.283   0.424   6.568 -0.0379 -0.3929 -0.2922
 1199loPI   C2A18848  11.295   0.460   6.965 -0.5529 -0.0553 -0.0797
 1199loPI   C3A18849  11.282   0.507   7.403  0.1468  0.0987 -0.2740
 1199loPI   C4A18850  11.427   0.432   7.868  0.1181  0.1536  0.0972
 1199loPI   C5A18851  11.250   0.537   8.346  0.2126 -0.3298  0.2559
 1199loPI   C6A18852  10.873   0.771   8.485 -0.0756  0.0341 -0.0478
 1199loPI   C1B18853  10.847   0.499   6.763  0.1027 -0.0666 -0.1361
 1199loPI   C2B18854  10.840   0.554   7.178 -0.2309 -0.0899 -0.1198
 1199loPI   C3B18855  10.831   0.540   7.665  0.0087 -0.0536 -0.0434
 1199loPI   C4B18856  10.865   0.497   8.053  0.2167  0.2290  0.0049
 1200loPI    C118857  10.682   9.179   5.537 -0.1005 -0.0695  0.1256
 1200loPI    C218858  10.684   9.572   5.462 -0.0444 -0.0838  0.0506
 1200loPI    C318859  10.419   9.335   5.278 -0.0255 -0.0929  0.0351
 1200loPI   PO418860  10.763   9.126   5.706 -0.1323 -0.0983  0.1544
 1200loPI   GL118861  10.840   9.214   6.106 -0.1099 -0.1355 -0.0106
 1200loPI   GL218862  10.590   9.398   6.262 -0.0728 -0.3548  0.1465
 1200loPI   C1A18863  10.945   9.178   6.582 -0.1588 -0.0843 -0.4806
 1200loPI   C2A18864  11.054   9.145   6.959 -0.2235 -0.0663 -0.0419
 1200loPI   C3A18865  10.978   9.139   7.398 -0.1715 -0.2396  0.0048
 1200loPI   C4A18866  10.997   9.233   7.851  0.1309 -0.0308  0.0056
 1200loPI   C5A18867  11.107   9.400   8.281  0.1003  0.0909 -0.2884
 1200loPI   C6A18868  11.264   9.737   8.442 -0.0975  0.0916 -0.1446
 1200loPI   C1B18869  10.469   9.303   6.737  0.0856 -0.0640  0.2161
 1200loPI   C2B18870  10.497   9.280   7.177 -0.2709 -0.2612  0.2038
 1200loPI   C3B18871  10.509   9.327   7.628 -0.1924 -0.3106 -0.0173
 1200loPI   C4B18872  10.527   9.416   8.113 -0.3495 -0.1477  0.1766
 1201loPI    C118873   5.076   9.411   5.976  0.0780 -0.0393  0.1043
 1201loPI    C218874   5.071   9.080   5.750  0.0488 -0.0887  0.1767
 1201loPI    C318875   5.410   9.289   5.792  0.0329 -0.0285  0.0145
 1201loPI   PO418876   5.036   9.348   6.237 -0.2579  0.2429  0.0197
 1201loPI   GL118877   5.042   9.507   6.536 -0.3005 -0.0201 -0.0508
 1201loPI   GL218878   5.346   9.686   6.682 -0.0833  0.0863  0.2599
 1201loPI   C1A18879   5.010   9.372   6.989  0.1058  0.1713  0.0526
 1201loPI   C2A18880   4.942   9.332   7.357 -0.3433 -0.0852  0.0239
 1201loPI   C3A18881   5.032   9.279   7.732  0.1780 -0.1161 -0.2954
 1201loPI   C4A18882   4.976   9.291   8.154  0.1685 -0.1279 -0.0566
 1201loPI   C5A18883   5.123   9.310   8.531 -0.0186  0.0364 -0.2905
 1201loPI   C6A18884   5.262   9.462   9.005  0.0134  0.0687 -0.1779
 1201loPI   C1B18885   5.314   9.651   7.142 -0.3294 -0.0812 -0.1183
 1201loPI   C2B18886   5.369   9.679   7.609 -0.1774 -0.1127  0.1941
 1201loPI   C3B18887   5.392   9.631   8.029  0.1499 -0.1113 -0.0743
 1201loPI   C4B18888   5.441   9.751   8.449 -0.1818 -0.0563  0.3465
 1202loPI    C118889   2.054   4.529   5.877  0.1036  0.0197  0.0125
 1202loPI    C218890   1.957   4.669   5.516  0.2946  0.0368 -0.0334
 1202loPI    C318891   2.260   4.412   5.555  0.0965 -0.1835  0.0805
 1202loPI   PO418892   2.064   4.707   6.047  0.0163 -0.0306 -0.1981
 1202loPI   GL118893   2.210   4.740   6.466 -0.1117 -0.1293 -0.2810
 1202loPI   GL218894   1.894   4.944   6.491 -0.1399 -0.0934  0.0171
 1202loPI   C1A18895   2.483   4.897   6.766  0.0366 -0.1240 -0.0530
 1202loPI   C2A18896   2.453   4.844   7.157  0.3353  0.1603  0.3134
 1202loPI   C3A18897   2.395   4.792   7.590 -0.0741  0.2801 -0.0728
 1202loPI   C4A18898   2.390   4.703   7.979  0.0665  0.1644 -0.3082
 1202loPI   C5A18899   2.103   4.655   8.412  0.0055 -0.0787  0.3414
 1202loPI   C6A18900   2.201   4.991   8.787 -0.0191 -0.0534 -0.0721
 1202loPI   C1B18901   1.957   4.910   6.934  0.0341  0.1415 -0.1094
 1202loPI   C2B18902   1.975   4.951   7.296  0.1529 -0.2698  0.1620
 1202loPI   C3B18903   1.854   4.895   7.660  0.0066  0.2289  0.2119
 1202loPI   C4B18904   1.878   4.864   8.015  0.1483 -0.1039  0.0647
 1203loPI    C118905   6.875  10.257   5.889  0.0425  0.2856 -0.1219
 1203loPI    C218906   7.255  10.143   5.944  0.0161  0.2357 -0.0399
 1203loPI    C318907   7.135  10.275   5.586 -0.0414 -0.3497 -0.2467
 1203loPI   PO418908   6.803  10.346   6.149  0.0008 -0.1686 -0.0430
 1203loPI   GL118909   6.923  10.606   6.563 -0.1931  0.0214  0.0910
 1203loPI   GL218910   7.226  10.618   6.728 -0.1584 -0.1463 -0.0902
 1203loPI   C1A18911   6.868  10.641   7.062 -0.1717  0.3389  0.0583
 1203loPI   C2A18912   6.922  10.683   7.527  0.1776 -0.0207  0.0709
 1203loPI   C3A18913   6.875  10.704   8.025  0.0815 -0.1046  0.0526
 1203loPI   C4A18914   6.900  10.697   8.461  0.0622 -0.2514 -0.3656
 1203loPI   C5A18915   7.018  10.471   8.839  0.0938 -0.2169  0.1774
 1203loPI   C6A18916   7.245  10.128   8.845 -0.1043 -0.1033 -0.1065
 1203loPI   C1B18917   7.371  10.454   7.192  0.1482 -0.0558 -0.0573
 1203loPI   C2B18918   7.456  10.517   7.598 -0.1936 -0.0598 -0.0084
 1203loPI   C3B18919   7.378  10.522   8.022 -0.2206  0.0223  0.1598
 1203loPI   C4B18920   7.365  10.569   8.422 -0.1319 -0.1362  0.0467
 1204loPI    C118921   0.435  16.438   5.658 -0.0357 -0.1042  0.0808
 1204loPI    C218922   0.602  16.119   5.483  0.1160 -0.1116  0.2361
 1204loPI    C318923   0.771  16.480   5.444 -0.0968 -0.0345 -0.0021
 1204loPI   PO418924   0.342  16.344   5.886 -0.2216  0.1058  0.1042
 1204loPI   GL118925   0.144  16.305   6.298  0.0138 -0.3336 -0.2655
 1204loPI   GL218926  -0.255  16.307   6.326  0.0950  0.0060 -0.2408
 1204loPI   C1A18927   0.439  16.252   6.641 -0.0641  0.0388 -0.1144
 1204loPI   C2A18928   0.424  16.245   7.150  0.1654 -0.1064 -0.2065
 1204loPI   C3A18929   0.530  16.222   7.593 -0.0716  0.0947  0.0860
 1204loPI   C4A18930   0.611  16.298   7.998 -0.2474  0.3447  0.1648
 1204loPI   C5A18931   0.695  16.347   8.365  0.3199  0.2767  0.0412
 1204loPI   C6A18932   0.828  16.232   8.617 -0.0817  0.0450 -0.1284
 1204loPI   C1B18933  -0.103  16.276   6.786 -0.2734  0.0754  0.1234
 1204loPI   C2B18934  -0.047  16.323   7.205 -0.1403  0.0022 -0.1350
 1204loPI   C3B18935   0.015  16.443   7.601  0.3156  0.0911  0.0204
 1204loPI   C4B18936  -0.010  16.404   7.980 -0.1089  0.0145 -0.1353
 1205loPI    C118937   2.375  13.895   5.497  0.0854 -0.1500 -0.0717
 1205loPI    C218938   2.039  13.913   5.282  0.0707  0.1109 -0.0301
 1205loPI    C318939   2.386  13.822   5.104 -0.0145 -0.1249 -0.0793
 1205loPI   PO418940   2.272  14.045   5.739  0.0243 -0.1171 -0.0926
 1205loPI   GL118941   2.369  14.227   6.081 -0.0778  0.0813 -0.0993
 1205loPI   GL218942   2.701  14.048   6.031 -0.2945  0.2356  0.0655
 1205loPI   C1A18943   2.128  14.097   6.392  0.1347 -0.1190  0.0513
 1205loPI   C2A18944   2.111  14.103   6.851 -0.0276  0.1656 -0.0830
 1205loPI   C3A18945   2.230  14.090   7.249  0.0553 -0.1946  0.2011
 1205loPI   C4A18946   2.122  14.094   7.721  0.0200  0.2164  0.2459
 1205loPI   C5A18947   1.963  13.936   8.106 -0.1441 -0.0281  0.2321
 1205loPI   C6A18948   1.941  13.895   8.634 -0.0586  0.0572  0.1843
 1205loPI   C1B18949   2.736  14.063   6.523 -0.1158  0.2604  0.3609
 1205loPI   C2B18950   2.650  14.082   6.924  0.1518  0.2975  0.0206
 1205loPI   C3B18951   2.741  14.052   7.294 -0.2986  0.0109 -0.0846
 1205loPI   C4B18952   2.688  14.012   7.708 -0.2825 -0.0254  0.1183
 1206loPI    C118953   1.124  17.373   5.283 -0.0151  0.0431 -0.1399
 1206loPI    C218954   0.780  17.326   5.084  0.0142  0.0020 -0.1810
 1206loPI    C318955   1.091  17.087   5.006 -0.0114 -0.0909 -0.0030
 1206loPI   PO418956   1.069  17.388   5.572  0.0251  0.1897  0.1982
 1206loPI   GL118957   1.084  17.514   5.986 -0.1409 -0.0255  0.1072
 1206loPI   GL218958   1.428  17.508   5.988 -0.0657  0.1778 -0.3837
 1206loPI   C1A18959   1.056  17.578   6.389  0.0787  0.0594  0.0163
 1206loPI   C2A18960   0.991  17.556   6.783  0.1827  0.2457  0.0171
 1206loPI   C3A18961   1.077  17.525   7.176 -0.1330 -0.0230  0.1479
 1206loPI   C4A18962   1.031  17.514   7.498  0.0755  0.1091 -0.3242
 1206loPI   C5A18963   1.105  17.579   7.942  0.0324 -0.0017  0.0410
 1206loPI   C6A18964   1.224  17.703   8.384 -0.0707  0.1616 -0.1558
 1206loPI   C1B18965   1.540  17.491   6.384  0.1726  0.2863 -0.1349
 1206loPI   C2B18966   1.503  17.496   6.766  0.0138  0.1381 -0.2743
 1206loPI   C3B18967   1.596  17.360   7.214  0.0947  0.0955  0.1297
 1206loPI   C4B18968   1.563  17.345   7.615  0.1163  0.0647  0.3840
 1207loPI    C118969   1.141  10.395   5.687 -0.1225 -0.1035 -0.0721
 1207loPI    C218970   1.402  10.251   5.421  0.1143 -0.1120  0.1609
 1207loPI    C318971   1.128  10.518   5.307  0.4224  0.1318 -0.0239
 1207loPI   PO418972   1.257  10.451   5.896  0.0830  0.0813  0.1332
 1207loPI   GL118973   1.332  10.261   6.304 -0.0086 -0.0331  0.3033
 1207loPI   GL218974   1.015  10.307   6.356 -0.3929  0.2064 -0.2114
 1207loPI   C1A18975   1.546  10.362   6.699  0.1188  0.3747 -0.0409
 1207loPI   C2A18976   1.603  10.269   7.030  0.1115 -0.1655  0.0700
 1207loPI   C3A18977   1.536  10.323   7.484  0.1110 -0.0346  0.0963
 1207loPI   C4A18978   1.575  10.312   7.937  0.1316  0.1097  0.0002
 1207loPI   C5A18979   1.478  10.289   8.322 -0.0870  0.1620 -0.2620
 1207loPI   C6A18980   1.264  10.286   8.759  0.1616  0.0257  0.3615
 1207loPI   C1B18981   1.000  10.372   6.782  0.1597 -0.0260 -0.1523
 1207loPI   C2B18982   1.000  10.486   7.209  0.0706  0.2102 -0.1940
 1207loPI   C3B18983   1.026  10.499   7.728 -0.0812  0.2520  0.0698
 1207loPI   C4B18984   1.100  10.561   8.104  0.1831  0.1873 -0.1069
 1208loPI    C118985  14.218   1.653   5.547  0.0472  0.0623 -0.0442
 1208loPI    C218986  13.898   1.856   5.419 -0.1560 -0.1670  0.0919
 1208loPI    C318987  14.234   1.857   5.203 -0.2277  0.1234 -0.0235
 1208loPI   PO418988  14.234   1.758   5.744 -0.1778 -0.1553 -0.0513
 1208loPI   GL118989  14.199   1.761   6.254  0.1442  0.1720  0.2118
 1208loPI   GL218990  14.009   1.957   6.300 -0.1915  0.0894  0.0965
 1208loPI   C1A18991  14.352   1.449   6.565  0.0112 -0.0819 -0.0096
 1208loPI   C2A18992  14.248   1.414   7.017  0.0015 -0.1383  0.2430
 1208loPI   C3A18993  14.331   1.511   7.404 -0.0259  0.0001  0.2151
 1208loPI   C4A18994  14.315   1.490   7.795  0.4285 -0.0822 -0.0932
 1208loPI   C5A18995  14.457   1.476   8.266 -0.1400  0.1747  0.2759
 1208loPI   C6A18996  14.532   1.202   8.569 -0.1622  0.1753  0.1881
 1208loPI   C1B18997  14.124   1.947   6.744 -0.1545 -0.0244 -0.1356
 1208loPI   C2B18998  14.100   1.904   7.234  0.1784 -0.1669  0.2074
 1208loPI   C3B18999  14.070   1.992   7.670  0.1890 -0.2218 -0.1812
 1208loPI   C4B19000  14.262   1.920   8.064  0.3313 -0.1202 -0.2718
 1209loPI    C119001   9.919   4.225   5.724  0.0788 -0.0765 -0.0612
 1209loPI    C219002  10.118   4.385   5.416  0.0871 -0.0130 -0.0230
 1209loPI    C319003   9.962   4.018   5.385  0.0131  0.0273 -0.1335
 1209loPI   PO419004  10.115   4.301   5.969 -0.2145  0.1698  0.1578
 1209loPI   GL119005  10.439   4.325   6.277  0.2205 -0.1990 -0.0213
 1209loPI   GL219006  10.624   4.184   6.492 -0.1055 -0.2661 -0.0867
 1209loPI   C1A19007  10.151   4.373   6.597  0.1038  0.0869  0.0816
 1209loPI   C2A19008  10.040   4.246   7.012  0.2115 -0.0027 -0.1394
 1209loPI   C3A19009  10.042   4.365   7.424  0.2536  0.1554  0.0561
 1209loPI   C4A19010  10.101   4.344   7.846 -0.2239 -0.3866  0.0957
 1209loPI   C5A19011  10.141   4.372   8.367 -0.1996 -0.0089 -0.0461
 1209loPI   C6A19012  10.458   4.396   8.590 -0.1395  0.1200 -0.0163
 1209loPI   C1B19013  10.594   4.166   6.927 -0.1267 -0.0410  0.0265
 1209loPI   C2B19014  10.521   4.218   7.310 -0.0746  0.0051  0.1111
 1209loPI   C3B19015  10.577   4.275   7.665 -0.0359 -0.0710 -0.0690
 1209loPI   C4B19016  10.555   4.305   8.072 -0.2809  0.0773 -0.2397
 1210loPI    C119017   1.614  14.778   5.413  0.0196 -0.1448 -0.2688
 1210loPI    C219018   1.214  14.772   5.411  0.0197 -0.2895 -0.1267
 1210loPI    C319019   1.413  14.991   5.141 -0.1580 -0.0176 -0.0416
 1210loPI   PO419020   1.645  14.691   5.664  0.0682  0.2127 -0.0160
 1210loPI   GL119021   1.637  14.643   6.126  0.0000 -0.1513 -0.1828
 1210loPI   GL219022   1.941  14.568   6.280  0.1738  0.0924 -0.1930
 1210loPI   C1A19023   1.365  14.665   6.501  0.2792 -0.1498  0.0680
 1210loPI   C2A19024   1.431  14.650   6.922  0.1367 -0.0206  0.1875
 1210loPI   C3A19025   1.448  14.606   7.352 -0.1308 -0.1539  0.0744
 1210loPI   C4A19026   1.321  14.651   7.891 -0.0764 -0.0074  0.1182
 1210loPI   C5A19027   1.255  14.703   8.308  0.1698 -0.3482  0.0509
 1210loPI   C6A19028   1.631  14.873   8.609 -0.2989 -0.1817 -0.1269
 1210loPI   C1B19029   1.899  14.575   6.691 -0.0128 -0.0948  0.0935
 1210loPI   C2B19030   2.007  14.591   7.045 -0.0603  0.1104 -0.2822
 1210loPI   C3B19031   2.012  14.502   7.448 -0.0691 -0.1390  0.2284
 1210loPI   C4B19032   1.858  14.477   7.899 -0.1816  0.2405  0.1964
 1211loPI    C119033   7.158   1.469   5.671  0.5423  0.2961 -0.0797
 1211loPI    C219034   7.279   1.150   5.463  0.0833  0.0413  0.0310
 1211loPI    C319035   7.143   1.473   5.272  0.0887 -0.0177 -0.0731
 1211loPI   PO419036   6.936   1.324   5.932 -0.2238  0.2290  0.0591
 1211loPI   GL119037   7.045   1.098   6.351 -0.4079 -0.0472 -0.0256
 1211loPI   GL219038   7.274   1.327   6.349 -0.0959  0.2617 -0.1096
 1211loPI   C1A19039   6.859   0.994   6.732 -0.2140  0.3299 -0.4398
 1211loPI   C2A19040   6.874   1.008   7.236  0.1066 -0.0331 -0.0771
 1211loPI   C3A19041   6.924   0.986   7.594  0.2128 -0.1822  0.1925
 1211loPI   C4A19042   6.962   0.973   7.986 -0.4244  0.4444  0.0271
 1211loPI   C5A19043   6.657   0.966   8.328  0.1094 -0.0843 -0.2940
 1211loPI   C6A19044   6.725   1.257   8.727  0.1556 -0.1529 -0.0484
 1211loPI   C1B19045   7.246   1.413   6.734 -0.0510  0.2076  0.0838
 1211loPI   C2B19046   7.217   1.394   7.203  0.2285 -0.0249 -0.0834
 1211loPI   C3B19047   7.225   1.390   7.652 -0.1852 -0.1178 -0.0608
 1211loPI   C4B19048   7.353   1.317   8.020 -0.2195 -0.3865 -0.1143
 1212loPI    C119049  14.296  12.991   5.863  0.1246  0.0188  0.0129
 1212loPI    C219050  14.323  13.344   5.677 -0.1311  0.0323 -0.0031
 1212loPI    C319051  14.201  13.022   5.476  0.0607 -0.0581  0.0223
 1212loPI   PO419052  14.538  13.015   6.089  0.2957  0.0127 -0.1655
 1212loPI   GL119053  14.531  13.043   6.507  0.6035 -0.0440 -0.0707
 1212loPI   GL219054  14.198  13.168   6.543 -0.1911  0.2777  0.1236
 1212loPI   C1A19055  14.596  12.913   6.968  0.4447 -0.1153  0.0356
 1212loPI   C2A19056  14.724  12.910   7.419  0.1465  0.0587 -0.0343
 1212loPI   C3A19057  14.696  12.859   7.823 -0.3012  0.3283 -0.1451
 1212loPI   C4A19058  14.705  12.863   8.257 -0.0916 -0.0569 -0.3798
 1212loPI   C5A19059  14.655  13.148   8.496  0.0233  0.0327 -0.2633
 1212loPI   C6A19060  14.611  13.198   8.969 -0.0772 -0.0281 -0.1689
 1212loPI   C1B19061  14.133  13.073   6.926  0.0495  0.0924  0.1447
 1212loPI   C2B19062  14.177  13.049   7.346 -0.1671 -0.1620  0.1290
 1212loPI   C3B19063  14.211  13.047   7.822  0.0578  0.1545  0.2346
 1212loPI   C4B19064  14.217  13.009   8.260  0.3719  0.2388 -0.0284
 1213loPI    C119065   9.529  13.928   5.889 -0.1488 -0.1345  0.1172
 1213loPI    C219066   9.293  13.834   5.580 -0.1444 -0.1548  0.1199
 1213loPI    C319067   9.649  13.656   5.622  0.0417  0.1544 -0.0982
 1213loPI   PO419068   9.403  14.111   6.039  0.0946  0.0615 -0.1915
 1213loPI   GL119069   9.137  14.058   6.397  0.2551  0.2345  0.3461
 1213loPI   GL219070   9.334  13.914   6.505 -0.0462  0.0604  0.3232
 1213loPI   C1A19071   9.114  14.362   6.677  0.2656 -0.2299 -0.1479
 1213loPI   C2A19072   9.105  14.387   7.121  0.0442 -0.0375 -0.2066
 1213loPI   C3A19073   9.179  14.261   7.530  0.0934 -0.1411  0.0660
 1213loPI   C4A19074   9.066  14.258   7.972 -0.2160  0.0857 -0.1848
 1213loPI   C5A19075   8.873  14.254   8.420 -0.1234  0.1812  0.2294
 1213loPI   C6A19076   8.640  13.953   8.631  0.2224 -0.2865 -0.3489
 1213loPI   C1B19077   9.278  13.862   6.930 -0.0297 -0.0740  0.0473
 1213loPI   C2B19078   9.277  13.744   7.420  0.3251  0.0775 -0.1904
 1213loPI   C3B19079   9.286  13.792   7.811  0.1403 -0.3548  0.1579
 1213loPI   C4B19080   9.125  13.813   8.267 -0.0749 -0.0707  0.0844
 1214loPI    C119081   2.111   3.585   5.806 -0.1585  0.0770  0.0621
 1214loPI    C219082   2.006   3.863   5.537 -0.2274  0.0623  0.0734
 1214loPI    C319083   2.209   3.538   5.421  0.0729  0.2361  0.0993
 1214loPI   PO419084   1.991   3.536   5.936  0.0689  0.1327  0.0391
 1214loPI   GL119085   1.739   3.629   6.366 -0.0013 -0.0472 -0.2249
 1214loPI   GL219086   1.874   3.917   6.249 -0.2693  0.0707 -0.2869
 1214loPI   C1A19087   1.754   3.567   6.795 -0.3752  0.2193  0.0624
 1214loPI   C2A19088   1.769   3.534   7.257  0.0553  0.2783  0.1591
 1214loPI   C3A19089   1.827   3.553   7.808  0.1370  0.2263 -0.0286
 1214loPI   C4A19090   1.836   3.618   8.162 -0.1906 -0.1558 -0.1915
 1214loPI   C5A19091   1.732   3.767   8.481  0.2898  0.0386  0.1517
 1214loPI   C6A19092   1.907   4.190   8.630  0.1857  0.0025  0.1225
 1214loPI   C1B19093   1.787   4.025   6.648 -0.2430 -0.1030 -0.0992
 1214loPI   C2B19094   1.611   3.973   7.062 -0.2483  0.2673  0.3748
 1214loPI   C3B19095   1.667   4.044   7.436  0.1803  0.1754  0.4254
 1214loPI   C4B19096   1.744   4.017   7.726 -0.2610  0.1140 -0.0024
 1215loPI    C119097   6.179  14.529   5.690 -0.1465 -0.1219  0.0314
 1215loPI    C219098   5.948  14.530   5.363  0.0285  0.2117 -0.0960
 1215loPI    C319099   6.309  14.359   5.352 -0.0678 -0.0012  0.0003
 1215loPI   PO419100   6.010  14.438   5.900 -0.0989  0.1520  0.0166
 1215loPI   GL119101   6.135  14.442   6.292  0.1288  0.2947 -0.0942
 1215loPI   GL219102   5.928  14.259   6.411  0.0568 -0.0834 -0.0156
 1215loPI   C1A19103   6.322  14.603   6.722 -0.0032 -0.0060  0.3837
 1215loPI   C2A19104   6.385  14.533   7.240  0.1032 -0.0603 -0.1910
 1215loPI   C3A19105   6.331  14.574   7.606  0.0088  0.0348  0.0164
 1215loPI   C4A19106   6.341  14.561   8.030  0.1632 -0.4260  0.1587
 1215loPI   C5A19107   6.274  14.500   8.345  0.0297 -0.1093 -0.1885
 1215loPI   C6A19108   6.391  14.607   8.775  0.1130 -0.1054 -0.0394
 1215loPI   C1B19109   6.007  14.178   6.840 -0.1259 -0.0517  0.2238
 1215loPI   C2B19110   6.046  14.160   7.212  0.0588  0.0150 -0.2218
 1215loPI   C3B19111   5.992  14.189   7.643  0.2750 -0.1073 -0.0384
 1215loPI   C4B19112   5.926  14.204   8.017 -0.0419 -0.2493  0.0108
 1216loPI    C119113   7.305   4.339   5.888  0.0358 -0.0223 -0.0530
 1216loPI    C219114   7.346   4.382   5.493  0.0708 -0.2324 -0.0734
 1216loPI    C319115   7.394   4.023   5.661  0.0934 -0.1370  0.1272
 1216loPI   PO419116   7.486   4.457   5.965  0.0656  0.1000 -0.1652
 1216loPI   GL119117   7.609   4.620   6.366  0.0388 -0.1388  0.0163
 1216loPI   GL219118   7.803   4.424   6.512  0.0434 -0.1781  0.3139
 1216loPI   C1A19119   7.286   4.625   6.680 -0.0803  0.1347 -0.1973
 1216loPI   C2A19120   7.205   4.606   7.140  0.0274  0.1360 -0.3415
 1216loPI   C3A19121   7.198   4.490   7.594 -0.1049  0.1389 -0.0524
 1216loPI   C4A19122   6.924   4.183   7.939  0.0178  0.1338 -0.2056
 1216loPI   C5A19123   7.130   3.851   8.161  0.2354 -0.0078  0.0128
 1216loPI   C6A19124   7.434   3.569   8.308 -0.1633 -0.0884  0.2521
 1216loPI   C1B19125   7.727   4.525   6.934  0.0123  0.1858 -0.0569
 1216loPI   C2B19126   7.729   4.562   7.354 -0.0480 -0.1036  0.2405
 1216loPI   C3B19127   7.639   4.856   7.637  0.1918  0.1021  0.0506
 1216loPI   C4B19128   7.489   5.114   7.981 -0.1782 -0.0163  0.0401
 1217loPI    C119129   8.740  16.156   5.664 -0.0257  0.0798 -0.0721
 1217loPI    C219130   8.615  16.262   5.299 -0.1425 -0.1597 -0.1040
 1217loPI    C319131   9.001  16.181   5.363 -0.0964  0.0279 -0.1381
 1217loPI   PO419132   8.669  16.297   5.886 -0.2620 -0.1053 -0.0003
 1217loPI   GL119133   8.764  16.511   6.345  0.1855  0.1140  0.0822
 1217loPI   GL219134   8.448  16.275   6.400  0.2691  0.3572 -0.1187
 1217loPI   C1A19135   8.947  16.542   6.734  0.1231  0.0101  0.0046
 1217loPI   C2A19136   8.903  16.673   7.169  0.1650 -0.0002 -0.1775
 1217loPI   C3A19137   8.976  16.657   7.525  0.1239 -0.2005  0.1296
 1217loPI   C4A19138   8.850  16.596   8.001 -0.0939  0.0393  0.2557
 1217loPI   C5A19139   8.708  16.548   8.495 -0.1985 -0.2115 -0.0413
 1217loPI   C6A19140   8.841  16.554   8.898 -0.0391  0.3012 -0.0098
 1217loPI   C1B19141   8.480  16.223   6.825 -0.2925 -0.0116  0.1032
 1217loPI   C2B19142   8.454  16.316   7.309 -0.0083  0.0578  0.1874
 1217loPI   C3B19143   8.556  16.212   7.693 -0.0092 -0.0617  0.1221
 1217loPI   C4B19144   8.533  16.270   8.093 -0.0960 -0.0187  0.0345
 1218loPI    C119145   5.700  14.980   5.334 -0.0829  0.1465 -0.0949
 1218loPI    C219146   6.079  15.057   5.232 -0.0927  0.0365 -0.2180
 1218loPI    C319147   5.785  15.118   4.968 -0.1449 -0.0199 -0.1732
 1218loPI   PO419148   5.738  14.972   5.625 -0.1236  0.2300  0.0142
 1218loPI   GL119149   5.907  14.905   6.105  0.0633  0.0098 -0.0722
 1218loPI   GL219150   6.176  15.106   6.287  0.0191  0.1132  0.0173
 1218loPI   C1A19151   5.867  14.760   6.543  0.0391 -0.1278  0.1978
 1218loPI   C2A19152   5.896  14.716   6.964  0.1761 -0.0897 -0.0656
 1218loPI   C3A19153   5.877  14.649   7.421  0.1416  0.0794  0.0416
 1218loPI   C4A19154   5.879  14.745   7.858 -0.0616 -0.1375  0.2198
 1218loPI   C5A19155   5.800  14.722   8.220  0.0807 -0.1331 -0.2036
 1218loPI   C6A19156   5.753  14.391   8.464 -0.2644 -0.1011  0.0317
 1218loPI   C1B19157   6.187  15.052   6.730 -0.1095  0.2477 -0.2251
 1218loPI   C2B19158   6.187  15.013   7.188 -0.1564  0.0077  0.1105
 1218loPI   C3B19159   6.154  15.051   7.651  0.0822  0.1116  0.2738
 1218loPI   C4B19160   6.214  15.042   8.125 -0.1106 -0.0070  0.1713
 1219loPI    C119161   0.206   7.741   5.435 -0.3404  0.0392 -0.0899
 1219loPI    C219162   0.335   7.529   5.121 -0.0597 -0.1465  0.1451
 1219loPI    C319163   0.331   7.929   5.106  0.2189 -0.1466  0.0053
 1219loPI   PO419164   0.310   7.609   5.602  0.0069 -0.2039  0.1911
 1219loPI   GL119165   0.194   7.661   6.044 -0.1645  0.0873  0.2291
 1219loPI   GL219166   0.408   7.793   6.171 -0.0831  0.0050 -0.0277
 1219loPI   C1A19167   0.076   7.597   6.515 -0.0540 -0.2589 -0.0766
 1219loPI   C2A19168  -0.021   7.569   6.924 -0.2536  0.0704 -0.2866
 1219loPI   C3A19169   0.101   7.517   7.287 -0.1454 -0.1923  0.1558
 1219loPI   C4A19170  -0.023   7.626   7.732 -0.0945 -0.1393  0.1403
 1219loPI   C5A19171   0.005   7.688   8.199 -0.2462 -0.1172 -0.1892
 1219loPI   C6A19172   0.296   7.463   8.391 -0.2021  0.1857 -0.2135
 1219loPI   C1B19173   0.431   8.019   6.582  0.0788  0.0104  0.0411
 1219loPI   C2B19174   0.296   7.993   7.082  0.2192 -0.0850 -0.0587
 1219loPI   C3B19175   0.324   7.895   7.541  0.4053 -0.0105 -0.1858
 1219loPI   C4B19176   0.399   7.866   7.952  0.1493  0.1653  0.0151
 1220loPI    C119177   1.104   4.918   5.766  0.1637 -0.0468  0.0946
 1220loPI    C219178   0.757   4.885   5.569  0.1149  0.1296  0.1496
 1220loPI    C319179   0.789   4.744   5.942  0.1902 -0.1518  0.0390
 1220loPI   PO419180   1.215   5.106   5.890  0.0889  0.0618 -0.0570
 1220loPI   GL119181   0.971   5.069   6.286 -0.2068 -0.3543  0.0068
 1220loPI   GL219182   1.334   4.956   6.349  0.5498 -0.0183 -0.1271
 1220loPI   C1A19183   0.906   5.193   6.774  0.1330  0.0971 -0.1062
 1220loPI   C2A19184   0.900   5.198   7.194 -0.1610 -0.3556  0.0565
 1220loPI   C3A19185   0.831   5.179   7.692  0.1996  0.2656 -0.3040
 1220loPI   C4A19186   0.712   5.350   8.124  0.2564 -0.0780 -0.0589
 1220loPI   C5A19187   0.203   5.228   8.302  0.2002 -0.1115  0.0374
 1220loPI   C6A19188  -0.204   5.065   8.458 -0.2292 -0.0617  0.1736
 1220loPI   C1B19189   1.464   5.034   6.828  0.2158  0.1772  0.0611
 1220loPI   C2B19190   1.425   5.129   7.274 -0.0540  0.1400 -0.0516
 1220loPI   C3B19191   1.301   5.025   7.689  0.1033  0.0667  0.0323
 1220loPI   C4B19192   1.349   4.885   8.145  0.2223  0.0012  0.0957
 1221loPI    C119193  17.327  11.233   5.475  0.1091 -0.1735 -0.1010
 1221loPI    C219194  16.964  11.130   5.342  0.0219  0.1291 -0.1059
 1221loPI    C319195  17.156  11.441   5.179  0.2211  0.0623 -0.0026
 1221loPI   PO419196  17.319  11.284   5.698  0.1981  0.0303 -0.1222
 1221loPI   GL119197  17.217  11.344   6.155 -0.1082  0.3464 -0.0557
 1221loPI   GL219198  17.441  11.491   6.233  0.1591  0.1786 -0.1667
 1221loPI   C1A19199  16.884  11.420   6.461 -0.2079  0.1831  0.0025
 1221loPI   C2A19200  16.947  11.453   6.841 -0.0538  0.0542 -0.1951
 1221loPI   C3A19201  16.887  11.472   7.319 -0.0208  0.1180  0.1964
 1221loPI   C4A19202  16.922  11.358   7.725 -0.0416 -0.3784 -0.0185
 1221loPI   C5A19203  16.940  11.467   8.186  0.1465  0.0629  0.1146
 1221loPI   C6A19204  16.628  11.477   8.530 -0.0549  0.1007 -0.2890
 1221loPI   C1B19205  17.420  11.365   6.607  0.0293  0.1074  0.0898
 1221loPI   C2B19206  17.404  11.283   7.084 -0.1976 -0.1823 -0.1274
 1221loPI   C3B19207  17.358  11.285   7.487 -0.2210 -0.2037  0.2510
 1221loPI   C4B19208  17.345  11.261   7.941 -0.2438  0.0363  0.3023
 1222loPI    C119209   5.976   0.051   5.856  0.2325  0.0055 -0.1947
 1222loPI    C219210   6.152  -0.032   5.506  0.1421 -0.0395 -0.2300
 1222loPI    C319211   5.815   0.184   5.514 -0.0247 -0.2972 -0.1958
 1222loPI   PO419212   6.165   0.144   6.066 -0.1656  0.1626 -0.3417
 1222loPI   GL119213   6.341   0.203   6.393 -0.0605 -0.0762  0.0588
 1222loPI   GL219214   6.731   0.243   6.376 -0.2873  0.0201 -0.0056
 1222loPI   C1A19215   6.122   0.253   6.754  0.1146 -0.0232 -0.0181
 1222loPI   C2A19216   6.104   0.213   7.121 -0.0268 -0.4660  0.0190
 1222loPI   C3A19217   6.252   0.251   7.474 -0.1001  0.0882  0.2135
 1222loPI   C4A19218   6.138   0.180   7.893 -0.0630 -0.0887 -0.1362
 1222loPI   C5A19219   6.165   0.229   8.378  0.0012  0.0528 -0.2994
 1222loPI   C6A19220   6.502  -0.031   8.581 -0.2822 -0.3276 -0.1598
 1222loPI   C1B19221   6.596   0.165   6.814 -0.0442 -0.1262  0.0950
 1222loPI   C2B19222   6.686   0.109   7.251 -0.0226  0.0612  0.2322
 1222loPI   C3B19223   6.689   0.107   7.759  0.0180  0.2663  0.0994
 1222loPI   C4B19224   6.618   0.091   8.114 -0.1617  0.1429  0.0690
 1223loPI    C119225  14.686   9.388   5.367  0.1354 -0.1051 -0.2165
 1223loPI    C219226  14.957   9.623   5.192  0.0582  0.2448  0.1199
 1223loPI    C319227  14.584   9.607   5.049  0.1532  0.0532 -0.1142
 1223loPI   PO419228  14.775   9.481   5.666  0.1206 -0.0232  0.0539
 1223loPI   GL119229  14.641   9.286   6.132  0.1979 -0.2816 -0.0609
 1223loPI   GL219230  14.958   9.373   6.250  0.2808 -0.1832  0.1539
 1223loPI   C1A19231  14.715   9.128   6.527  0.2015 -0.1665  0.2818
 1223loPI   C2A19232  14.735   9.195   6.983 -0.0222 -0.1328  0.0708
 1223loPI   C3A19233  14.696   9.270   7.399  0.1807 -0.1789  0.0386
 1223loPI   C4A19234  14.669   9.253   7.876  0.2088 -0.2111 -0.1199
 1223loPI   C5A19235  14.647   9.174   8.298 -0.1790 -0.0708  0.0242
 1223loPI   C6A19236  14.532   8.787   8.506 -0.2131  0.0399 -0.0133
 1223loPI   C1B19237  15.087   9.545   6.625 -0.0116 -0.0252 -0.3077
 1223loPI   C2B19238  15.103   9.617   7.028  0.4828  0.2203 -0.2688
 1223loPI   C3B19239  15.052   9.688   7.545 -0.0039 -0.2322 -0.1180
 1223loPI   C4B19240  15.013   9.605   8.014 -0.0950  0.0533  0.0358
 1224loPI    C119241  13.928  12.453   5.595 -0.1614 -0.0781 -0.0199
 1224loPI    C219242  13.965  12.625   5.235 -0.2336  0.1454  0.0773
 1224loPI    C319243  13.699  12.331   5.291 -0.2055  0.0940 -0.0569
 1224loPI   PO419244  13.947  12.602   5.763 -0.0179 -0.2200 -0.2388
 1224loPI   GL119245  13.823  12.665   6.277  0.1312 -0.0343 -0.0081
 1224loPI   GL219246  14.142  12.673   6.225  0.0106  0.0849  0.2894
 1224loPI   C1A19247  13.819  12.546   6.738 -0.0461 -0.1329  0.2327
 1224loPI   C2A19248  13.827  12.732   7.197 -0.0844 -0.1810 -0.2343
 1224loPI   C3A19249  13.832  12.715   7.663  0.0216 -0.1017 -0.1294
 1224loPI   C4A19250  13.857  12.703   8.086 -0.1259 -0.1338 -0.1388
 1224loPI   C5A19251  13.736  12.688   8.434  0.5305  0.1775 -0.2230
 1224loPI   C6A19252  13.333  12.800   8.661  0.0276  0.2207  0.1686
 1224loPI   C1B19253  14.276  12.631   6.644  0.1175  0.1849 -0.1574
 1224loPI   C2B19254  14.253  12.507   7.044 -0.3489 -0.1373 -0.2643
 1224loPI   C3B19255  14.305  12.519   7.520  0.2269  0.1870  0.0182
 1224loPI   C4B19256  14.345  12.497   7.965 -0.1774  0.1700 -0.1002
 1225loPI    C119257   5.292   0.141   5.654  0.0487  0.0881 -0.2103
 1225loPI    C219258   5.393  -0.055   5.320 -0.0565  0.0287 -0.2079
 1225loPI    C319259   5.181   0.283   5.297  0.0375  0.0881 -0.2068
 1225loPI   PO419260   5.472   0.093   5.832  0.1160 -0.0857  0.1690
 1225loPI   GL119261   5.596   0.155   6.233 -0.2893 -0.2575 -0.3223
 1225loPI   GL219262   5.831   0.316   6.419 -0.0214 -0.0331 -0.2590
 1225loPI   C1A19263   5.339  -0.029   6.561  0.1021  0.0755  0.0065
 1225loPI   C2A19264   5.315  -0.018   7.059  0.2423 -0.3345  0.1644
 1225loPI   C3A19265   5.305  -0.029   7.497 -0.0040  0.1607 -0.1987
 1225loPI   C4A19266   5.246   0.098   7.799  0.0529  0.1189  0.0559
 1225loPI   C5A19267   5.279  -0.065   8.249  0.1529  0.2492 -0.2052
 1225loPI   C6A19268   5.263  -0.085   8.723  0.1971  0.2142 -0.0270
 1225loPI   C1B19269   5.657   0.322   6.879  0.1177 -0.2206 -0.0121
 1225loPI   C2B19270   5.655   0.377   7.289 -0.0270 -0.2502 -0.0721
 1225loPI   C3B19271   5.674   0.391   7.751 -0.0218  0.0002 -0.2434
 1225loPI   C4B19272   5.726   0.321   8.190 -0.1392 -0.1097 -0.3191
 1226loPI    C119273  12.220   5.035   5.879  0.1527 -0.3200  0.1370
 1226loPI    C219274  12.421   5.055   5.533 -0.1783  0.1736 -0.0376
 1226loPI    C319275  12.045   4.918   5.539 -0.0561 -0.1656  0.1898
 1226loPI   PO419276  12.179   5.190   5.927 -0.2368 -0.3058 -0.0167
 1226loPI   GL119277  12.093   5.253   6.313  0.0480 -0.1426 -0.0410
 1226loPI   GL219278  11.964   5.536   6.512  0.1916  0.4097 -0.1126
 1226loPI   C1A19279  12.179   5.157   6.776  0.1174  0.0663  0.2379
 1226loPI   C2A19280  12.137   5.208   7.216  0.0555  0.1037  0.0012
 1226loPI   C3A19281  12.153   5.234   7.648 -0.1634 -0.1862  0.2630
 1226loPI   C4A19282  12.177   5.176   8.125  0.0971 -0.0067  0.2532
 1226loPI   C5A19283  11.868   5.009   8.435  0.0395  0.0872 -0.0914
 1226loPI   C6A19284  11.871   4.969   8.888  0.1658  0.0846 -0.0757
 1226loPI   C1B19285  12.017   5.648   7.052  0.0307 -0.1098 -0.2038
 1226loPI   C2B19286  12.015   5.706   7.490 -0.1441 -0.2935  0.0093
 1226loPI   C3B19287  12.008   5.714   7.979  0.0349 -0.1030  0.0757
 1226loPI   C4B19288  12.087   5.817   8.341  0.2624 -0.0652  0.0614
 1227loPI    C119289  16.810  16.949   5.703 -0.0831 -0.0967  0.0656
 1227loPI    C219290  16.703  16.618   5.505 -0.1165 -0.0785  0.0532
 1227loPI    C319291  16.924  16.898   5.323 -0.2524 -0.0038  0.0011
 1227loPI   PO419292  16.838  16.831   5.937  0.0317 -0.1336 -0.1302
 1227loPI   GL119293  16.762  16.563   6.263 -0.0815 -0.1394  0.0813
 1227loPI   GL219294  16.508  16.631   6.432 -0.0838 -0.4995  0.0191
 1227loPI   C1A19295  16.890  16.409   6.680  0.1353 -0.0849  0.2351
 1227loPI   C2A19296  16.929  16.391   7.093 -0.1275 -0.0187  0.1668
 1227loPI   C3A19297  17.022  16.584   7.471 -0.0702  0.2679 -0.1043
 1227loPI   C4A19298  16.951  16.578   7.904  0.0429  0.1108  0.0879
 1227loPI   C5A19299  16.877  16.531   8.386 -0.0814 -0.1953 -0.0029
 1227loPI   C6A19300  17.152  16.422   8.577 -0.2120 -0.1635 -0.1091
 1227loPI   C1B19301  16.472  16.524   6.832  0.1520 -0.1012  0.2863
 1227loPI   C2B19302  16.456  16.569   7.291  0.2699 -0.2294  0.1955
 1227loPI   C3B19303  16.431  16.653   7.693  0.1405 -0.0102 -0.0308
 1227loPI   C4B19304  16.427  16.691   8.126  0.0002 -0.1201  0.0572
 1228loPI    C119305  17.006  13.912   5.442  0.0043  0.0885  0.2474
 1228loPI    C219306  17.246  14.000   5.134 -0.0208  0.1092  0.2338
 1228loPI    C319307  17.131  13.622   5.196 -0.1257  0.1245  0.1373
 1228loPI   PO419308  16.856  14.163   5.443 -0.0696  0.0610 -0.2163
 1228loPI   GL119309  16.780  14.193   5.857  0.2061  0.0022 -0.0950
 1228loPI   GL219310  16.519  14.251   6.167  0.2612  0.1353 -0.0559
 1228loPI   C1A19311  16.956  13.914   6.309  0.1586 -0.0351  0.2386
 1228loPI   C2A19312  16.761  13.847   6.673 -0.1434  0.2355  0.3262
 1228loPI   C3A19313  16.890  13.819   7.078  0.1272  0.1071  0.0834
 1228loPI   C4A19314  16.836  13.823   7.457  0.0001 -0.1789 -0.3237
 1228loPI   C5A19315  16.701  13.880   7.889  0.2702  0.4460 -0.0810
 1228loPI   C6A19316  16.625  14.313   8.168 -0.0783  0.1979 -0.2561
 1228loPI   C1B19317  16.696  14.310   6.514  0.0355 -0.0827 -0.2374
 1228loPI   C2B19318  16.713  14.315   6.894 -0.1708 -0.3039  0.2006
 1228loPI   C3B19319  16.673  14.318   7.244 -0.1005 -0.0079  0.0132
 1228loPI   C4B19320  16.653  14.319   7.661 -0.1662  0.3436  0.2494
 1229loPI    C119321  10.213   3.233   5.993  0.2950 -0.0189  0.1241
 1229loPI    C219322  10.407   3.468   5.733  0.0387 -0.0706 -0.1184
 1229loPI    C319323  10.179   3.167   5.600 -0.0837 -0.1085  0.1682
 1229loPI   PO419324  10.185   3.422   6.138 -0.4448 -0.0592 -0.2081
 1229loPI   GL119325  10.153   3.295   6.487 -0.0184 -0.1038  0.1181
 1229loPI   GL219326   9.873   3.509   6.552  0.1562 -0.1203 -0.0433
 1229loPI   C1A19327  10.332   3.358   6.846 -0.1871 -0.1914  0.0478
 1229loPI   C2A19328  10.384   3.263   7.283 -0.2878 -0.0705 -0.0734
 1229loPI   C3A19329  10.361   3.413   7.667 -0.1812 -0.4434 -0.2998
 1229loPI   C4A19330  10.448   3.435   8.133  0.0282  0.5235 -0.0673
 1229loPI   C5A19331  10.313   3.152   8.497  0.0103  0.0066  0.3800
 1229loPI   C6A19332  10.242   2.778   8.623 -0.1803 -0.0437 -0.1614
 1229loPI   C1B19333   9.876   3.514   6.999 -0.0640 -0.4268  0.2500
 1229loPI   C2B19334   9.894   3.435   7.453 -0.1165  0.0323 -0.1192
 1229loPI   C3B19335   9.890   3.494   7.887 -0.0159  0.0814  0.0869
 1229loPI   C4B19336   9.957   3.445   8.330 -0.1697 -0.2206 -0.0939
 1230loPI    C119337  12.067  10.936   6.011 -0.0299  0.0929 -0.0327
 1230loPI    C219338  12.211  11.224   5.773 -0.0153 -0.0541 -0.2036
 1230loPI    C319339  12.195  10.846   5.642  0.0484 -0.1466  0.0510
 1230loPI   PO419340  12.135  11.051   6.272  0.0747  0.0710  0.1177
 1230loPI   GL119341  12.438  11.098   6.526  0.0487  0.0486  0.0968
 1230loPI   GL219342  12.438  11.413   6.605  0.0326 -0.1064  0.0916
 1230loPI   C1A19343  12.355  11.053   6.998  0.0986  0.1012  0.1363
 1230loPI   C2A19344  12.301  11.152   7.391 -0.4883 -0.1196  0.0610
 1230loPI   C3A19345  12.308  11.228   7.782  0.1641  0.0317 -0.2049
 1230loPI   C4A19346  12.302  11.305   8.194  0.0860 -0.0666  0.0925
 1230loPI   C5A19347  12.284  11.252   8.525 -0.0394  0.2051  0.2719
 1230loPI   C6A19348  12.052  11.248   9.000 -0.0130  0.0416  0.2843
 1230loPI   C1B19349  12.606  11.487   6.939  0.0383  0.0125 -0.1396
 1230loPI   C2B19350  12.669  11.553   7.293 -0.2601  0.0022  0.1860
 1230loPI   C3B19351  12.674  11.582   7.754 -0.3221 -0.0724  0.0604
 1230loPI   C4B19352  12.636  11.656   8.141  0.0736 -0.2075  0.0543
 1231loPI    C119353   6.613  17.324   5.631  0.0027 -0.0268  0.2093
 1231loPI    C219354   6.830  17.075   5.405 -0.1288 -0.0617  0.1210
 1231loPI    C319355   6.541  17.297   5.239 -0.1331  0.0155  0.2308
 1231loPI   PO419356   6.636  17.238   5.839 -0.0932  0.5756 -0.0339
 1231loPI   GL119357   6.444  17.195   6.225  0.0781  0.0051 -0.0351
 1231loPI   GL219358   6.507  16.897   6.210 -0.1324  0.1315 -0.0136
 1231loPI   C1A19359   6.369  17.246   6.702 -0.0825 -0.1708 -0.1253
 1231loPI   C2A19360   6.329  17.198   7.081 -0.0223  0.4009 -0.0897
 1231loPI   C3A19361   6.270  17.222   7.513  0.0867 -0.2392  0.0887
 1231loPI   C4A19362   6.427  17.167   7.910  0.0791 -0.1240 -0.1274
 1231loPI   C5A19363   6.630  17.053   8.247 -0.0696  0.1221 -0.2518
 1231loPI   C6A19364   6.852  17.182   8.425 -0.0463 -0.1525 -0.2516
 1231loPI   C1B19365   6.581  16.779   6.613 -0.2020  0.0333  0.0481
 1231loPI   C2B19366   6.529  16.778   6.987  0.1283 -0.0519 -0.2340
 1231loPI   C3B19367   6.517  16.718   7.348  0.0444 -0.1242  0.1869
 1231loPI   C4B19368   6.552  16.712   7.868 -0.0725  0.0231  0.0678
 1232loPI    C119369  10.869  14.264   5.670  0.1796 -0.0620 -0.0224
 1232loPI    C219370  11.098  14.400   5.372 -0.0235  0.1205 -0.0983
 1232loPI    C319371  10.729  14.267   5.296  0.0088 -0.0525  0.0407
 1232loPI   PO419372  10.922  14.370   5.846  0.1715 -0.3227  0.4082
 1232loPI   GL119373  10.808  14.275   6.321  0.0579  0.0392  0.2129
 1232loPI   GL219374  10.551  14.319   6.541  0.0120  0.4014  0.1288
 1232loPI   C1A19375  10.982  14.272   6.748 -0.1621 -0.4724 -0.2387
 1232loPI   C2A19376  11.006  14.334   7.166 -0.0971  0.2135 -0.1579
 1232loPI   C3A19377  10.983  14.284   7.592 -0.0858 -0.2222 -0.0788
 1232loPI   C4A19378  11.018  14.236   8.073 -0.0404 -0.2869 -0.0728
 1232loPI   C5A19379  11.199  14.261   8.442  0.1302  0.0953  0.1047
 1232loPI   C6A19380  11.541  14.438   8.660  0.0423  0.2989  0.1578
 1232loPI   C1B19381  10.531  14.439   6.905  0.3326  0.0080 -0.1849
 1232loPI   C2B19382  10.500  14.389   7.409 -0.2436 -0.2267  0.2195
 1232loPI   C3B19383  10.509  14.414   7.810 -0.1454 -0.0057  0.2211
 1232loPI   C4B19384  10.530  14.334   8.247  0.1523 -0.0524 -0.1148
 1233loPI    C119385  10.142  17.153   5.551 -0.0764 -0.0383  0.3614
 1233loPI    C219386  10.067  16.783   5.418 -0.0188  0.0392  0.1071
 1233loPI    C319387   9.777  16.995   5.593 -0.1330 -0.0161 -0.0135
 1233loPI   PO419388  10.372  17.112   5.736  0.0008 -0.2668  0.2885
 1233loPI   GL119389  10.531  17.094   6.192  0.1304  0.0106 -0.0636
 1233loPI   GL219390  10.265  17.110   6.310  0.1054  0.0651 -0.1822
 1233loPI   C1A19391  10.650  17.068   6.617  0.1599 -0.1144  0.2147
 1233loPI   C2A19392  10.586  17.120   7.014  0.2045 -0.2753 -0.0891
 1233loPI   C3A19393  10.559  17.092   7.410  0.1834  0.0999  0.1830
 1233loPI   C4A19394  10.582  17.162   7.891  0.1488 -0.3755  0.2328
 1233loPI   C5A19395  10.572  17.139   8.259  0.3000 -0.1115 -0.1199
 1233loPI   C6A19396  10.591  16.803   8.646  0.2804 -0.2910 -0.0481
 1233loPI   C1B19397  10.156  17.185   6.748 -0.2719 -0.0980  0.2632
 1233loPI   C2B19398  10.118  17.213   7.201 -0.1450 -0.0623  0.2185
 1233loPI   C3B19399  10.147  17.249   7.695 -0.2548 -0.1407  0.0178
 1233loPI   C4B19400  10.079  17.201   8.052 -0.1959 -0.0877 -0.2213
 1234loPI    C119401   6.661   3.584   5.565  0.0731  0.0046 -0.0810
 1234loPI    C219402   6.929   3.850   5.432  0.0752  0.0640  0.0404
 1234loPI    C319403   6.853   3.519   5.221  0.0282  0.1899 -0.1422
 1234loPI   PO419404   6.766   3.581   5.810  0.1746  0.1731  0.0273
 1234loPI   GL119405   6.952   3.318   6.209  0.1420 -0.0018 -0.0088
 1234loPI   GL219406   6.856   2.985   6.157  0.1245  0.1205  0.1777
 1234loPI   C1A19407   6.644   3.357   6.578 -0.1605 -0.2710  0.0792
 1234loPI   C2A19408   6.679   3.367   6.990 -0.1475 -0.1006 -0.1328
 1234loPI   C3A19409   6.652   3.352   7.427 -0.0319  0.0712 -0.1703
 1234loPI   C4A19410   6.602   3.343   7.914 -0.1949 -0.0040  0.0800
 1234loPI   C5A19411   6.610   3.194   8.366 -0.0409 -0.3579  0.4065
 1234loPI   C6A19412   6.677   3.071   8.859 -0.0003 -0.0327  0.2197
 1234loPI   C1B19413   6.856   2.945   6.585 -0.1099  0.0737 -0.0153
 1234loPI   C2B19414   6.798   2.837   7.001  0.0492 -0.1931  0.2724
 1234loPI   C3B19415   6.837   2.845   7.447  0.0435  0.1089 -0.0336
 1234loPI   C4B19416   6.784   2.885   7.937 -0.0973  0.0296  0.1981
 1235loPI    C119417   7.165  11.063   5.832  0.0209 -0.0446 -0.2338
 1235loPI    C219418   7.166  11.405   5.625  0.0123  0.0486 -0.0805
 1235loPI    C319419   7.145  11.056   5.432 -0.0792  0.1372 -0.2329
 1235loPI   PO419420   6.952  11.112   6.012  0.1220  0.0186 -0.3017
 1235loPI   GL119421   6.918  11.202   6.391 -0.2004 -0.1640 -0.1522
 1235loPI   GL219422   7.234  11.060   6.457  0.0978  0.3375  0.0665
 1235loPI   C1A19423   6.791  11.167   6.807 -0.3669 -0.0669 -0.0940
 1235loPI   C2A19424   6.727  11.279   7.228  0.1440 -0.1672 -0.3200
 1235loPI   C3A19425   6.773  11.296   7.618  0.0668 -0.3477 -0.1733
 1235loPI   C4A19426   6.741  11.197   8.033  0.0021  0.0214 -0.1146
 1235loPI   C5A19427   6.705  11.122   8.473  0.1138  0.1834  0.0784
 1235loPI   C6A19428   6.473  11.166   8.803 -0.0114  0.1084 -0.0010
 1235loPI   C1B19429   7.260  11.106   6.841 -0.2280 -0.0566  0.0437
 1235loPI   C2B19430   7.201  11.079   7.342 -0.2090 -0.0345  0.1338
 1235loPI   C3B19431   7.214  10.980   7.773 -0.2162  0.2723  0.0124
 1235loPI   C4B19432   7.272  11.068   8.278 -0.0037 -0.1811 -0.0043
 1236loPI    C119433  16.540   8.793   5.425  0.1697  0.2432 -0.0790
 1236loPI    C219434  16.939   8.812   5.433  0.1913 -0.1654  0.0320
 1236loPI    C319435  16.757   8.516   5.235 -0.0587  0.0198 -0.0198
 1236loPI   PO419436  16.505   8.820   5.732 -0.0755  0.0836  0.2395
 1236loPI   GL119437  16.460   8.747   6.124 -0.3964 -0.1541 -0.0910
 1236loPI   GL219438  16.682   8.699   6.325  0.3038  0.2190 -0.1085
 1236loPI   C1A19439  16.231   8.823   6.513  0.1948 -0.0282 -0.1932
 1236loPI   C2A19440  16.206   8.832   6.980 -0.1760 -0.2203 -0.1775
 1236loPI   C3A19441  16.149   8.885   7.375 -0.0704  0.0652 -0.0365
 1236loPI   C4A19442  16.100   8.877   7.824  0.1704 -0.2029  0.1659
 1236loPI   C5A19443  16.239   8.927   8.257  0.1353  0.0727  0.1184
 1236loPI   C6A19444  16.593   8.699   8.449 -0.0054 -0.0875  0.4003
 1236loPI   C1B19445  16.694   8.771   6.729 -0.1561  0.1255 -0.3183
 1236loPI   C2B19446  16.715   8.743   7.102 -0.0968  0.0900 -0.1885
 1236loPI   C3B19447  16.656   8.757   7.530 -0.1581  0.1048  0.2110
 1236loPI   C4B19448  16.620   8.643   7.941 -0.1879  0.1927  0.1203
 1237loPI    C119449  16.292  13.170   5.473  0.1275 -0.0013 -0.2863
 1237loPI    C219450  16.569  12.884   5.437  0.0425 -0.1389  0.0997
 1237loPI    C319451  16.259  12.895   5.184  0.1747 -0.2385 -0.0695
 1237loPI   PO419452  16.313  13.291   5.752 -0.0773 -0.2140  0.0956
 1237loPI   GL119453  16.354  13.386   6.123 -0.1632 -0.2103  0.0003
 1237loPI   GL219454  16.484  13.732   6.086 -0.1046 -0.1035  0.3016
 1237loPI   C1A19455  16.364  13.426   6.522  0.0234 -0.3240  0.0046
 1237loPI   C2A19456  16.465  13.443   6.932  0.0532 -0.1405  0.0623
 1237loPI   C3A19457  16.493  13.442   7.422 -0.0732  0.0265 -0.2054
 1237loPI   C4A19458  16.465  13.428   7.816 -0.0105  0.0155  0.0676
 1237loPI   C5A19459  16.341  13.565   8.197  0.4035 -0.1225  0.0215
 1237loPI   C6A19460  15.906  13.665   8.416 -0.0231 -0.1323  0.1660
 1237loPI   C1B19461  16.292  13.920   6.537 -0.1150  0.1096  0.3195
 1237loPI   C2B19462  16.369  13.966   6.970  0.0937 -0.0068 -0.0731
 1237loPI   C3B19463  16.263  13.934   7.392 -0.0717 -0.1277 -0.1941
 1237loPI   C4B19464  16.213  13.919   7.816 -0.3061 -0.0900 -0.1797
 1238loPI    C119465   1.364  14.238   5.410 -0.0237 -0.2159 -0.3155
 1238loPI    C219466   1.742  14.298   5.294  0.0404 -0.0769 -0.0424
 1238loPI    C319467   1.441  14.464   5.089  0.1575  0.2550  0.0479
 1238loPI   PO419468   1.334  14.283   5.683 -0.2690 -0.1638  0.1220
 1238loPI   GL119469   1.378  14.232   6.125  0.3031 -0.0168  0.0328
 1238loPI   GL219470   1.486  13.942   6.108  0.3256  0.1131  0.1724
 1238loPI   C1A19471   1.600  14.228   6.468  0.0398  0.1367  0.0748
 1238loPI   C2A19472   1.579  14.089   6.785  0.0950  0.1302  0.3587
 1238loPI   C3A19473   1.613  14.192   7.204 -0.0050  0.0314 -0.1833
 1238loPI   C4A19474   1.497  14.106   7.575  0.2093 -0.1801  0.1516
 1238loPI   C5A19475   1.464  14.050   8.058  0.0282 -0.0551 -0.1479
 1238loPI   C6A19476   1.518  13.795   8.427 -0.0577  0.0275  0.0364
 1238loPI   C1B19477   1.276  13.818   6.452 -0.1740  0.2873  0.0376
 1238loPI   C2B19478   1.166  13.742   6.928  0.0299  0.1671  0.0795
 1238loPI   C3B19479   1.168  13.717   7.329 -0.0470  0.2054  0.0177
 1238loPI   C4B19480   1.103  13.705   7.754 -0.2234 -0.1474 -0.0316
 1239loPI    C119481   5.464   8.857   6.070 -0.2418  0.0781 -0.1091
 1239loPI    C219482   5.787   8.939   5.847 -0.1105  0.1747  0.1135
 1239loPI    C319483   5.459   8.786   5.676  0.0961 -0.0427 -0.0946
 1239loPI   PO419484   5.507   9.062   6.241  0.2932  0.1076  0.1516
 1239loPI   GL119485   5.297   9.140   6.665  0.0557 -0.0574 -0.1920
 1239loPI   GL219486   5.086   8.886   6.742 -0.0640  0.0680  0.0813
 1239loPI   C1A19487   5.478   9.256   6.962 -0.1219 -0.0356  0.2768
 1239loPI   C2A19488   5.435   9.187   7.431  0.0399 -0.1484 -0.0091
 1239loPI   C3A19489   5.522   9.150   7.888  0.1519  0.0525  0.2110
 1239loPI   C4A19490   5.572   9.243   8.329  0.1597  0.2988 -0.3151
 1239loPI   C5A19491   5.675   9.437   8.695  0.0699  0.1257  0.3198
 1239loPI   C6A19492   5.759   9.746   8.936  0.0541  0.2542  0.1301
 1239loPI   C1B19493   5.117   8.835   7.160 -0.0661  0.0125  0.1124
 1239loPI   C2B19494   5.080   8.802   7.648  0.1526  0.0945  0.4046
 1239loPI   C3B19495   5.127   8.797   8.030 -0.2879  0.3377  0.0034
 1239loPI   C4B19496   5.059   8.819   8.480 -0.0616  0.2915 -0.1204
 1240loPI    C119497   2.343   8.340   5.850 -0.1856  0.1226 -0.0020
 1240loPI    C219498   2.091   8.032   5.821  0.1456 -0.1486 -0.0679
 1240loPI    C319499   2.073   8.330   5.555 -0.2725 -0.0319  0.0818
 1240loPI   PO419500   2.362   8.416   6.120 -0.2568  0.2067 -0.0733
 1240loPI   GL119501   2.265   8.258   6.438  0.2651 -0.0763 -0.0914
 1240loPI   GL219502   2.496   8.150   6.613  0.1473 -0.0114  0.0774
 1240loPI   C1A19503   2.062   8.355   6.910  0.3358 -0.1849  0.3901
 1240loPI   C2A19504   2.093   8.369   7.405  0.0125  0.2154 -0.1438
 1240loPI   C3A19505   1.986   8.306   7.801  0.1211 -0.0584 -0.2197
 1240loPI   C4A19506   2.030   8.322   8.159  0.2853 -0.1060 -0.0451
 1240loPI   C5A19507   2.122   8.621   8.506 -0.0490 -0.1903 -0.0093
 1240loPI   C6A19508   2.069   8.918   8.784 -0.0147  0.1034  0.0409
 1240loPI   C1B19509   2.483   8.139   7.009  0.0536 -0.1395 -0.0199
 1240loPI   C2B19510   2.569   8.196   7.402 -0.2066 -0.1656  0.0659
 1240loPI   C3B19511   2.539   8.226   7.883 -0.0711  0.0142  0.0099
 1240loPI   C4B19512   2.579   8.257   8.284 -0.0790  0.0883  0.1265
 1241loPI    C119513   4.554   9.199   5.753 -0.2765 -0.0432 -0.1339
 1241loPI    C219514   4.723   9.550   5.661 -0.2390  0.0175  0.1542
 1241loPI    C319515   4.333   9.492   5.594 -0.2444  0.1119  0.1012
 1241loPI   PO419516   4.582   9.092   6.121 -0.0775 -0.2150  0.1611
 1241loPI   GL119517   4.652   9.124   6.610 -0.0653 -0.0942 -0.2172
 1241loPI   GL219518   4.488   9.463   6.631 -0.1642 -0.0446  0.1888
 1241loPI   C1A19519   4.654   8.928   7.047  0.2896 -0.3253  0.1367
 1241loPI   C2A19520   4.621   8.977   7.443  0.0258  0.0878 -0.0453
 1241loPI   C3A19521   4.689   8.987   7.811 -0.2254  0.0307 -0.1308
 1241loPI   C4A19522   4.654   8.966   8.247  0.1500  0.0657  0.1448
 1241loPI   C5A19523   4.672   9.092   8.650 -0.1840  0.0178  0.1481
 1241loPI   C6A19524   4.394   9.390   8.907  0.1315 -0.1434 -0.1238
 1241loPI   C1B19525   4.459   9.418   7.098 -0.0736  0.0185 -0.0074
 1241loPI   C2B19526   4.466   9.429   7.509 -0.0901  0.2512  0.1477
 1241loPI   C3B19527   4.519   9.455   7.914 -0.0341  0.0872  0.0501
 1241loPI   C4B19528   4.503   9.470   8.350 -0.1097 -0.0148 -0.0837
 1242loPI    C119529  10.685   8.088   5.869  0.1278 -0.0165  0.0622
 1242loPI    C219530  10.592   7.830   5.578 -0.0958 -0.0139  0.1291
 1242loPI    C319531  10.928   8.046   5.554 -0.1255  0.0053 -0.1397
 1242loPI   PO419532  10.662   7.938   6.075  0.1780 -0.3055  0.1428
 1242loPI   GL119533  10.775   7.810   6.425  0.1045  0.0936  0.0157
 1242loPI   GL219534  10.813   7.515   6.409  0.1522  0.1501  0.0494
 1242loPI   C1A19535  10.838   7.788   6.833 -0.2445  0.2676  0.0412
 1242loPI   C2A19536  10.969   7.683   7.186  0.1118 -0.3336 -0.0685
 1242loPI   C3A19537  11.012   7.842   7.628  0.0694 -0.2270  0.5773
 1242loPI   C4A19538  10.916   7.955   7.966  0.2898  0.0469 -0.0934
 1242loPI   C5A19539  10.882   8.031   8.343 -0.1017  0.1273  0.0017
 1242loPI   C6A19540  10.624   7.859   8.643  0.1749 -0.0655 -0.4152
 1242loPI   C1B19541  10.543   7.378   6.790  0.0450 -0.2416  0.1767
 1242loPI   C2B19542  10.518   7.428   7.296 -0.0208 -0.2180  0.3263
 1242loPI   C3B19543  10.564   7.537   7.732 -0.4749 -0.2238  0.1220
 1242loPI   C4B19544  10.583   7.537   8.160  0.0185  0.1035 -0.0446
 1243loPI    C119545   8.016   4.444   5.890  0.0207  0.2229 -0.1036
 1243loPI    C219546   8.229   4.334   5.571 -0.0340 -0.2151  0.0043
 1243loPI    C319547   7.831   4.296   5.568 -0.1040  0.4195 -0.1242
 1243loPI   PO419548   8.119   4.508   6.093 -0.0100  0.1293  0.1285
 1243loPI   GL119549   8.446   4.521   6.329 -0.1168  0.1083 -0.2368
 1243loPI   GL219550   8.584   4.711   6.515  0.1181 -0.1044  0.0123
 1243loPI   C1A19551   8.303   4.390   6.768 -0.0250  0.2387 -0.0831
 1243loPI   C2A19552   8.133   4.298   7.130  0.1946 -0.0188  0.1416
 1243loPI   C3A19553   8.117   4.263   7.538  0.0938 -0.1182 -0.2128
 1243loPI   C4A19554   8.226   4.284   8.032 -0.0024 -0.1439  0.1140
 1243loPI   C5A19555   8.234   4.431   8.284  0.0398  0.1047 -0.1537
 1243loPI   C6A19556   8.247   4.693   8.584  0.0857  0.3000  0.0057
 1243loPI   C1B19557   8.558   4.761   6.910  0.0801  0.0918  0.2146
 1243loPI   C2B19558   8.648   4.640   7.309 -0.0503  0.0620 -0.2005
 1243loPI   C3B19559   8.609   4.657   7.764 -0.3166  0.0760  0.0514
 1243loPI   C4B19560   8.515   4.831   8.195 -0.1902 -0.0720 -0.2848
 1244loPI    C119561  10.316   7.606   5.942 -0.1387  0.0302  0.1235
 1244loPI    C219562  10.096   7.276   5.888  0.0034 -0.0311 -0.0926
 1244loPI    C319563  10.359   7.390   5.609  0.1402  0.1238  0.0959
 1244loPI   PO419564  10.366   7.539   6.235 -0.0091 -0.0302  0.1352
 1244loPI   GL119565  10.284   7.720   6.647 -0.0631 -0.2297 -0.0094
 1244loPI   GL219566  10.019   7.456   6.777 -0.3513 -0.1844 -0.1648
 1244loPI   C1A19567  10.331   7.949   7.004  0.0890  0.0254 -0.0960
 1244loPI   C2A19568  10.375   7.912   7.433  0.4070 -0.2377  0.0057
 1244loPI   C3A19569  10.392   7.967   7.865 -0.1998  0.2245 -0.0111
 1244loPI   C4A19570  10.426   8.221   8.276 -0.4198 -0.1518  0.1627
 1244loPI   C5A19571  10.235   8.264   8.649 -0.0958  0.0270 -0.0788
 1244loPI   C6A19572  10.134   8.336   9.048 -0.1196  0.3045 -0.0353
 1244loPI   C1B19573  10.031   7.562   7.176 -0.4973 -0.0358  0.2662
 1244loPI   C2B19574  10.045   7.527   7.620  0.0574 -0.1327  0.1373
 1244loPI   C3B19575  10.117   7.604   8.024  0.1420 -0.0242  0.0478
 1244loPI   C4B19576  10.166   7.763   8.402  0.0792 -0.1391  0.1054
 1245loPI    C119577   7.309   5.359   5.727 -0.0721 -0.0894  0.2520
 1245loPI    C219578   7.288   5.757   5.694  0.1195 -0.1125 -0.2463
 1245loPI    C319579   6.958   5.535   5.651  0.0146 -0.0130  0.0197
 1245loPI   PO419580   7.365   5.308   5.987  0.0521  0.0184 -0.0907
 1245loPI   GL119581   7.491   5.132   6.299 -0.2717 -0.3501  0.0179
 1245loPI   GL219582   7.397   5.443   6.492  0.0518 -0.0580  0.0005
 1245loPI   C1A19583   7.614   4.998   6.731  0.0483  0.0071 -0.0283
 1245loPI   C2A19584   7.649   4.990   7.153 -0.0238  0.1812 -0.1656
 1245loPI   C3A19585   7.498   5.303   7.520  0.1972 -0.1032  0.0370
 1245loPI   C4A19586   7.150   5.514   7.650  0.0608 -0.1956 -0.0057
 1245loPI   C5A19587   6.908   5.683   7.483 -0.1031  0.2456  0.0933
 1245loPI   C6A19588   6.755   5.646   7.085  0.0460  0.1136  0.2685
 1245loPI   C1B19589   7.435   5.430   6.893  0.1535 -0.0922  0.1210
 1245loPI   C2B19590   7.315   5.676   7.198 -0.1819 -0.3930  0.1849
 1245loPI   C3B19591   7.226   6.004   7.570 -0.1201 -0.2924  0.1392
 1245loPI   C4B19592   7.172   6.023   7.950  0.0238 -0.0910 -0.1405
 1246loPI    C119593   3.949  13.693   5.685  0.2373 -0.0708 -0.1257
 1246loPI    C219594   3.695  13.530   5.423 -0.0901  0.2109  0.0082
 1246loPI    C319595   3.788  13.918   5.396  0.1407  0.1637  0.1059
 1246loPI   PO419596   3.794  13.696   5.910 -0.2841 -0.1710  0.0065
 1246loPI   GL119597   3.813  13.975   6.291 -0.2375  0.0813 -0.1935
 1246loPI   GL219598   3.679  14.233   6.333 -0.2486  0.0187  0.0165
 1246loPI   C1A19599   3.672  13.838   6.651 -0.3223 -0.2556 -0.0467
 1246loPI   C2A19600   3.690  13.837   6.987  0.2105  0.1824 -0.0385
 1246loPI   C3A19601   3.768  13.781   7.424  0.3164  0.0316 -0.0304
 1246loPI   C4A19602   3.723  13.822   7.899 -0.1208 -0.0197  0.3871
 1246loPI   C5A19603   3.767  13.867   8.312  0.4329 -0.1883  0.0096
 1246loPI   C6A19604   3.805  14.311   8.599  0.0676 -0.1059 -0.1116
 1246loPI   C1B19605   3.494  14.287   6.786  0.4228  0.1572  0.1389
 1246loPI   C2B19606   3.549  14.264   7.180  0.0027 -0.0586  0.1065
 1246loPI   C3B19607   3.482  14.261   7.646 -0.0409  0.2188  0.0601
 1246loPI   C4B19608   3.570  14.289   8.167  0.3233 -0.2704  0.0298
 1247loPI    C119609   1.586   1.458   5.317  0.1727 -0.0049 -0.1644
 1247loPI    C219610   1.264   1.230   5.247  0.2149 -0.0786 -0.1203
 1247loPI    C319611   1.346   1.540   5.007  0.0305  0.0289 -0.0466
 1247loPI   PO419612   1.589   1.322   5.594  0.1172 -0.2596 -0.0205
 1247loPI   GL119613   1.346   1.500   5.979  0.3309 -0.1307  0.0197
 1247loPI   GL219614   1.290   1.783   6.060  0.2187 -0.4063  0.2373
 1247loPI   C1A19615   1.110   1.452   6.368 -0.0638 -0.1816 -0.0828
 1247loPI   C2A19616   1.130   1.392   6.853 -0.0619 -0.2456  0.0657
 1247loPI   C3A19617   1.069   1.380   7.261  0.0982  0.1506  0.1585
 1247loPI   C4A19618   1.155   1.458   7.650  0.0704  0.3641  0.1183
 1247loPI   C5A19619   1.029   1.388   8.052 -0.1183  0.1142  0.0019
 1247loPI   C6A19620   0.924   1.305   8.426 -0.1404 -0.2233  0.1268
 1247loPI   C1B19621   1.428   1.814   6.451  0.2355  0.0297  0.2851
 1247loPI   C2B19622   1.499   1.784   6.950 -0.2848  0.0173 -0.0761
 1247loPI   C3B19623   1.455   1.775   7.331  0.2730  0.4032  0.2013
 1247loPI   C4B19624   1.470   1.805   7.750  0.0394 -0.1323  0.0449
 1248loPI    C119625  10.305   8.914   5.660 -0.0446 -0.0537  0.0408
 1248loPI    C219626   9.947   8.739   5.690  0.0045 -0.1135  0.2981
 1248loPI    C319627  10.225   8.585   5.447 -0.1817  0.0003  0.0078
 1248loPI   PO419628  10.368   8.940   5.970 -0.1034 -0.0158  0.2124
 1248loPI   GL119629  10.515   8.871   6.442  0.1762 -0.1363 -0.1222
 1248loPI   GL219630  10.198   8.866   6.594 -0.1498  0.0999 -0.0880
 1248loPI   C1A19631  10.647   8.893   6.855 -0.0661  0.1375 -0.2083
 1248loPI   C2A19632  10.666   8.738   7.221 -0.4858 -0.1092  0.0841
 1248loPI   C3A19633  10.676   8.832   7.659  0.0460 -0.3770  0.0158
 1248loPI   C4A19634  10.646   8.880   8.095  0.4334 -0.0675 -0.0262
 1248loPI   C5A19635  10.705   9.126   8.523 -0.2660 -0.0754  0.5022
 1248loPI   C6A19636  10.972   9.358   8.752 -0.2504 -0.1153  0.1440
 1248loPI   C1B19637  10.193   8.922   7.039  0.1679 -0.0677  0.1402
 1248loPI   C2B19638  10.238   8.867   7.489  0.0042 -0.0780  0.4485
 1248loPI   C3B19639  10.195   8.982   7.877 -0.0051  0.2527  0.0951
 1248loPI   C4B19640  10.154   9.078   8.272 -0.0550  0.1396 -0.3736
 1249loPI    C119641   3.910   5.770   5.552 -0.2984 -0.0784  0.2203
 1249loPI    C219642   3.648   6.068   5.500  0.0178  0.1911  0.1365
 1249loPI    C319643   3.705   5.800   5.209  0.0332  0.2911  0.0469
 1249loPI   PO419644   3.890   5.709   5.823 -0.2217  0.0288 -0.0576
 1249loPI   GL119645   3.931   5.755   6.176 -0.1719 -0.1390 -0.0768
 1249loPI   GL219646   4.280   5.607   6.344  0.2418  0.0289 -0.0935
 1249loPI   C1A19647   3.937   5.971   6.535  0.0992  0.3217  0.1665
 1249loPI   C2A19648   4.095   5.778   6.950  0.1127  0.1223 -0.0337
 1249loPI   C3A19649   4.002   5.744   7.326  0.0161 -0.0004 -0.1651
 1249loPI   C4A19650   4.016   5.866   7.675  0.1556  0.3393 -0.1794
 1249loPI   C5A19651   4.136   5.858   8.065  0.0216 -0.0018 -0.1065
 1249loPI   C6A19652   4.114   5.815   8.591  0.1534  0.2668 -0.1584
 1249loPI   C1B19653   4.154   5.333   6.734 -0.0734 -0.1760  0.0263
 1249loPI   C2B19654   4.152   5.239   7.197 -0.0992  0.1920  0.1275
 1249loPI   C3B19655   4.198   5.290   7.603  0.1221 -0.2369 -0.0454
 1249loPI   C4B19656   4.195   5.360   8.019  0.0027 -0.0695  0.0672
 1250loPI    C119657   9.935  10.754   5.798 -0.2402 -0.1425 -0.1787
 1250loPI    C219658   9.670  11.051   5.840 -0.0818 -0.0067 -0.1281
 1250loPI    C319659   9.937  11.062   5.543 -0.0617 -0.0886 -0.1135
 1250loPI   PO419660   9.975  10.750   6.079 -0.2038 -0.2024  0.0300
 1250loPI   GL119661   9.973  10.813   6.427 -0.0163  0.1707  0.1099
 1250loPI   GL219662   9.684  10.872   6.558 -0.0437 -0.2309 -0.1464
 1250loPI   C1A19663  10.097  10.751   6.870 -0.1046  0.0914  0.0981
 1250loPI   C2A19664  10.036  10.818   7.324  0.1313 -0.0672 -0.1728
 1250loPI   C3A19665  10.040  10.882   7.784 -0.1368  0.1262  0.1646
 1250loPI   C4A19666  10.056  10.811   8.314 -0.0009  0.0436 -0.0080
 1250loPI   C5A19667   9.937  10.836   8.732 -0.3072  0.2457  0.0356
 1250loPI   C6A19668   9.613  10.896   8.941  0.1506  0.1673 -0.1282
 1250loPI   C1B19669   9.583  10.971   7.036  0.1699 -0.1997 -0.1728
 1250loPI   C2B19670   9.545  11.014   7.515  0.0312 -0.2094 -0.1087
 1250loPI   C3B19671   9.558  11.028   7.953 -0.1436 -0.0361 -0.1272
 1250loPI   C4B19672   9.773  11.231   8.331  0.2510  0.2174 -0.1402
 1251loPI    C119673   4.119  11.287   5.931  0.0490  0.1021  0.1385
 1251loPI    C219674   4.211  11.648   5.784  0.0717  0.1071  0.1647
 1251loPI    C319675   4.290  11.319   5.571 -0.2068  0.1324  0.0176
 1251loPI   PO419676   3.890  11.329   6.031 -0.2582 -0.1957  0.0804
 1251loPI   GL119677   3.904  11.422   6.453  0.0037  0.1650  0.0086
 1251loPI   GL219678   3.520  11.570   6.534  0.0144 -0.1054 -0.0392
 1251loPI   C1A19679   3.981  11.533   6.825 -0.2063  0.2391 -0.1280
 1251loPI   C2A19680   3.962  11.430   7.257  0.1403  0.1846  0.0568
 1251loPI   C3A19681   3.907  11.429   7.646  0.0194  0.1205 -0.1003
 1251loPI   C4A19682   3.973  11.501   8.176  0.1511 -0.0573  0.0586
 1251loPI   C5A19683   4.203  11.464   8.574 -0.0951 -0.1083 -0.0716
 1251loPI   C6A19684   4.577  11.191   8.652  0.2345  0.0787 -0.2176
 1251loPI   C1B19685   3.468  11.559   6.965 -0.2153  0.1262 -0.1411
 1251loPI   C2B19686   3.490  11.566   7.436  0.2004  0.0171 -0.1067
 1251loPI   C3B19687   3.506  11.629   7.929  0.0016  0.2179  0.0537
 1251loPI   C4B19688   3.477  11.574   8.272  0.1624  0.1430  0.0798
 1252loPI    C119689   7.842   7.043   6.120 -0.1316 -0.0739 -0.0277
 1252loPI    C219690   7.941   7.289   5.821 -0.0356  0.1425  0.1782
 1252loPI    C319691   7.891   6.898   5.751  0.2514  0.1462 -0.0687
 1252loPI   PO419692   7.986   7.049   6.370  0.0572  0.0369  0.1803
 1252loPI   GL119693   8.089   7.107   6.788 -0.2565 -0.0182  0.0215
 1252loPI   GL219694   7.797   7.190   6.809  0.0196 -0.0083 -0.0630
 1252loPI   C1A19695   8.345   6.979   7.150  0.0126 -0.2976  0.1534
 1252loPI   C2A19696   8.297   7.040   7.517  0.0958 -0.1231 -0.0493
 1252loPI   C3A19697   8.320   7.035   7.955 -0.2708 -0.0588 -0.3249
 1252loPI   C4A19698   8.305   6.882   8.490 -0.1943 -0.3777  0.0571
 1252loPI   C5A19699   8.093   6.753   8.749  0.0431  0.1428  0.3244
 1252loPI   C6A19700   8.168   6.595   9.145 -0.0288 -0.0498  0.1827
 1252loPI   C1B19701   7.829   7.171   7.222  0.0839  0.2975  0.2268
 1252loPI   C2B19702   7.832   7.123   7.540 -0.3610 -0.2972  0.2079
 1252loPI   C3B19703   7.825   7.109   7.978  0.1243  0.3458  0.4138
 1252loPI   C4B19704   7.912   7.230   8.391 -0.1324 -0.0836 -0.1239
 1253loPI    C119705   4.222   3.056   5.717 -0.0162  0.0661 -0.1095
 1253loPI    C219706   4.308   2.710   5.535 -0.1978  0.0147 -0.0992
 1253loPI    C319707   4.585   2.997   5.558 -0.0771 -0.0927 -0.1928
 1253loPI   PO419708   4.198   3.030   5.947 -0.0796  0.1553 -0.1608
 1253loPI   GL119709   4.347   2.970   6.369 -0.2928 -0.0796  0.1545
 1253loPI   GL219710   4.103   2.710   6.349  0.2008  0.0270 -0.0708
 1253loPI   C1A19711   4.418   2.916   6.816 -0.0305 -0.3749  0.0078
 1253loPI   C2A19712   4.389   2.935   7.168 -0.3074  0.3621 -0.0148
 1253loPI   C3A19713   4.425   3.027   7.573  0.2124  0.2680 -0.0075
 1253loPI   C4A19714   4.242   2.992   7.950 -0.2963  0.0796  0.2283
 1253loPI   C5A19715   4.357   2.917   8.381  0.2382 -0.2236  0.1116
 1253loPI   C6A19716   4.487   2.658   8.614 -0.0518  0.3390 -0.1367
 1253loPI   C1B19717   4.084   2.602   6.663 -0.1999  0.0910 -0.0311
 1253loPI   C2B19718   4.057   2.575   7.100  0.3084  0.1133  0.3010
 1253loPI   C3B19719   4.019   2.642   7.529 -0.1024  0.0067  0.0702
 1253loPI   C4B19720   3.988   2.526   7.913  0.3406  0.1083  0.1714
 1254loPI    C119721   8.280   5.331   5.695  0.1460  0.1272 -0.0222
 1254loPI    C219722   8.187   5.517   5.354 -0.0392  0.1329  0.0305
 1254loPI    C319723   8.188   5.118   5.370 -0.1061  0.1332  0.0437
 1254loPI   PO419724   8.238   5.459   5.882  0.0227  0.0590 -0.1601
 1254loPI   GL119725   8.338   5.488   6.253  0.1683  0.2071 -0.1270
 1254loPI   GL219726   8.294   5.691   6.391 -0.0726  0.0056 -0.0486
 1254loPI   C1A19727   8.467   5.161   6.602  0.2740  0.3646  0.0636
 1254loPI   C2A19728   8.492   5.218   7.122  0.0550  0.0965  0.2028
 1254loPI   C3A19729   8.458   5.189   7.545  0.1151  0.3378 -0.2195
 1254loPI   C4A19730   8.523   5.281   8.005 -0.0042  0.0201  0.0586
 1254loPI   C5A19731   8.600   5.248   8.467 -0.2147 -0.0484 -0.2082
 1254loPI   C6A19732   8.471   5.422   8.967  0.1119 -0.0618  0.1818
 1254loPI   C1B19733   8.308   5.718   6.820  0.1594  0.1043  0.0458
 1254loPI   C2B19734   8.279   5.657   7.251  0.0299  0.2936  0.1915
 1254loPI   C3B19735   8.348   5.627   7.681 -0.0288 -0.1738 -0.0362
 1254loPI   C4B19736   8.435   5.753   8.096 -0.0413 -0.0255  0.2901
 1255loPI    C119737  13.492   4.750   5.574 -0.0392  0.0762  0.1426
 1255loPI    C219738  13.780   4.955   5.388 -0.2366  0.0675 -0.1814
 1255loPI    C319739  13.436   5.136   5.483 -0.2273  0.0094 -0.0348
 1255loPI   PO419740  13.677   4.595   5.807  0.1297  0.0179 -0.0069
 1255loPI   GL119741  13.704   4.430   6.287 -0.0022 -0.1065 -0.2793
 1255loPI   GL219742  13.775   4.132   6.372 -0.0189  0.3574  0.0842
 1255loPI   C1A19743  13.570   4.732   6.561 -0.1660 -0.2978  0.0272
 1255loPI   C2A19744  13.550   4.764   6.943  0.0356  0.1741  0.3077
 1255loPI   C3A19745  13.734   4.823   7.405 -0.0442 -0.0786 -0.1256
 1255loPI   C4A19746  13.684   4.789   7.758 -0.0216 -0.1524 -0.1200
 1255loPI   C5A19747  13.667   4.762   8.218 -0.1819  0.1916  0.3826
 1255loPI   C6A19748  13.372   4.415   8.437  0.1362  0.1096 -0.1935
 1255loPI   C1B19749  13.796   4.354   6.747  0.1842  0.0063 -0.0014
 1255loPI   C2B19750  13.892   4.399   7.226 -0.1183 -0.2578 -0.0684
 1255loPI   C3B19751  13.750   4.310   7.630  0.2404  0.0675 -0.1007
 1255loPI   C4B19752  13.830   4.290   8.064  0.2884  0.1321 -0.2424
 1256loPI    C119753   5.150  16.632   5.808  0.0698  0.2674  0.0458
 1256loPI    C219754   5.542  16.708   5.790  0.0314  0.4092 -0.2516
 1256loPI    C319755   5.322  16.715   5.457 -0.1538 -0.0610 -0.1470
 1256loPI   PO419756   5.077  16.415   5.913 -0.1806 -0.1386 -0.0505
 1256loPI   GL119757   5.101  16.523   6.297 -0.3689  0.2307  0.0353
 1256loPI   GL219758   5.188  16.231   6.423  0.0996  0.1687  0.1089
 1256loPI   C1A19759   5.144  16.584   6.750 -0.2823 -0.0036  0.2336
 1256loPI   C2A19760   5.121  16.620   7.198  0.2452  0.0047  0.0516
 1256loPI   C3A19761   5.195  16.554   7.635 -0.5501 -0.2157  0.2270
 1256loPI   C4A19762   5.038  16.647   7.940 -0.2943 -0.0978  0.2141
 1256loPI   C5A19763   5.224  16.683   8.417 -0.1088  0.0793  0.2361
 1256loPI   C6A19764   5.528  17.017   8.498 -0.2403 -0.0640  0.2085
 1256loPI   C1B19765   5.290  16.099   6.880  0.2263  0.4233 -0.0525
 1256loPI   C2B19766   5.331  16.179   7.274  0.0566 -0.0784 -0.1727
 1256loPI   C3B19767   5.392  16.122   7.709 -0.0034 -0.0083 -0.2681
 1256loPI   C4B19768   5.192  16.212   8.154  0.1943 -0.0694  0.1259
 1257loPI    C119769   3.220   9.871   5.709 -0.0448 -0.0527 -0.0071
 1257loPI    C219770   3.361  10.220   5.575  0.2332 -0.1090  0.1291
 1257loPI    C319771   3.462   9.880   5.390 -0.0864 -0.1158 -0.0406
 1257loPI   PO419772   3.195   9.848   6.027 -0.2514  0.1631 -0.2665
 1257loPI   GL119773   3.052   9.765   6.336 -0.3646 -0.1644 -0.2129
 1257loPI   GL219774   2.684   9.621   6.386  0.2361  0.2879  0.3413
 1257loPI   C1A19775   3.092   9.855   6.703 -0.0556 -0.1349  0.1360
 1257loPI   C2A19776   3.022   9.876   7.231  0.0334  0.2235  0.2509
 1257loPI   C3A19777   3.028   9.864   7.674 -0.1474  0.1872  0.1943
 1257loPI   C4A19778   3.040   9.900   8.157 -0.1310 -0.4216 -0.4065
 1257loPI   C5A19779   2.911   9.830   8.504 -0.0973  0.1472 -0.3234
 1257loPI   C6A19780   2.679  10.044   8.803  0.0570  0.0048  0.2543
 1257loPI   C1B19781   2.655   9.570   6.778 -0.0388  0.2194 -0.0841
 1257loPI   C2B19782   2.705   9.517   7.320 -0.0202  0.1095  0.0293
 1257loPI   C3B19783   2.582   9.530   7.638  0.0007 -0.2493 -0.1352
 1257loPI   C4B19784   2.660   9.605   8.064 -0.0021  0.0641  0.0254
 1258loPI    C119785  13.709   6.819   5.777  0.0145  0.0176  0.0389
 1258loPI    C219786  13.967   7.047   5.573 -0.1657  0.0250 -0.1848
 1258loPI    C319787  14.082   6.691   5.715  0.0222  0.1127 -0.1148
 1258loPI   PO419788  13.651   6.907   5.922  0.1797  0.3974 -0.2212
 1258loPI   GL119789  13.611   7.126   6.224  0.2024 -0.3318  0.3767
 1258loPI   GL219790  13.867   6.954   6.420  0.1900 -0.2108 -0.0801
 1258loPI   C1A19791  13.476   7.108   6.654 -0.1191  0.0301  0.2753
 1258loPI   C2A19792  13.468   7.073   7.112 -0.0587  0.0469  0.0412
 1258loPI   C3A19793  13.459   7.126   7.611 -0.0188 -0.2452  0.3157
 1258loPI   C4A19794  13.555   7.149   8.059  0.0235  0.0084 -0.2040
 1258loPI   C5A19795  13.393   7.233   8.555  0.1681  0.1250  0.3113
 1258loPI   C6A19796  13.268   7.369   8.997  0.0074  0.1796  0.0198
 1258loPI   C1B19797  13.900   6.886   6.857 -0.1699  0.4004 -0.1226
 1258loPI   C2B19798  13.906   6.927   7.342 -0.2204 -0.2457  0.2183
 1258loPI   C3B19799  14.004   7.069   7.717  0.3389 -0.1317  0.0302
 1258loPI   C4B19800  14.067   7.030   8.192 -0.1800  0.1158  0.0187
 1259loPI    C119801   3.132   5.988   5.415  0.1765  0.1868 -0.0966
 1259loPI    C219802   2.849   6.112   5.162 -0.0062  0.1835  0.1028
 1259loPI    C319803   3.208   6.288   5.161 -0.0934  0.3645  0.0271
 1259loPI   PO419804   2.993   6.133   5.674 -0.0043 -0.0542  0.1853
 1259loPI   GL119805   3.068   6.201   6.093  0.1647 -0.1048  0.1006
 1259loPI   GL219806   3.113   5.874   6.230  0.0216  0.0176 -0.0250
 1259loPI   C1A19807   3.038   6.231   6.593  0.2435  0.1702  0.1929
 1259loPI   C2A19808   3.043   6.136   6.925 -0.0253  0.0840 -0.2181
 1259loPI   C3A19809   3.037   6.089   7.328 -0.0202  0.0354 -0.2521
 1259loPI   C4A19810   3.042   6.135   7.763  0.2685  0.3236 -0.2283
 1259loPI   C5A19811   3.002   6.013   8.155  0.1401 -0.0185  0.1214
 1259loPI   C6A19812   2.774   5.852   8.521  0.1751  0.2009  0.0441
 1259loPI   C1B19813   3.250   5.679   6.621  0.0109 -0.0625  0.1220
 1259loPI   C2B19814   3.084   5.632   6.982 -0.4523 -0.1533 -0.2488
 1259loPI   C3B19815   3.060   5.597   7.415  0.0987 -0.0360 -0.0673
 1259loPI   C4B19816   3.213   5.560   7.794  0.0039  0.0411  0.1898
 1260loPI    C119817  15.352  13.371   5.930 -0.1612  0.0467  0.0017
 1260loPI    C219818  15.424  13.421   5.539  0.0992  0.1444  0.0599
 1260loPI    C319819  15.255  13.083   5.670  0.2142  0.0180 -0.1134
 1260loPI   PO419820  15.294  13.582   5.987 -0.3482  0.1709 -0.3066
 1260loPI   GL119821  15.649  13.668   6.177 -0.2062  0.0737  0.0880
 1260loPI   GL219822  15.942  13.663   6.213  0.1096  0.0342 -0.2031
 1260loPI   C1A19823  15.406  13.736   6.646  0.0569 -0.2616  0.0738
 1260loPI   C2A19824  15.426  13.640   7.043  0.1608  0.3052  0.2962
 1260loPI   C3A19825  15.419  13.658   7.427  0.1405  0.1293  0.2150
 1260loPI   C4A19826  15.412  13.675   7.815  0.1813 -0.0092  0.1163
 1260loPI   C5A19827  15.492  13.558   8.150 -0.2817  0.0510 -0.0887
 1260loPI   C6A19828  15.327  13.653   8.538 -0.0597 -0.0907 -0.2069
 1260loPI   C1B19829  15.896  13.602   6.691  0.2664  0.1974 -0.1224
 1260loPI   C2B19830  16.021  13.615   7.100 -0.3440  0.1788 -0.3191
 1260loPI   C3B19831  15.881  13.554   7.501  0.2945 -0.1157 -0.0929
 1260loPI   C4B19832  15.941  13.532   7.929 -0.1055  0.0721  0.2718
 1261loPI    C119833  10.630   3.895   5.956  0.0998  0.0930 -0.1829
 1261loPI    C219834  10.357   3.957   5.671  0.1065  0.2487 -0.1565
 1261loPI    C319835  10.719   3.818   5.574 -0.0368 -0.1261 -0.1725
 1261loPI   PO419836  10.450   3.869   6.139 -0.2210 -0.1094  0.1224
 1261loPI   GL119837  10.422   3.719   6.516  0.1846  0.0374  0.0885
 1261loPI   GL219838  10.257   3.800   6.772  0.0475  0.0261  0.2543
 1261loPI   C1A19839  10.728   3.657   6.888 -0.0405 -0.1250  0.4020
 1261loPI   C2A19840  10.748   3.779   7.422 -0.0085  0.1600  0.0858
 1261loPI   C3A19841  10.725   3.835   7.834 -0.2178  0.0912  0.0941
 1261loPI   C4A19842  10.876   3.921   8.224  0.0788 -0.2218  0.1967
 1261loPI   C5A19843  10.747   3.969   8.691  0.0968  0.2935  0.0112
 1261loPI   C6A19844  10.969   4.270   8.992  0.5931  0.1039 -0.1568
 1261loPI   C1B19845  10.269   3.791   7.217  0.0057 -0.0070  0.1613
 1261loPI   C2B19846  10.230   3.917   7.565  0.1271  0.0911 -0.0915
 1261loPI   C3B19847  10.176   3.877   8.051  0.0846 -0.0281  0.1534
 1261loPI   C4B19848  10.332   3.877   8.450 -0.2478  0.0690 -0.3259
 1262loPI    C119849   3.440  14.993   5.738  0.1555 -0.0362 -0.1279
 1262loPI    C219850   3.721  14.854   5.489  0.0961 -0.1084 -0.1546
 1262loPI    C319851   3.412  14.621   5.594  0.0429 -0.0272 -0.1302
 1262loPI   PO419852   3.548  15.091   5.909  0.1203  0.0234 -0.0118
 1262loPI   GL119853   3.701  15.304   6.255  0.0087  0.0170 -0.2699
 1262loPI   GL219854   3.599  15.578   6.331 -0.1967 -0.2970  0.0740
 1262loPI   C1A19855   3.656  15.216   6.728 -0.1381  0.0635  0.3836
 1262loPI   C2A19856   3.790  15.143   7.174 -0.1185 -0.0253 -0.0638
 1262loPI   C3A19857   3.660  15.092   7.639  0.1097  0.0465 -0.1790
 1262loPI   C4A19858   3.811  15.064   8.076  0.3138  0.3242  0.0039
 1262loPI   C5A19859   4.000  14.802   8.334 -0.0123 -0.2080 -0.2092
 1262loPI   C6A19860   4.175  14.647   8.667  0.2224 -0.1074  0.0011
 1262loPI   C1B19861   3.446  15.667   6.688  0.1209 -0.0273  0.0272
 1262loPI   C2B19862   3.537  15.707   7.069 -0.5161 -0.0443  0.1368
 1262loPI   C3B19863   3.537  15.664   7.515 -0.1619 -0.1905 -0.1018
 1262loPI   C4B19864   3.634  15.521   7.855  0.0947 -0.1049  0.0233
 1263loPI    C119865   8.700   2.976   5.997 -0.0934 -0.1081 -0.2088
 1263loPI    C219866   8.836   3.310   5.824 -0.0016 -0.0778 -0.0798
 1263loPI    C319867   8.925   2.953   5.667 -0.1054 -0.0422 -0.2218
 1263loPI   PO419868   8.747   2.992   6.225  0.2208  0.0025 -0.5030
 1263loPI   GL119869   8.622   2.762   6.550 -0.2077  0.0304 -0.1777
 1263loPI   GL219870   8.426   2.585   6.623  0.0381  0.2891  0.1853
 1263loPI   C1A19871   8.630   2.837   6.998 -0.0442 -0.2529 -0.0128
 1263loPI   C2A19872   8.670   2.802   7.409  0.0280 -0.1811 -0.0819
 1263loPI   C3A19873   8.649   2.879   7.871  0.1549  0.1707 -0.2633
 1263loPI   C4A19874   8.703   2.864   8.328  0.0166 -0.1022  0.0127
 1263loPI   C5A19875   8.591   3.115   8.741  0.0544  0.0441 -0.1245
 1263loPI   C6A19876   8.975   3.395   8.752 -0.3914  0.0333  0.1564
 1263loPI   C1B19877   8.269   2.439   7.006 -0.1083  0.1179 -0.2008
 1263loPI   C2B19878   8.289   2.467   7.438  0.0978  0.1339 -0.0439
 1263loPI   C3B19879   8.226   2.478   7.865 -0.0616  0.0710 -0.1698
 1263loPI   C4B19880   8.343   2.430   8.309  0.2560  0.0981  0.1625
 1264loPI    C119881   8.966  10.095   5.749  0.0578 -0.1922  0.2305
 1264loPI    C219882   8.989   9.884   5.410 -0.2869 -0.1217  0.1594
 1264loPI    C319883   8.928  10.279   5.395  0.0413 -0.0623  0.2991
 1264loPI   PO419884   9.166   9.981   5.913  0.2353  0.3102  0.0080
 1264loPI   GL119885   9.373  10.027   6.224  0.3465  0.0256  0.0299
 1264loPI   GL219886   9.508  10.138   6.327  0.2771  0.2679 -0.0101
 1264loPI   C1A19887   9.358   9.929   6.717 -0.1843  0.0326  0.0855
 1264loPI   C2A19888   9.419   9.997   7.133 -0.1226  0.0472 -0.0124
 1264loPI   C3A19889   9.373  10.048   7.547 -0.0300 -0.2432  0.0077
 1264loPI   C4A19890   9.306  10.069   8.023 -0.2733 -0.1123  0.2118
 1264loPI   C5A19891   9.291  10.250   8.532  0.1217 -0.0147 -0.2211
 1264loPI   C6A19892   9.167  10.557   8.860 -0.0826 -0.4114 -0.1326
 1264loPI   C1B19893   9.751  10.332   6.724  0.3255 -0.2465 -0.0122
 1264loPI   C2B19894   9.750  10.458   7.139  0.1199  0.1437  0.3189
 1264loPI   C3B19895   9.797  10.381   7.504  0.0495 -0.1680  0.0052
 1264loPI   C4B19896   9.696  10.431   7.880  0.2375  0.2322 -0.1851
 1265loPI    C119897   6.637  15.178   5.771 -0.0020 -0.1728 -0.2799
 1265loPI    C219898   6.251  15.078   5.736 -0.0476 -0.0984 -0.0127
 1265loPI    C319899   6.532  14.864   5.548 -0.2048 -0.2604 -0.0646
 1265loPI   PO419900   6.706  15.191   6.013 -0.1438 -0.1351  0.0534
 1265loPI   GL119901   6.969  15.257   6.272 -0.1075  0.1761  0.0128
 1265loPI   GL219902   7.191  15.215   6.155 -0.2509 -0.0891  0.0163
 1265loPI   C1A19903   6.983  15.296   6.726 -0.0317  0.2114  0.1964
 1265loPI   C2A19904   6.983  15.363   7.105 -0.0618 -0.0753 -0.4218
 1265loPI   C3A19905   7.033  15.311   7.479  0.0989 -0.4408  0.1842
 1265loPI   C4A19906   7.025  15.293   7.894  0.0162 -0.1970  0.0639
 1265loPI   C5A19907   7.252  15.201   8.232  0.2429 -0.1532 -0.0262
 1265loPI   C6A19908   7.639  14.973   8.265  0.0810 -0.2548  0.1197
 1265loPI   C1B19909   7.453  15.172   6.561 -0.1348 -0.0794  0.1090
 1265loPI   C2B19910   7.445  15.191   6.954  0.0957 -0.0899  0.0200
 1265loPI   C3B19911   7.489  15.247   7.341 -0.2904 -0.1324  0.4101
 1265loPI   C4B19912   7.511  15.239   7.802  0.1376  0.0030 -0.1408
 1266loPI    C119913  15.897   5.358   5.716 -0.0020 -0.2085 -0.0496
 1266loPI    C219914  15.971   4.997   5.560  0.1673 -0.0847 -0.2606
 1266loPI    C319915  16.135   5.323   5.397 -0.1062  0.1047 -0.1645
 1266loPI   PO419916  16.071   5.408   5.959  0.6393 -0.2740  0.3622
 1266loPI   GL119917  15.938   5.622   6.260  0.3325  0.0087 -0.0626
 1266loPI   GL219918  16.166   5.870   6.234 -0.2306 -0.0853 -0.5716
 1266loPI   C1A19919  15.863   5.612   6.733  0.2224 -0.3123 -0.0027
 1266loPI   C2A19920  15.736   5.717   7.079 -0.1009 -0.1530  0.0308
 1266loPI   C3A19921  15.854   5.680   7.465 -0.0987  0.0320  0.1680
 1266loPI   C4A19922  15.682   5.720   7.930 -0.1670  0.0635 -0.0634
 1266loPI   C5A19923  15.852   5.856   8.406 -0.0237 -0.1250 -0.1094
 1266loPI   C6A19924  15.989   6.293   8.444  0.0176 -0.0079 -0.0799
 1266loPI   C1B19925  16.139   6.117   6.619 -0.0212  0.0975 -0.0505
 1266loPI   C2B19926  16.095   6.049   7.004 -0.4598 -0.2034  0.0930
 1266loPI   C3B19927  16.091   6.115   7.362  0.2400  0.0633 -0.2491
 1266loPI   C4B19928  16.053   6.083   7.848 -0.3547  0.1850 -0.0361
 1267loPI    C119929   9.395   6.639   5.873 -0.0928  0.3240  0.1267
 1267loPI    C219930   9.054   6.520   5.701 -0.0310  0.1128  0.1477
 1267loPI    C319931   9.274   6.807   5.531 -0.0267 -0.0161 -0.0676
 1267loPI   PO419932   9.376   6.615   6.092 -0.1662 -0.1397  0.0249
 1267loPI   GL119933   9.392   6.620   6.535  0.0764 -0.1640  0.3123
 1267loPI   GL219934   9.782   6.536   6.521  0.0557 -0.0150 -0.1901
 1267loPI   C1A19935   9.346   6.800   6.927 -0.0523 -0.0739 -0.1443
 1267loPI   C2A19936   9.366   6.803   7.377 -0.1144 -0.2430  0.3738
 1267loPI   C3A19937   9.383   6.728   7.882 -0.1174  0.0918  0.1069
 1267loPI   C4A19938   9.537   6.822   8.261 -0.1541 -0.2091 -0.0608
 1267loPI   C5A19939   9.647   6.983   8.660  0.0956  0.1203 -0.3309
 1267loPI   C6A19940   9.778   7.050   9.046 -0.0384  0.0404  0.0926
 1267loPI   C1B19941   9.818   6.626   7.018  0.0918 -0.1938 -0.0870
 1267loPI   C2B19942   9.887   6.643   7.424  0.0393  0.3164  0.0087
 1267loPI   C3B19943   9.859   6.701   7.756  0.2882  0.2040 -0.1247
 1267loPI   C4B19944  10.040   6.736   8.232  0.0378 -0.0246  0.1805
 1268loPI    C119945   5.848   4.822   5.638 -0.1903 -0.0219  0.1733
 1268loPI    C219946   5.747   4.614   5.311 -0.1836  0.2924 -0.0321
 1268loPI    C319947   6.132   4.696   5.385 -0.1843  0.2130  0.0611
 1268loPI   PO419948   5.793   4.748   5.803 -0.0020 -0.0674 -0.3959
 1268loPI   GL119949   5.668   4.751   6.128 -0.0060 -0.0005  0.0645
 1268loPI   GL219950   5.939   4.477   6.261 -0.0538 -0.0551  0.0966
 1268loPI   C1A19951   5.585   4.823   6.605  0.0266 -0.2462 -0.0246
 1268loPI   C2A19952   5.588   4.953   7.018  0.3209 -0.0721 -0.0105
 1268loPI   C3A19953   5.669   4.843   7.504 -0.1880 -0.0315 -0.1467
 1268loPI   C4A19954   5.672   4.969   7.940  0.2022 -0.4385  0.0139
 1268loPI   C5A19955   5.670   4.939   8.252  0.0702 -0.0911 -0.1695
 1268loPI   C6A19956   5.906   4.935   8.710  0.1371 -0.2248  0.0272
 1268loPI   C1B19957   5.825   4.388   6.700 -0.0705  0.4340  0.0656
 1268loPI   C2B19958   5.853   4.517   7.087 -0.0609 -0.2320 -0.3624
 1268loPI   C3B19959   5.910   4.341   7.536  0.1613  0.2603 -0.1389
 1268loPI   C4B19960   5.791   4.534   7.893  0.0653  0.0292 -0.1163
 1269loPI    C119961   3.255   1.171   5.306 -0.1798  0.3253 -0.1154
 1269loPI    C219962   3.502   1.051   5.015 -0.1668  0.2250 -0.0636
 1269loPI    C319963   3.191   1.287   4.929 -0.2442  0.0817 -0.1815
 1269loPI   PO419964   3.334   1.117   5.536  0.0470  0.1498  0.0447
 1269loPI   GL119965   3.126   1.024   5.939  0.2572  0.0319 -0.0514
 1269loPI   GL219966   2.841   1.125   6.084 -0.0296  0.1873 -0.3025
 1269loPI   C1A19967   3.111   0.956   6.428  0.0714  0.3098  0.1561
 1269loPI   C2A19968   3.139   0.942   6.865 -0.0058  0.1956  0.1083
 1269loPI   C3A19969   3.129   0.963   7.235 -0.1978  0.2662 -0.1297
 1269loPI   C4A19970   3.127   0.933   7.748 -0.0781 -0.4060 -0.0084
 1269loPI   C5A19971   3.032   0.875   8.128 -0.2051  0.0647 -0.0600
 1269loPI   C6A19972   3.001   0.578   8.477 -0.0876 -0.1895  0.1396
 1269loPI   C1B19973   2.613   1.033   6.527  0.3522  0.0845  0.1336
 1269loPI   C2B19974   2.650   1.069   6.904  0.1164 -0.2859  0.3321
 1269loPI   C3B19975   2.542   0.996   7.395 -0.2047 -0.1962  0.1786
 1269loPI   C4B19976   2.634   0.960   7.874 -0.1487 -0.1448 -0.0526
 1270loPI    C119977   7.679   8.293   5.848  0.1997 -0.0491 -0.1322
 1270loPI    C219978   7.574   8.442   5.492  0.1142  0.0476 -0.0672
 1270loPI    C319979   7.432   8.087   5.611  0.2589 -0.0531 -0.1907
 1270loPI   PO419980   7.618   8.480   6.067  0.2294 -0.0260 -0.0571
 1270loPI   GL119981   7.406   8.372   6.427 -0.1542 -0.0596  0.0533
 1270loPI   GL219982   7.557   8.175   6.661  0.1869  0.2552 -0.1018
 1270loPI   C1A19983   7.325   8.613   6.849  0.2168  0.0874 -0.0822
 1270loPI   C2A19984   7.531   8.633   7.245 -0.0443 -0.0932 -0.1112
 1270loPI   C3A19985   7.475   8.741   7.654 -0.1070 -0.0961  0.0520
 1270loPI   C4A19986   7.448   8.731   8.023 -0.0002  0.0585  0.1088
 1270loPI   C5A19987   7.483   8.699   8.478 -0.3999 -0.0491  0.1200
 1270loPI   C6A19988   7.360   8.795   8.796 -0.1135 -0.0746 -0.0075
 1270loPI   C1B19989   7.492   8.097   7.089  0.2259  0.0101  0.2795
 1270loPI   C2B19990   7.584   8.222   7.499 -0.2957  0.0937  0.1224
 1270loPI   C3B19991   7.585   8.162   7.980  0.0032 -0.1595  0.3080
 1270loPI   C4B19992   7.689   8.192   8.406 -0.3438 -0.1992  0.5185
 1271loPI    C119993   4.196  16.039   5.358  0.0246 -0.0609  0.0917
 1271loPI    C219994   4.578  15.974   5.257 -0.0841 -0.2860 -0.1885
 1271loPI    C319995   4.315  16.091   4.979 -0.1997 -0.0321  0.0236
 1271loPI   PO419996   4.192  15.861   5.580  0.0999 -0.1830 -0.3319
 1271loPI   GL119997   4.214  16.029   5.910  0.0493 -0.0119 -0.3302
 1271loPI   GL219998   4.132  15.654   6.091 -0.1327 -0.2331  0.0184
 1271loPI   C1A19999   4.218  16.294   6.190 -0.0524  0.2541  0.0590
 1271loPI   C2A20000   4.269  16.322   6.577  0.0512  0.0776  0.1107
 1271loPI   C3A20001   4.243  16.335   7.023  0.0981 -0.2618 -0.1315
 1271loPI   C4A20002   4.286  16.389   7.541 -0.0597  0.2172 -0.1132
 1271loPI   C5A20003   4.292  16.387   8.030 -0.1269  0.1180 -0.0415
 1271loPI   C6A20004   4.339  16.247   8.456 -0.1875  0.1533  0.2106
 1271loPI   C1B20005   4.021  15.569   6.601  0.1200  0.0028  0.2134
 1271loPI   C2B20006   4.055  15.515   7.001 -0.0701 -0.0116 -0.1731
 1271loPI   C3B20007   4.099  15.453   7.424  0.0064 -0.0625 -0.2359
 1271loPI   C4B20008   4.152  15.468   7.883  0.0353  0.1516 -0.3603
 1272loPI    C120009  17.198   0.267   5.769 -0.1551  0.1602 -0.2238
 1272loPI    C220010  17.030  -0.059   5.611 -0.1309  0.0264  0.0215
 1272loPI    C320011  16.972   0.298   5.441 -0.1599 -0.1036 -0.2476
 1272loPI   PO420012  17.144   0.205   6.100 -0.3983  0.2766  0.1250
 1272loPI   GL120013  17.216   0.155   6.453  0.0150 -0.0514  0.1544
 1272loPI   GL220014  17.149  -0.118   6.621  0.1909 -0.1713 -0.1344
 1272loPI   C1A20015  17.528   0.238   6.789  0.0044  0.5300  0.0264
 1272loPI   C2A20016  17.450   0.290   7.236 -0.2880 -0.1646 -0.0542
 1272loPI   C3A20017  17.508   0.203   7.639  0.0614 -0.1323  0.0411
 1272loPI   C4A20018  17.524   0.179   8.116  0.1093 -0.2369 -0.2618
 1272loPI   C5A20019  17.652   0.177   8.602 -0.1193 -0.0568 -0.0321
 1272loPI   C6A20020  17.845   0.051   8.988 -0.0884 -0.3863  0.0025
 1272loPI   C1B20021  17.254  -0.122   7.021  0.5031  0.2181  0.0296
 1272loPI   C2B20022  17.182  -0.133   7.450 -0.0265 -0.1773 -0.3589
 1272loPI   C3B20023  17.206  -0.125   7.889 -0.2563  0.3313  0.2854
 1272loPI   C4B20024  17.282  -0.238   8.385  0.0695 -0.1338 -0.3267
 1273loPI    C120025   5.082  12.907   5.854  0.1160  0.1773 -0.1634
 1273loPI    C220026   5.208  12.995   5.485 -0.3774  0.0014 -0.3836
 1273loPI    C320027   5.087  12.624   5.571 -0.0388 -0.0214  0.0288
 1273loPI   PO420028   5.272  13.110   6.016 -0.3828 -0.1213  0.0417
 1273loPI   GL120029   5.168  13.287   6.434  0.1837 -0.1044 -0.0607
 1273loPI   GL220030   5.502  13.367   6.403 -0.5840 -0.2179  0.3201
 1273loPI   C1A20031   5.243  13.470   6.799  0.0461  0.2268 -0.1489
 1273loPI   C2A20032   5.285  13.509   7.182  0.0363  0.0053 -0.2708
 1273loPI   C3A20033   5.265  13.480   7.598 -0.0303  0.1781 -0.1788
 1273loPI   C4A20034   5.173  13.448   8.007  0.1222  0.1762 -0.2023
 1273loPI   C5A20035   5.309  13.188   8.432  0.0745 -0.0651  0.2116
 1273loPI   C6A20036   5.453  12.959   8.703  0.0612  0.0777 -0.2782
 1273loPI   C1B20037   5.775  13.315   6.707 -0.0229  0.1995  0.0096
 1273loPI   C2B20038   5.806  13.350   7.110  0.1308  0.2902  0.0199
 1273loPI   C3B20039   5.760  13.348   7.522  0.3427  0.1168  0.3927
 1273loPI   C4B20040   5.722  13.339   7.974  0.1923 -0.2098  0.4220
 1274loPI    C120041   0.111  16.095   5.435  0.0251  0.2555  0.2226
 1274loPI    C220042  -0.122  16.232   5.140 -0.0776 -0.1969  0.0863
 1274loPI    C320043   0.245  16.381   5.191 -0.1640  0.0830 -0.0903
 1274loPI   PO420044  -0.051  16.068   5.665 -0.0541  0.1408 -0.0451
 1274loPI   GL120045  -0.102  15.907   6.069 -0.1326 -0.0038  0.0602
 1274loPI   GL220046  -0.340  15.851   6.243  0.1671  0.2365 -0.3497
 1274loPI   C1A20047   0.107  15.854   6.539 -0.0309 -0.0084  0.0912
 1274loPI   C2A20048   0.233  15.768   6.932  0.1753 -0.1583 -0.2350
 1274loPI   C3A20049   0.157  15.889   7.339  0.1115 -0.2189  0.2122
 1274loPI   C4A20050   0.163  15.956   7.840 -0.1470  0.0618 -0.2351
 1274loPI   C5A20051   0.370  15.943   8.315 -0.2373  0.0799  0.1341
 1274loPI   C6A20052   0.332  15.901   8.715  0.1292 -0.1191 -0.1081
 1274loPI   C1B20053  -0.404  15.891   6.700 -0.0950  0.0264 -0.1781
 1274loPI   C2B20054  -0.321  15.949   7.109  0.0318  0.0005 -0.1484
 1274loPI   C3B20055  -0.345  16.043   7.546 -0.0605  0.1796 -0.1171
 1274loPI   C4B20056  -0.393  16.113   7.940  0.0411  0.1103  0.3647
 1275loPI    C120057   2.046   6.229   5.822 -0.0988 -0.0032  0.1653
 1275loPI    C220058   1.770   6.007   5.636 -0.1229 -0.0208  0.2222
 1275loPI    C320059   1.968   6.289   5.434 -0.0760 -0.1090  0.1440
 1275loPI   PO420060   2.147   6.055   6.053 -0.0194  0.2360  0.1561
 1275loPI   GL120061   1.933   5.870   6.386 -0.1627  0.0350 -0.0700
 1275loPI   GL220062   1.669   6.020   6.502 -0.0787  0.1000 -0.2164
 1275loPI   C1A20063   2.159   5.822   6.746 -0.0895 -0.3175 -0.2049
 1275loPI   C2A20064   2.125   5.865   7.187  0.1962  0.0342 -0.0369
 1275loPI   C3A20065   2.178   5.983   7.580 -0.0236 -0.1220 -0.0733
 1275loPI   C4A20066   2.063   5.843   7.989  0.1303  0.2114 -0.2588
 1275loPI   C5A20067   1.893   5.920   8.465 -0.0645 -0.0577 -0.0552
 1275loPI   C6A20068   1.739   5.977   8.884 -0.0679 -0.0668 -0.1743
 1275loPI   C1B20069   1.642   5.901   6.915 -0.0043  0.3349  0.3127
 1275loPI   C2B20070   1.548   6.002   7.292  0.1267 -0.2470  0.0311
 1275loPI   C3B20071   1.631   6.107   7.651 -0.1254 -0.1678 -0.1069
 1275loPI   C4B20072   1.550   5.818   7.955 -0.1633 -0.1073 -0.3711
 1276loPI    C120073   0.518  11.679   5.324  0.0806  0.0386 -0.1835
 1276loPI    C220074   0.362  11.384   5.103 -0.0370 -0.0110 -0.0361
 1276loPI    C320075   0.143  11.707   5.189  0.1481  0.2005 -0.3405
 1276loPI   PO420076   0.662  11.569   5.493 -0.0332 -0.0280 -0.2424
 1276loPI   GL120077   0.697  11.893   5.951 -0.0749 -0.0468  0.1049
 1276loPI   GL220078   0.460  11.744   6.036  0.2712  0.0628 -0.0693
 1276loPI   C1A20079   0.629  12.058   6.402  0.0943  0.1205 -0.0295
 1276loPI   C2A20080   0.655  11.982   6.816 -0.1943 -0.0574 -0.1114
 1276loPI   C3A20081   0.669  11.967   7.315  0.0980 -0.1390 -0.2525
 1276loPI   C4A20082   0.578  12.027   7.711  0.0988 -0.0554 -0.3073
 1276loPI   C5A20083   0.464  11.901   8.104 -0.1605  0.0863 -0.1824
 1276loPI   C6A20084   0.683  12.078   8.504  0.4279  0.1292 -0.1686
 1276loPI   C1B20085   0.322  11.713   6.512 -0.0005  0.2376  0.1896
 1276loPI   C2B20086   0.307  11.676   6.894 -0.2414 -0.0806 -0.2454
 1276loPI   C3B20087   0.241  11.614   7.336 -0.1180  0.2138 -0.0722
 1276loPI   C4B20088   0.202  11.698   7.749  0.0061 -0.1951 -0.1663
 1277loPI    C120089   0.197  17.376   5.448  0.0951  0.0313 -0.3241
 1277loPI    C220090  -0.132  17.253   5.255 -0.1756  0.2410 -0.0078
 1277loPI    C320091  -0.020  17.637   5.237  0.0188  0.1830 -0.0628
 1277loPI   PO420092   0.163  17.323   5.736  0.1363 -0.0333 -0.0425
 1277loPI   GL120093   0.154  17.460   6.146 -0.0072  0.0358  0.3894
 1277loPI   GL220094   0.093  17.174   6.345 -0.1248  0.1259  0.1164
 1277loPI   C1A20095   0.466  17.608   6.492  0.1395 -0.2380 -0.0508
 1277loPI   C2A20096   0.518  17.549   6.847 -0.2565  0.0861  0.0305
 1277loPI   C3A20097   0.571  17.629   7.243 -0.1420  0.1348  0.2043
 1277loPI   C4A20098   0.553  17.612   7.644  0.1478  0.3281 -0.1730
 1277loPI   C5A20099   0.539  17.571   8.141  0.1693 -0.0901 -0.0799
 1277loPI   C6A20100   0.782  17.660   8.584  0.1743 -0.2597  0.1584
 1277loPI   C1B20101   0.144  17.187   6.788  0.0369  0.0730  0.1332
 1277loPI   C2B20102   0.203  17.324   7.263 -0.0669  0.0767  0.1524
 1277loPI   C3B20103   0.196  17.251   7.610 -0.0955 -0.0561 -0.2783
 1277loPI   C4B20104   0.189  17.183   8.030 -0.0298 -0.1114  0.0974
 1278loPI    C120105   2.462  17.168   5.431  0.0348 -0.1058 -0.1184
 1278loPI    C220106   2.756  17.335   5.644 -0.0605 -0.0962  0.0070
 1278loPI    C320107   2.843  17.098   5.333  0.0786 -0.0585  0.0168
 1278loPI   PO420108   2.273  17.116   5.652 -0.1341  0.1203  0.2717
 1278loPI   GL120109   2.379  17.263   6.022  0.3333 -0.0638  0.1234
 1278loPI   GL220110   2.167  17.046   6.209  0.0066  0.3001 -0.0626
 1278loPI   C1A20111   2.545  17.179   6.481 -0.1028 -0.0526 -0.0114
 1278loPI   C2A20112   2.611  17.107   6.965 -0.1360  0.1290  0.0819
 1278loPI   C3A20113   2.568  17.147   7.396  0.2297  0.1084 -0.1283
 1278loPI   C4A20114   2.732  17.038   7.757 -0.0208  0.1422 -0.0794
 1278loPI   C5A20115   2.597  17.184   8.210  0.2778  0.1829 -0.2311
 1278loPI   C6A20116   2.622  17.111   8.655 -0.0824  0.0450 -0.0295
 1278loPI   C1B20117   2.239  16.849   6.615  0.1659 -0.1541  0.0842
 1278loPI   C2B20118   2.164  16.783   6.960 -0.1022  0.0698  0.0443
 1278loPI   C3B20119   2.163  16.818   7.346  0.1559 -0.0124 -0.1124
 1278loPI   C4B20120   2.251  16.762   7.782  0.2500 -0.0340  0.2413
 1279loPI    C120121   3.156  15.856   5.465  0.1385  0.1211  0.0321
 1279loPI    C220122   2.885  15.965   5.191  0.0192  0.0912  0.1376
 1279loPI    C320123   3.271  15.939   5.090 -0.0167  0.1337 -0.0135
 1279loPI   PO420124   3.041  15.978   5.710 -0.0266  0.0630  0.2172
 1279loPI   GL120125   2.897  15.674   6.046  0.0962  0.1553 -0.0260
 1279loPI   GL220126   2.582  15.463   5.996 -0.1303  0.0559  0.3106
 1279loPI   C1A20127   2.957  15.750   6.378  0.1834 -0.2920  0.1423
 1279loPI   C2A20128   2.974  15.756   6.857 -0.0190  0.0629  0.2563
 1279loPI   C3A20129   3.036  15.735   7.282 -0.1990 -0.0038  0.0717
 1279loPI   C4A20130   3.033  15.680   7.708  0.1751  0.2378  0.2360
 1279loPI   C5A20131   3.226  15.754   8.138  0.2781 -0.1412 -0.0338
 1279loPI   C6A20132   3.314  15.699   8.510 -0.2376  0.1671  0.0649
 1279loPI   C1B20133   2.572  15.385   6.341 -0.0148 -0.2082  0.1292
 1279loPI   C2B20134   2.699  15.339   6.741 -0.0296  0.0209  0.1821
 1279loPI   C3B20135   2.588  15.334   7.151 -0.2098  0.0176 -0.1215
 1279loPI   C4B20136   2.603  15.278   7.643  0.1093 -0.2360 -0.0845
 1280loPI    C120137  12.756  16.141   5.716  0.0538  0.1481  0.0076
 1280loPI    C220138  12.816  16.475   5.503  0.0920 -0.0223 -0.2534
 1280loPI    C320139  12.466  16.283   5.480  0.1415 -0.1120 -0.2633
 1280loPI   PO420140  12.759  16.150   5.909 -0.3067 -0.0421  0.1839
 1280loPI   GL120141  12.677  16.341   6.296  0.0771  0.0738  0.0288
 1280loPI   GL220142  12.792  16.671   6.426  0.2043 -0.1725 -0.0574
 1280loPI   C1A20143  12.826  16.196   6.640 -0.1298  0.0942 -0.0385
 1280loPI   C2A20144  12.850  16.156   7.112 -0.0571 -0.1558 -0.1634
 1280loPI   C3A20145  12.875  16.109   7.575 -0.0648  0.0876  0.0864
 1280loPI   C4A20146  12.632  16.149   8.126 -0.0426  0.1832  0.1314
 1280loPI   C5A20147  12.658  16.379   8.383 -0.0064 -0.1870  0.0919
 1280loPI   C6A20148  12.534  16.675   8.796 -0.3965  0.1340 -0.0261
 1280loPI   C1B20149  12.622  16.695   6.775  0.1200 -0.2616 -0.1688
 1280loPI   C2B20150  12.599  16.650   7.166 -0.0221 -0.0153  0.0385
 1280loPI   C3B20151  12.745  16.663   7.634 -0.0215  0.1949 -0.1881
 1280loPI   C4B20152  12.738  16.764   8.046 -0.1439  0.0189  0.0783
 1281loPI    C120153  12.711   6.187   5.628 -0.0343  0.3437  0.1900
 1281loPI    C220154  12.588   6.493   5.401 -0.0478  0.0908 -0.1519
 1281loPI    C320155  12.829   6.214   5.246  0.0780  0.0005  0.1976
 1281loPI   PO420156  12.867   6.314   5.883  0.0085 -0.1057 -0.0536
 1281loPI   GL120157  12.948   6.087   6.234  0.3466  0.0460  0.0548
 1281loPI   GL220158  13.168   6.142   6.399  0.0659  0.0647  0.2823
 1281loPI   C1A20159  12.831   5.866   6.691 -0.0923  0.0202  0.1140
 1281loPI   C2A20160  12.824   5.918   7.141  0.0473 -0.1829  0.0112
 1281loPI   C3A20161  12.852   5.877   7.608 -0.1587  0.2068  0.0930
 1281loPI   C4A20162  12.895   5.978   8.060 -0.0553  0.0650  0.2972
 1281loPI   C5A20163  12.999   6.008   8.472  0.2806  0.0401 -0.0853
 1281loPI   C6A20164  12.958   6.024   8.903  0.2005 -0.1972  0.0594
 1281loPI   C1B20165  13.225   6.255   6.888 -0.0964  0.0292  0.2281
 1281loPI   C2B20166  13.155   6.205   7.315  0.1548  0.0088 -0.1422
 1281loPI   C3B20167  13.178   6.298   7.688  0.1320  0.0153 -0.1084
 1281loPI   C4B20168  13.246   6.299   8.139  0.0778  0.1652 -0.3065
 1282POPI    C120169   8.816  16.819   5.895 -0.3060  0.1495  0.2246
 1282POPI    C220170   8.807  16.636   5.540  0.2015  0.0864  0.2369
 1282POPI    C320171   8.826  17.035   5.558 -0.1584  0.1089  0.2027
 1282POPI   PO420172   9.002  16.840   6.081  0.3485 -0.3880  0.2491
 1282POPI   GL120173   9.179  16.758   6.355  0.0182 -0.0928  0.1458
 1282POPI   GL220174   9.219  16.425   6.376  0.0985 -0.1048 -0.0913
 1282POPI   C1A20175   9.234  16.937   6.668 -0.0081  0.0255 -0.0055
 1282POPI   D2A20176   9.314  16.975   7.146 -0.1930 -0.3326  0.2204
 1282POPI   C3A20177   9.327  17.016   7.554  0.0477  0.0693 -0.0591
 1282POPI   C4A20178   9.209  17.000   7.961  0.0819  0.0462  0.4005
 1282POPI   C1B20179   9.389  16.446   6.792 -0.2694 -0.0715  0.1458
 1282POPI   C2B20180   9.367  16.497   7.232  0.0119 -0.0206  0.2890
 1282POPI   C3B20181   9.497  16.543   7.626 -0.1696 -0.0091  0.2218
 1282POPI   C4B20182   9.398  16.573   8.049  0.2662  0.2877  0.0581
 1283POPI    C120183  11.384  10.857   5.875  0.1116  0.0066  0.1262
 1283POPI    C220184  11.692  10.981   5.652  0.0285  0.1137  0.0696
 1283POPI    C320185  11.397  10.767   5.486  0.2284 -0.2669  0.1911
 1283POPI   PO420186  11.488  10.906   6.163  0.0180  0.1038  0.1873
 1283POPI   GL120187  11.711  11.164   6.484  0.2495 -0.0420 -0.0701
 1283POPI   GL220188  11.857  11.288   6.667  0.1068  0.0188  0.1356
 1283POPI   C1A20189  11.506  10.908   6.901  0.1630 -0.1089 -0.0655
 1283POPI   D2A20190  11.417  10.944   7.409  0.5273 -0.0479  0.2786
 1283POPI   C3A20191  11.351  10.984   7.883 -0.1121  0.1470  0.0129
 1283POPI   C4A20192  11.390  11.062   8.230 -0.2319 -0.0766 -0.2661
 1283POPI   C1B20193  11.828  11.225   7.083 -0.4088  0.2145 -0.1070
 1283POPI   C2B20194  11.767  11.337   7.496  0.4541  0.1702  0.2218
 1283POPI   C3B20195  11.840  11.394   7.876  0.2926  0.3554 -0.2087
 1283POPI   C4B20196  11.757  11.464   8.308 -0.1468  0.1651  0.0508
 1284POPI    C120197   8.781  12.632   5.699 -0.2654  0.3419 -0.0905
 1284POPI    C220198   8.910  12.990   5.821 -0.1220  0.2052  0.1681
 1284POPI    C320199   9.042  12.838   5.476 -0.0825  0.3438  0.1214
 1284POPI   PO420200   8.788  12.497   5.964  0.0018  0.0131  0.1033
 1284POPI   GL120201   8.580  12.538   6.438  0.0301 -0.0573  0.0276
 1284POPI   GL220202   8.318  12.703   6.530 -0.0467 -0.3284  0.1889
 1284POPI   C1A20203   8.727  12.509   6.805 -0.0996  0.2215  0.0628
 1284POPI   D2A20204   8.698  12.523   7.279  0.2398  0.0062 -0.0519
 1284POPI   C3A20205   8.703  12.556   7.688 -0.0453 -0.1768  0.0661
 1284POPI   C4A20206   8.717  12.483   8.078  0.0291  0.1995  0.3515
 1284POPI   C1B20207   8.232  12.627   7.030 -0.1580  0.1344 -0.0927
 1284POPI   C2B20208   8.241  12.731   7.438  0.1189  0.4237 -0.0961
 1284POPI   C3B20209   8.166  12.685   7.895 -0.1079 -0.0947 -0.0301
 1284POPI   C4B20210   8.258  12.610   8.325 -0.2176 -0.0344  0.1400
 1285POPI    C120211  11.445  14.321   5.880 -0.2944 -0.0033  0.0987
 1285POPI    C220212  11.367  14.038   5.608  0.0271 -0.1505  0.1557
 1285POPI    C320213  11.621  14.334   5.521 -0.2511  0.0833  0.1230
 1285POPI   PO420214  11.352  14.165   6.089 -0.2243  0.1574  0.0944
 1285POPI   GL120215  11.347  14.084   6.517  0.2475  0.0213  0.1518
 1285POPI   GL220216  11.115  13.786   6.483  0.1367 -0.2564  0.0226
 1285POPI   C1A20217  11.483  14.262   6.874 -0.0873  0.3653 -0.1071
 1285POPI   D2A20218  11.499  14.121   7.233 -0.1594  0.0113 -0.0317
 1285POPI   C3A20219  11.503  14.236   7.679 -0.2375  0.3399  0.0582
 1285POPI   C4A20220  11.638  14.178   8.181 -0.1286 -0.1113  0.1097
 1285POPI   C1B20221  11.167  13.782   6.939  0.1158  0.0020  0.1617
 1285POPI   C2B20222  11.099  13.869   7.373 -0.0768 -0.1021  0.0175
 1285POPI   C3B20223  11.186  13.838   7.786  0.0079 -0.1004 -0.1057
 1285POPI   C4B20224  11.208  13.748   8.219 -0.0121 -0.1688 -0.2219
 1286POPI    C120225  17.356  16.584   5.911  0.0380 -0.1755 -0.2331
 1286POPI    C220226  17.273  16.884   5.661 -0.0994 -0.1449 -0.1520
 1286POPI    C320227  17.247  16.506   5.534 -0.1350 -0.1286 -0.1938
 1286POPI   PO420228  17.304  16.760   6.123 -0.1043  0.0391  0.1121
 1286POPI   GL120229  17.234  16.790   6.551 -0.1211  0.1523  0.0379
 1286POPI   GL220230  17.581  16.727   6.543 -0.0140  0.0236  0.0418
 1286POPI   C1A20231  17.222  16.753   6.915  0.0202 -0.1708 -0.1691
 1286POPI   D2A20232  17.409  16.907   7.357 -0.1850 -0.2167 -0.0369
 1286POPI   C3A20233  17.317  16.883   7.768 -0.1341  0.1363  0.1022
 1286POPI   C4A20234  17.300  16.775   8.212  0.2324 -0.1916 -0.0232
 1286POPI   C1B20235  17.831  16.704   6.952 -0.1832 -0.1107 -0.0100
 1286POPI   C2B20236  17.876  16.663   7.335  0.2482  0.0834 -0.3020
 1286POPI   C3B20237  17.915  16.753   7.739  0.2150  0.1134 -0.0443
 1286POPI   C4B20238  17.844  16.708   8.161 -0.0737 -0.1095 -0.0816
 1287POPI    C120239  17.462   9.818   5.737 -0.3120  0.0901 -0.0726
 1287POPI    C220240  17.783   9.841   5.499 -0.2402 -0.5351 -0.0538
 1287POPI    C320241  17.470  10.082   5.437  0.2515  0.1405 -0.0237
 1287POPI   PO420242  17.585   9.824   6.013  0.1082 -0.0601  0.1346
 1287POPI   GL120243  17.541   9.729   6.421  0.0715 -0.1964 -0.0753
 1287POPI   GL220244  17.334   9.584   6.458 -0.0714  0.1219  0.0605
 1287POPI   C1A20245  17.747   9.836   6.803  0.0477  0.0770  0.2694
 1287POPI   D2A20246  17.785   9.829   7.238 -0.1131  0.2102  0.0349
 1287POPI   C3A20247  17.640   9.841   7.633 -0.1220 -0.0193 -0.1261
 1287POPI   C4A20248  17.732   9.725   8.054  0.1094 -0.5266  0.3462
 1287POPI   C1B20249  17.382   9.544   6.915 -0.0285  0.2154 -0.0919
 1287POPI   C2B20250  17.407   9.425   7.302 -0.0194  0.1531  0.1036
 1287POPI   C3B20251  17.396   9.397   7.724 -0.0145  0.0389 -0.1365
 1287POPI   C4B20252  17.336   9.421   8.175  0.1168  0.1804  0.1403
 1288POPI    C120253  15.890  11.353   5.764  0.1470  0.0122  0.1223
 1288POPI    C220254  16.072  11.490   5.435  0.0338 -0.1414 -0.0060
 1288POPI    C320255  15.681  11.407   5.428  0.0632 -0.2974  0.1214
 1288POPI   PO420256  15.926  11.389   5.875  0.0165  0.1849 -0.1677
 1288POPI   GL120257  16.135  11.342   6.238 -0.0657 -0.2054  0.3650
 1288POPI   GL220258  16.395  11.584   6.374  0.0190 -0.0478  0.3017
 1288POPI   C1A20259  15.964  11.250   6.627  0.0552  0.0424  0.0257
 1288POPI   D2A20260  16.056  11.178   7.076 -0.3092 -0.0541 -0.0873
 1288POPI   C3A20261  16.045  11.232   7.490  0.0564  0.2814  0.0887
 1288POPI   C4A20262  16.000  11.136   7.975  0.1487 -0.0114 -0.0333
 1288POPI   C1B20263  16.410  11.584   6.749 -0.1255  0.0274 -0.0378
 1288POPI   C2B20264  16.386  11.580   7.197  0.1324 -0.4211  0.1096
 1288POPI   C3B20265  16.435  11.532   7.561  0.1620 -0.0161  0.3559
 1288POPI   C4B20266  16.351  11.563   8.019 -0.2009 -0.1549 -0.1162
 1289POPI    C120267   9.893   9.286   5.795 -0.0843 -0.1845  0.1665
 1289POPI    C220268   9.647   9.437   5.519  0.0446  0.1627  0.2356
 1289POPI    C320269   9.948   9.198   5.409 -0.1954 -0.0965  0.1300
 1289POPI   PO420270   9.662   9.112   5.963  0.0259 -0.0702  0.2036
 1289POPI   GL120271   9.558   9.098   6.360  0.3026 -0.1561 -0.1804
 1289POPI   GL220272   9.570   9.453   6.438  0.3532 -0.0127  0.0743
 1289POPI   C1A20273   9.607   9.043   6.859 -0.0874  0.0764 -0.3388
 1289POPI   D2A20274   9.777   9.066   7.229  0.1263 -0.1509  0.3328
 1289POPI   C3A20275   9.540   9.069   7.594 -0.1407 -0.0554 -0.1196
 1289POPI   C4A20276   9.704   9.229   8.043  0.0690  0.1399  0.1891
 1289POPI   C1B20277   9.564   9.550   6.881  0.1465 -0.0541 -0.1392
 1289POPI   C2B20278   9.450   9.468   7.285  0.0495  0.0405 -0.0507
 1289POPI   C3B20279   9.517   9.593   7.690  0.1253  0.1051  0.0231
 1289POPI   C4B20280   9.459   9.656   8.173 -0.1694  0.0598 -0.1139
 1290POPI    C120281   4.045  14.226   5.783  0.1201  0.1153  0.1649
 1290POPI    C220282   4.217  14.244   5.422  0.1157 -0.1097  0.1505
 1290POPI    C320283   3.844  14.380   5.474  0.1173 -0.0747  0.0706
 1290POPI   PO420284   4.136  14.317   6.003  0.1944 -0.0160  0.2065
 1290POPI   GL120285   4.135  14.373   6.373 -0.0589  0.0118 -0.3614
 1290POPI   GL220286   4.367  14.557   6.569 -0.4410 -0.1247  0.1916
 1290POPI   C1A20287   4.051  14.207   6.726  0.1650 -0.0837 -0.0310
 1290POPI   D2A20288   4.011  14.165   7.201  0.0496 -0.2323 -0.1413
 1290POPI   C3A20289   4.026  14.176   7.675  0.1478 -0.0161  0.0374
 1290POPI   C4A20290   4.059  14.182   8.130  0.0354 -0.4306  0.0370
 1290POPI   C1B20291   4.368  14.498   6.990 -0.0396 -0.0956  0.2159
 1290POPI   C2B20292   4.433  14.458   7.410  0.2488 -0.1680  0.2384
 1290POPI   C3B20293   4.401  14.514   7.795  0.1407  0.1550 -0.0704
 1290POPI   C4B20294   4.388  14.527   8.280  0.4080 -0.0307 -0.0498
 1291POPI    C120295  16.379   0.415   5.436 -0.1541  0.0977  0.1796
 1291POPI    C220296  16.086   0.211   5.255 -0.0752  0.1848 -0.0497
 1291POPI    C320297  16.460   0.191   5.115  0.0096  0.1593  0.1771
 1291POPI   PO420298  16.256   0.387   5.713 -0.2738 -0.0488  0.1147
 1291POPI   GL120299  16.262   0.364   6.057 -0.0309 -0.4563 -0.1706
 1291POPI   GL220300  16.119   0.536   6.219  0.5207 -0.2630 -0.1228
 1291POPI   C1A20301  16.213   0.138   6.443  0.2489  0.0839  0.1402
 1291POPI   D2A20302  16.133   0.075   6.864  0.2110  0.0673  0.1397
 1291POPI   C3A20303  16.187   0.072   7.333  0.0572  0.2926  0.1091
 1291POPI   C4A20304  16.168   0.185   7.801 -0.1186  0.2576  0.1624
 1291POPI   C1B20305  15.988   0.662   6.639 -0.1450 -0.2108 -0.1544
 1291POPI   C2B20306  16.042   0.614   7.058  0.0204  0.0880  0.3490
 1291POPI   C3B20307  16.025   0.624   7.491 -0.1307 -0.1582 -0.0767
 1291POPI   C4B20308  16.003   0.711   7.877  0.2003  0.1983  0.2872
 1292POPI    C120309   3.450  11.937   5.720  0.0914 -0.2059  0.1484
 1292POPI    C220310   3.716  11.660   5.612  0.2513  0.0364 -0.0924
 1292POPI    C320311   3.564  11.908   5.338  0.3002  0.3503  0.1592
 1292POPI   PO420312   3.262  11.872   5.897 -0.0932  0.4444  0.1992
 1292POPI   GL120313   3.084  11.742   6.246 -0.2548  0.0079 -0.0372
 1292POPI   GL220314   3.279  11.986   6.432  0.1084  0.1045 -0.0319
 1292POPI   C1A20315   3.035  11.677   6.722 -0.0092  0.0564 -0.0150
 1292POPI   D2A20316   3.010  11.714   7.168 -0.0357  0.3029  0.0462
 1292POPI   C3A20317   2.962  11.687   7.629 -0.1413  0.0976  0.1817
 1292POPI   C4A20318   2.929  11.644   8.095  0.2438  0.0869 -0.2543
 1292POPI   C1B20319   3.340  12.035   6.814  0.1582 -0.0389 -0.1202
 1292POPI   C2B20320   3.397  12.053   7.215 -0.0313  0.0278  0.0100
 1292POPI   C3B20321   3.334  12.019   7.666 -0.2278 -0.2428 -0.2507
 1292POPI   C4B20322   3.319  12.076   8.189  0.0918  0.1530 -0.0414
 1293POPI    C120323   4.995   0.744   5.535  0.0626 -0.1465 -0.0470
 1293POPI    C220324   5.189   0.859   5.205  0.0390 -0.2808 -0.1084
 1293POPI    C320325   4.795   0.920   5.236  0.0633 -0.1510 -0.0501
 1293POPI   PO420326   5.106   0.837   5.763 -0.1536  0.1115 -0.0639
 1293POPI   GL120327   5.216   1.271   6.028  0.2021 -0.0026  0.0603
 1293POPI   GL220328   4.928   1.134   6.121 -0.1572  0.1108 -0.1346
 1293POPI   C1A20329   5.326   1.303   6.419  0.1569 -0.0543  0.2536
 1293POPI   D2A20330   5.379   1.363   6.745  0.0079  0.1080 -0.0223
 1293POPI   C3A20331   5.370   1.398   7.278  0.1871 -0.0713  0.0220
 1293POPI   C4A20332   5.372   1.332   7.766  0.0103 -0.1316  0.0761
 1293POPI   C1B20333   4.827   1.426   6.456 -0.1741  0.1283  0.1152
 1293POPI   C2B20334   4.905   1.426   6.872  0.1296 -0.0068  0.0317
 1293POPI   C3B20335   4.863   1.578   7.252  0.0773  0.0291 -0.2290
 1293POPI   C4B20336   4.900   1.624   7.706 -0.0419 -0.1938 -0.1284
 1294POPI    C120337   4.056  15.000   5.896 -0.0009 -0.1032  0.2197
 1294POPI    C220338   4.204  15.085   5.534 -0.2760 -0.0236  0.1232
 1294POPI    C320339   4.172  14.704   5.653  0.0435 -0.0407  0.1644
 1294POPI   PO420340   4.199  15.158   6.046 -0.0877 -0.0229  0.0817
 1294POPI   GL120341   4.156  15.147   6.485 -0.0819  0.0238  0.1331
 1294POPI   GL220342   3.970  14.904   6.391 -0.0475  0.3655  0.2396
 1294POPI   C1A20343   4.172  14.988   6.862  0.0459 -0.1133 -0.1106
 1294POPI   D2A20344   4.229  14.888   7.287 -0.0724 -0.1074 -0.1374
 1294POPI   C3A20345   4.154  14.985   7.655 -0.0578  0.1957  0.1701
 1294POPI   C4A20346   4.362  14.970   7.993 -0.3266 -0.0365  0.1202
 1294POPI   C1B20347   3.856  14.648   6.663 -0.2102  0.0453  0.1528
 1294POPI   C2B20348   3.875  14.605   7.048  0.0392 -0.1517 -0.2780
 1294POPI   C3B20349   3.827  14.569   7.450  0.0074  0.2838 -0.1364
 1294POPI   C4B20350   3.847  14.586   7.875 -0.4275 -0.0269  0.4049
 1295POPI    C120351   3.736   4.865   5.654 -0.1752  0.1858  0.1672
 1295POPI    C220352   3.890   5.215   5.537 -0.0225  0.0994  0.1068
 1295POPI    C320353   3.571   5.065   5.348 -0.0969  0.2118  0.1417
 1295POPI   PO420354   3.680   4.931   5.892  0.2356 -0.0024  0.1934
 1295POPI   GL120355   3.711   4.713   6.255 -0.2030 -0.0182  0.0073
 1295POPI   GL220356   3.493   4.569   6.402 -0.0677 -0.1627 -0.1116
 1295POPI   C1A20357   3.865   4.926   6.599 -0.0833 -0.0780 -0.1018
 1295POPI   D2A20358   3.755   4.987   7.023 -0.2090  0.4061 -0.2891
 1295POPI   C3A20359   3.813   4.927   7.558 -0.0339 -0.3303  0.1449
 1295POPI   C4A20360   3.736   4.985   8.031 -0.0468 -0.3015  0.3623
 1295POPI   C1B20361   3.432   4.680   6.842  0.1582  0.1550 -0.1998
 1295POPI   C2B20362   3.399   4.649   7.304 -0.0156 -0.1768 -0.0309
 1295POPI   C3B20363   3.364   4.654   7.742 -0.2403 -0.0945  0.0591
 1295POPI   C4B20364   3.342   4.641   8.132  0.0507  0.0249 -0.2091
 1296POPI    C120365   1.289   8.366   5.783 -0.0597 -0.1332  0.0339
 1296POPI    C220366   1.481   8.553   5.486 -0.0357  0.0907  0.1876
 1296POPI    C320367   1.085   8.505   5.469 -0.0120 -0.0584  0.0356
 1296POPI   PO420368   1.351   8.488   5.961  0.4652 -0.0664 -0.0454
 1296POPI   GL120369   1.320   8.666   6.314 -0.1445  0.5624  0.1898
 1296POPI   GL220370   1.023   8.783   6.406  0.2903 -0.0380 -0.0198
 1296POPI   C1A20371   1.586   8.525   6.666  0.0106  0.1133 -0.2753
 1296POPI   D2A20372   1.642   8.496   7.132  0.0420 -0.0797 -0.0446
 1296POPI   C3A20373   1.516   8.530   7.605  0.0445  0.2021  0.0171
 1296POPI   C4A20374   1.521   8.439   8.054 -0.0481 -0.0130 -0.0430
 1296POPI   C1B20375   1.047   8.728   6.811 -0.2660  0.1847  0.0407
 1296POPI   C2B20376   1.054   8.716   7.244  0.2670  0.2433  0.0773
 1296POPI   C3B20377   1.041   8.654   7.673  0.1157  0.0589 -0.1393
 1296POPI   C4B20378   1.002   8.566   8.150  0.0722  0.0889 -0.2339
 1297POPI    C120379   0.000  14.530   5.841 -0.0528  0.0180  0.1129
 1297POPI    C220380  -0.217  14.199   5.900 -0.0339 -0.0454 -0.1594
 1297POPI    C320381  -0.061  14.275   5.539 -0.1253  0.3135 -0.1278
 1297POPI   PO420382   0.191  14.563   6.028 -0.0163  0.0144  0.0613
 1297POPI   GL120383   0.073  14.644   6.360 -0.3489  0.2372 -0.0553
 1297POPI   GL220384  -0.106  14.992   6.370 -0.1859  0.0572  0.0235
 1297POPI   C1A20385   0.197  14.558   6.746  0.0472  0.0349 -0.1527
 1297POPI   D2A20386   0.078  14.564   7.210  0.2912 -0.4439  0.0879
 1297POPI   C3A20387   0.050  14.501   7.660  0.1984 -0.2617 -0.1922
 1297POPI   C4A20388   0.082  14.530   8.116 -0.0393  0.1597  0.0812
 1297POPI   C1B20389  -0.043  14.933   6.866  0.0654  0.0217 -0.1838
 1297POPI   C2B20390  -0.051  15.035   7.382  0.2519  0.0622 -0.2470
 1297POPI   C3B20391  -0.084  15.018   7.845 -0.0244 -0.0340 -0.0640
 1297POPI   C4B20392  -0.208  15.162   8.175 -0.0801 -0.1479 -0.2261
 1298DPPI    C120393  13.036  14.722   5.947  0.1374 -0.2551 -0.0558
 1298DPPI    C220394  13.239  14.450   5.736  0.1722 -0.2105 -0.0801
 1298DPPI    C320395  13.137  14.798   5.568  0.1537 -0.1964 -0.0398
 1298DPPI   PO420396  13.030  14.582   6.145  0.0666 -0.1082 -0.0513
 1298DPPI   GL120397  13.238  14.484   6.501 -0.1629 -0.1751  0.0331
 1298DPPI   GL220398  13.196  14.221   6.541 -0.1388 -0.1592  0.2518
 1298DPPI   C1A20399  13.223  14.657   6.838 -0.0921 -0.2285  0.0023
 1298DPPI   C2A20400  13.254  14.576   7.226  0.0096 -0.2696  0.0065
 1298DPPI   C3A20401  13.309  14.640   7.634  0.1807 -0.0091  0.1539
 1298DPPI   C4A20402  13.320  14.707   8.008 -0.0905  0.0895 -0.0585
 1298DPPI   C1B20403  13.372  14.151   6.941 -0.0323  0.3290 -0.0554
 1298DPPI   C2B20404  13.395  14.155   7.496  0.0937  0.1765 -0.0054
 1298DPPI   C3B20405  13.433  14.215   7.947  0.4309 -0.1940 -0.0330
 1298DPPI   C4B20406  13.396  14.075   8.309 -0.1294  0.0730 -0.0538
 1299DPPI    C120407   6.822  16.143   5.799 -0.1950 -0.1814  0.1225
 1299DPPI    C220408   6.955  15.920   5.495  0.0846 -0.0134  0.1187
 1299DPPI    C320409   6.623  16.138   5.451  0.1519  0.0501 -0.0847
 1299DPPI   PO420410   7.097  16.247   5.933 -0.0758 -0.2032  0.0251
 1299DPPI   GL120411   7.307  16.364   6.269  0.0381 -0.0091 -0.1670
 1299DPPI   GL220412   7.558  16.570   6.289 -0.1372  0.0245  0.0267
 1299DPPI   C1A20413   7.189  16.193   6.648 -0.1201 -0.0922  0.0686
 1299DPPI   C2A20414   7.152  16.161   7.102  0.0784 -0.1549  0.1313
 1299DPPI   C3A20415   7.166  16.141   7.567  0.0319 -0.1585 -0.2109
 1299DPPI   C4A20416   7.053  16.133   8.059 -0.0156 -0.0664  0.0613
 1299DPPI   C1B20417   7.495  16.573   6.734 -0.0187  0.0173 -0.0095
 1299DPPI   C2B20418   7.464  16.509   7.193  0.0310 -0.1600 -0.0169
 1299DPPI   C3B20419   7.513  16.555   7.666 -0.0454  0.1135  0.0077
 1299DPPI   C4B20420   7.514  16.518   8.049 -0.2250 -0.1386 -0.2639
 1300DPPI    C120421  10.872  17.398   5.502  0.0533 -0.3066 -0.3784
 1300DPPI    C220422  10.503  17.455   5.357 -0.1011 -0.0760  0.0859
 1300DPPI    C320423  10.743  17.768   5.423  0.0402 -0.1937  0.1385
 1300DPPI   PO420424  10.892  17.250   5.690 -0.2421  0.1480 -0.1422
 1300DPPI   GL120425  11.060  17.211   6.080  0.3186  0.1451 -0.2096
 1300DPPI   GL220426  11.186  17.018   6.295 -0.2570 -0.0256  0.0863
 1300DPPI   C1A20427  10.939  17.436   6.522 -0.2264 -0.0652 -0.1191
 1300DPPI   C2A20428  10.971  17.519   6.938 -0.2504 -0.0114 -0.1739
 1300DPPI   C3A20429  10.973  17.539   7.380  0.0879  0.1473  0.0020
 1300DPPI   C4A20430  10.963  17.547   7.753 -0.0097 -0.2683  0.0014
 1300DPPI   C1B20431  11.129  17.002   6.704 -0.1147 -0.0830 -0.0150
 1300DPPI   C2B20432  11.117  17.026   7.151  0.0676 -0.1692  0.0995
 1300DPPI   C3B20433  11.200  17.117   7.640 -0.2491  0.1379  0.0529
 1300DPPI   C4B20434  11.151  17.053   8.061 -0.0061  0.0229  0.0209
 1301DPPI    C120435   9.814   6.842   6.098  0.0486  0.1225 -0.1004
 1301DPPI    C220436   9.810   6.738   5.712 -0.1231 -0.0844 -0.0452
 1301DPPI    C320437   9.626   7.073   5.831 -0.3128 -0.1669 -0.1037
 1301DPPI   PO420438  10.110   6.702   6.131 -0.2524  0.0067 -0.2364
 1301DPPI   GL120439  10.396   6.701   6.454 -0.0923 -0.1447  0.0385
 1301DPPI   GL220440  10.216   7.079   6.527  0.2650 -0.2404  0.2954
 1301DPPI   C1A20441  10.267   6.488   6.847 -0.1129  0.0103  0.1236
 1301DPPI   C2A20442  10.359   6.567   7.295 -0.2855 -0.0114 -0.0249
 1301DPPI   C3A20443  10.365   6.580   7.666  0.0030  0.2564 -0.3195
 1301DPPI   C4A20444  10.462   6.608   8.046 -0.1564 -0.1152 -0.0435
 1301DPPI   C1B20445  10.124   7.038   6.960 -0.1901  0.2713  0.0003
 1301DPPI   C2B20446  10.175   7.047   7.300 -0.2697  0.2334  0.0556
 1301DPPI   C3B20447  10.218   7.016   7.772 -0.0130 -0.1854  0.0835
 1301DPPI   C4B20448  10.304   7.193   8.131  0.0136  0.1264  0.1192
 1302DPPI    C120449   8.977  15.944   6.072  0.1611  0.1429 -0.0380
 1302DPPI    C220450   9.366  15.961   5.980  0.1491 -0.4307 -0.2412
 1302DPPI    C320451   9.100  15.852   5.702 -0.1575 -0.0876 -0.0910
 1302DPPI   PO420452   8.947  16.009   6.195  0.4842 -0.3644 -0.4057
 1302DPPI   GL120453   8.932  16.033   6.602  0.2511 -0.0591  0.0952
 1302DPPI   GL220454   8.664  15.860   6.592 -0.0164 -0.0555 -0.3648
 1302DPPI   C1A20455   9.032  16.157   7.041 -0.1248 -0.1633  0.2601
 1302DPPI   C2A20456   9.077  16.121   7.441  0.0804  0.0158 -0.0169
 1302DPPI   C3A20457   9.098  16.228   7.836 -0.1927  0.0319  0.0236
 1302DPPI   C4A20458   9.003  16.190   8.253 -0.2490 -0.0455  0.1002
 1302DPPI   C1B20459   8.690  15.804   7.114  0.0488  0.0097 -0.3755
 1302DPPI   C2B20460   8.668  15.782   7.529  0.0990 -0.2110  0.0461
 1302DPPI   C3B20461   8.846  15.802   7.931 -0.1883 -0.1339 -0.0195
 1302DPPI   C4B20462   8.822  15.726   8.436  0.1586 -0.0027 -0.0720
 1303DPPI    C120463  10.583   2.474   6.045 -0.0395  0.0751  0.1619
 1303DPPI    C220464  10.226   2.294   6.041  0.0959 -0.1963  0.1113
 1303DPPI    C320465  10.447   2.308   5.707  0.1693 -0.1038  0.1635
 1303DPPI   PO420466  10.715   2.365   6.298 -0.0100 -0.1574 -0.0219
 1303DPPI   GL120467  10.882   2.566   6.554  0.0584  0.0224 -0.1009
 1303DPPI   GL220468  10.675   2.335   6.773 -0.0280  0.3130  0.2019
 1303DPPI   C1A20469  11.062   2.664   6.925  0.1435 -0.0124 -0.1060
 1303DPPI   C2A20470  11.150   2.741   7.322  0.0052  0.0307 -0.2897
 1303DPPI   C3A20471  11.019   2.812   7.753 -0.0028 -0.0401 -0.0652
 1303DPPI   C4A20472  11.094   2.860   8.195 -0.1611 -0.0070 -0.0505
 1303DPPI   C1B20473  10.749   2.307   7.161 -0.0259 -0.1727  0.0535
 1303DPPI   C2B20474  10.725   2.378   7.558  0.0401  0.3129  0.1706
 1303DPPI   C3B20475  10.627   2.498   7.904 -0.2980  0.0478 -0.3781
 1303DPPI   C4B20476  10.753   2.524   8.387 -0.0998  0.3113  0.0585
 1304DPPI    C120477  15.856   4.172   5.816 -0.0082  0.0721 -0.0661
 1304DPPI    C220478  15.746   3.840   5.622  0.2317 -0.0321 -0.0271
 1304DPPI    C320479  16.019   4.084   5.461  0.1034  0.1141 -0.0255
 1304DPPI   PO420480  15.927   4.063   6.034  0.0041 -0.1538 -0.2433
 1304DPPI   GL120481  16.161   4.225   6.398  0.2051 -0.0202  0.0063
 1304DPPI   GL220482  16.477   4.124   6.321  0.0250  0.2238 -0.1078
 1304DPPI   C1A20483  16.139   4.199   6.834 -0.2009 -0.2077  0.0245
 1304DPPI   C2A20484  16.211   4.219   7.258 -0.0068 -0.3264 -0.0609
 1304DPPI   C3A20485  16.394   4.271   7.610  0.0055  0.1391 -0.0213
 1304DPPI   C4A20486  16.320   4.300   8.050  0.0256 -0.2304 -0.0056
 1304DPPI   C1B20487  16.488   4.512   6.614  0.1240 -0.0407  0.1634
 1304DPPI   C2B20488  16.672   4.641   6.948  0.3327 -0.1057  0.1705
 1304DPPI   C3B20489  16.652   4.616   7.386  0.2548 -0.1597  0.2224
 1304DPPI   C4B20490  16.703   4.616   7.836  0.1796 -0.0350 -0.0038
 1305DPPI    C120491   6.759  14.413   5.648  0.0583  0.2807  0.1091
 1305DPPI    C220492   6.948  14.133   5.435 -0.1456  0.0262  0.2557
 1305DPPI    C320493   6.838  14.476   5.261 -0.0012 -0.0330  0.0431
 1305DPPI   PO420494   6.590  14.277   5.772 -0.1065 -0.2809  0.1632
 1305DPPI   GL120495   6.615  14.219   6.188 -0.0459 -0.2232 -0.1807
 1305DPPI   GL220496   6.878  13.952   6.352  0.0237  0.0813 -0.0499
 1305DPPI   C1A20497   6.797  14.397   6.647  0.1059  0.3831 -0.0056
 1305DPPI   C2A20498   6.842  14.535   7.075  0.0519 -0.0520 -0.1694
 1305DPPI   C3A20499   6.813  14.451   7.527  0.0185 -0.1983 -0.1863
 1305DPPI   C4A20500   6.791  14.420   7.965  0.2661 -0.2860 -0.0546
 1305DPPI   C1B20501   6.918  13.941   6.769  0.0906 -0.0530 -0.0846
 1305DPPI   C2B20502   6.968  13.941   7.209 -0.0344  0.0636 -0.0311
 1305DPPI   C3B20503   7.003  13.980   7.666  0.1389  0.1554 -0.0844
 1305DPPI   C4B20504   6.955  13.878   8.083 -0.0090 -0.1976  0.3834
 1306DPPI    C120505   7.578  10.517   6.110  0.1303 -0.0567  0.0186
 1306DPPI    C220506   7.198  10.636   6.149  0.2129  0.1447  0.2291
 1306DPPI    C320507   7.374  10.644   5.790  0.0835  0.2505  0.1666
 1306DPPI   PO420508   7.532  10.321   6.380 -0.0008  0.3983 -0.1337
 1306DPPI   GL120509   7.665  10.364   6.770 -0.0343  0.3075  0.0558
 1306DPPI   GL220510   7.957  10.335   6.905 -0.1687 -0.2595  0.1021
 1306DPPI   C1A20511   7.621  10.034   7.077  0.1979  0.1087  0.0658
 1306DPPI   C2A20512   7.573   9.979   7.589 -0.1951  0.2012 -0.1116
 1306DPPI   C3A20513   7.530  10.034   7.979  0.2418  0.0282  0.1055
 1306DPPI   C4A20514   7.481  10.120   8.371 -0.1209 -0.0769  0.2450
 1306DPPI   C1B20515   7.909  10.393   7.348 -0.2307  0.2415  0.0009
 1306DPPI   C2B20516   7.922  10.456   7.772  0.0242 -0.1230 -0.1190
 1306DPPI   C3B20517   7.909  10.504   8.218 -0.0516  0.2330 -0.1990
 1306DPPI   C4B20518   7.774  10.557   8.691 -0.2206 -0.2360 -0.1863
 1307DPPI    C120519  13.415   3.149   5.758 -0.0162  0.2300  0.1571
 1307DPPI    C220520  13.733   3.381   5.692  0.0721  0.1721  0.3707
 1307DPPI    C320521  13.710   3.020   5.521  0.0972  0.1969  0.3149
 1307DPPI   PO420522  13.454   3.162   6.067 -0.1591 -0.0080  0.1312
 1307DPPI   GL120523  13.253   2.998   6.380  0.2363  0.1641 -0.0391
 1307DPPI   GL220524  13.433   2.737   6.443  0.0232  0.1471  0.3331
 1307DPPI   C1A20525  13.324   3.073   6.810  0.4073 -0.1531  0.1564
 1307DPPI   C2A20526  13.326   3.063   7.240  0.0740 -0.1662  0.0483
 1307DPPI   C3A20527  13.274   3.052   7.685  0.0387 -0.1139  0.0092
 1307DPPI   C4A20528  13.339   3.009   8.100  0.1589  0.0353 -0.0411
 1307DPPI   C1B20529  13.401   2.614   6.844 -0.3005 -0.1250 -0.4966
 1307DPPI   C2B20530  13.345   2.595   7.279  0.2324  0.3179 -0.0026
 1307DPPI   C3B20531  13.403   2.579   7.790 -0.2168  0.0241 -0.0855
 1307DPPI   C4B20532  13.656   2.476   8.182 -0.0609  0.1065  0.0708
 1308PYPI    C120533   8.042   5.909   6.055 -0.0153  0.0945 -0.0508
 1308PYPI    C220534   8.197   5.957   5.689  0.0337 -0.0908 -0.0551
 1308PYPI    C320535   7.836   5.790   5.733  0.0029 -0.0159 -0.0218
 1308PYPI   PO420536   8.078   6.166   6.227 -0.1052  0.1228  0.1746
 1308PYPI   GL120537   7.909   6.089   6.526 -0.1094  0.1145 -0.2886
 1308PYPI   GL220538   7.751   5.766   6.600  0.3327  0.3531 -0.1135
 1308PYPI   C1A20539   8.159   6.213   6.891  0.2034  0.1395 -0.0096
 1308PYPI   C2A20540   8.192   6.198   7.394 -0.0029  0.4167 -0.0287
 1308PYPI   D3A20541   8.181   6.167   7.739 -0.1773 -0.1397 -0.1118
 1308PYPI   C4A20542   7.969   5.941   7.951 -0.1425  0.0094  0.2429
 1308PYPI   C1B20543   7.820   5.729   7.035  0.2281  0.2827  0.1336
 1308PYPI   C2B20544   7.820   5.754   7.540 -0.0746  0.1269 -0.0931
 1308PYPI   C3B20545   7.529   5.727   7.908 -0.1903  0.1761 -0.1899
 1308PYPI   C4B20546   7.189   5.557   8.134 -0.0228 -0.2776  0.1731
 1309PYPI    C120547   8.624   9.288   5.822  0.0470  0.0392 -0.0474
 1309PYPI    C220548   8.711   9.677   5.856 -0.0639  0.0714 -0.1262
 1309PYPI    C320549   8.396   9.560   5.639 -0.1895 -0.0465  0.1148
 1309PYPI   PO420550   8.775   9.210   6.090  0.1539  0.0254 -0.2355
 1309PYPI   GL120551   8.776   9.187   6.540  0.1316  0.0067 -0.1998
 1309PYPI   GL220552   9.073   9.210   6.580 -0.0374  0.3141 -0.0401
 1309PYPI   C1A20553   8.606   9.289   6.897 -0.3444  0.2383 -0.2119
 1309PYPI   C2A20554   8.617   9.211   7.316  0.0039 -0.1058 -0.1093
 1309PYPI   D3A20555   8.622   9.328   7.749  0.0172  0.1302 -0.2118
 1309PYPI   C4A20556   8.666   9.347   8.235 -0.2747  0.1274 -0.1264
 1309PYPI   C1B20557   9.062   9.155   7.033  0.2078  0.1026 -0.1588
 1309PYPI   C2B20558   9.077   9.115   7.452 -0.0178  0.1467 -0.0339
 1309PYPI   C3B20559   9.153   9.250   7.864 -0.2115 -0.0072 -0.1625
 1309PYPI   C4B20560   9.157   9.276   8.273  0.0984 -0.1908 -0.2284
 1310PYPI    C120561  11.702  14.731   5.841 -0.0236  0.0159  0.1677
 1310PYPI    C220562  12.066  14.892   5.812 -0.0297 -0.0264 -0.1819
 1310PYPI    C320563  11.780  14.998   5.554 -0.1986 -0.1677 -0.0544
 1310PYPI   PO420564  11.645  14.775   6.049 -0.0010 -0.2684  0.1934
 1310PYPI   GL120565  11.904  14.827   6.393 -0.0620 -0.1575 -0.1396
 1310PYPI   GL220566  11.756  14.512   6.562  0.1733 -0.5024 -0.0599
 1310PYPI   C1A20567  11.768  15.025   6.790  0.2759 -0.0368 -0.2615
 1310PYPI   C2A20568  11.762  15.043   7.205 -0.0382  0.1135 -0.1205
 1310PYPI   D3A20569  11.823  15.017   7.638 -0.1572 -0.0712 -0.2195
 1310PYPI   C4A20570  11.810  14.978   8.062 -0.0829  0.0189  0.2573
 1310PYPI   C1B20571  11.860  14.559   6.936 -0.0971  0.2759  0.1623
 1310PYPI   C2B20572  11.902  14.463   7.354 -0.2485 -0.1542  0.0720
 1310PYPI   C3B20573  11.935  14.498   7.832 -0.1763  0.1558 -0.1884
 1310PYPI   C4B20574  11.963  14.505   8.288 -0.1859  0.0314 -0.0396
 1311PYPI    C120575   5.743  13.328   5.832  0.1448 -0.0126  0.0612
 1311PYPI    C220576   5.737  13.257   5.438  0.1183 -0.1857  0.0923
 1311PYPI    C320577   5.448  13.477   5.606  0.1533 -0.0750  0.0085
 1311PYPI   PO420578   5.801  13.128   5.944 -0.1404  0.0910 -0.1826
 1311PYPI   GL120579   5.766  12.970   6.286  0.1530  0.1844 -0.3172
 1311PYPI   GL220580   5.549  12.807   6.298  0.1161  0.2708  0.2806
 1311PYPI   C1A20581   5.903  12.803   6.774 -0.0632 -0.0928  0.2279
 1311PYPI   C2A20582   5.889  12.865   7.222 -0.1276  0.1414 -0.1728
 1311PYPI   D3A20583   5.847  12.736   7.585 -0.1065  0.4114  0.0504
 1311PYPI   C4A20584   5.776  12.779   8.041 -0.0687 -0.0217 -0.2730
 1311PYPI   C1B20585   5.399  12.914   6.769  0.0172 -0.0102  0.0833
 1311PYPI   C2B20586   5.385  12.987   7.181 -0.0265 -0.0287  0.0827
 1311PYPI   C3B20587   5.428  12.997   7.613 -0.1830  0.0223 -0.1934
 1311PYPI   C4B20588   5.317  12.937   7.979 -0.0330 -0.1770  0.1053
 1312PYPI    C120589  14.045   2.693   5.783  0.0127 -0.1888  0.0407
 1312PYPI    C220590  13.812   2.512   5.513 -0.0116 -0.0952 -0.0014
 1312PYPI    C320591  14.125   2.732   5.393 -0.0294 -0.0438  0.0460
 1312PYPI   PO420592  13.985   2.911   5.922 -0.0449 -0.1954 -0.0330
 1312PYPI   GL120593  13.960   2.952   6.358  0.0005  0.0366 -0.0906
 1312PYPI   GL220594  13.773   3.076   6.599 -0.0590  0.0208  0.1648
 1312PYPI   C1A20595  14.181   2.886   6.857 -0.0744 -0.2301  0.3052
 1312PYPI   C2A20596  14.316   2.852   7.223  0.1935 -0.1768  0.0540
 1312PYPI   D3A20597  14.438   2.794   7.697  0.2232 -0.1581 -0.0161
 1312PYPI   C4A20598  14.311   2.825   8.133  0.2135  0.1090  0.1269
 1312PYPI   C1B20599  13.751   2.997   7.046 -0.0733 -0.0872  0.0450
 1312PYPI   C2B20600  13.698   2.842   7.475  0.2072  0.1165  0.0378
 1312PYPI   C3B20601  13.837   2.855   7.883 -0.0157  0.0839 -0.1716
 1312PYPI   C4B20602  13.828   3.000   8.302  0.2278 -0.2270 -0.1867
 1313PYPI    C120603  15.411   6.846   5.394 -0.2523  0.1540 -0.1538
 1313PYPI    C220604  15.737   6.621   5.336 -0.2297  0.1589 -0.0476
 1313PYPI    C320605  15.457   6.645   5.051 -0.2576 -0.0456 -0.0388
 1313PYPI   PO420606  15.420   6.939   5.692  0.1267  0.2627  0.0756
 1313PYPI   GL120607  15.417   6.909   6.057 -0.1707 -0.1311 -0.1256
 1313PYPI   GL220608  15.528   6.692   6.282 -0.0621 -0.1330 -0.0277
 1313PYPI   C1A20609  15.376   7.220   6.373  0.0830  0.2418 -0.0624
 1313PYPI   C2A20610  15.260   7.192   6.824  0.0007  0.3643  0.0617
 1313PYPI   D3A20611  15.296   7.244   7.300  0.3590  0.0479 -0.0487
 1313PYPI   C4A20612  15.287   7.255   7.764 -0.0192 -0.0398 -0.1225
 1313PYPI   C1B20613  15.484   6.758   6.695  0.3800  0.0211 -0.0537
 1313PYPI   C2B20614  15.383   6.704   7.121 -0.0363 -0.0165  0.1715
 1313PYPI   C3B20615  15.479   6.609   7.494  0.1285  0.0074 -0.1694
 1313PYPI   C4B20616  15.459   6.738   7.904  0.0736 -0.0289 -0.0035
 1314ERGO   ROH20617  13.323   9.019   6.419 -0.2195 -0.0164  0.1496
 1314ERGO    R120618  13.403   8.954   6.682 -0.1327 -0.1235  0.0974
 1314ERGO    R220619  13.504   9.142   6.859  0.1034 -0.2304  0.0800
 1314ERGO    R320620  13.305   9.050   7.019  0.1143 -0.1060  0.1660
 1314ERGO    R420621  13.504   9.157   7.204  0.2031 -0.1114  0.0759
 1314ERGO    R520622  13.418   8.958   7.209  0.1340 -0.0806  0.1670
 1314ERGO    C120623  13.316   9.079   7.555  0.2713  0.0747  0.1542
 1314ERGO    C220624  13.249   9.114   7.956 -0.1822  0.0210 -0.1001
 1315ERGO   ROH20625   9.283  17.367   6.416  0.0552 -0.2497  0.0023
 1315ERGO    R120626   9.219  17.509   6.652  0.2904 -0.0797 -0.0333
 1315ERGO    R220627   9.033  17.417   6.836 -0.0317  0.3761 -0.1172
 1315ERGO    R320628   9.239  17.449   7.010 -0.0259 -0.1249 -0.0199
 1315ERGO    R420629   8.998  17.461   7.177 -0.1112  0.6143 -0.1534
 1315ERGO    R520630   9.158  17.609   7.170  0.3182  0.1786 -0.1320
 1315ERGO    C120631   9.171  17.516   7.539 -0.1520  0.2828 -0.0831
 1315ERGO    C220632   9.134  17.460   7.815  0.4241 -0.1238  0.1125
 1316ERGO   ROH20633  12.799  12.717   6.302  0.0364 -0.1170  0.1609
 1316ERGO    R120634  12.869  12.836   6.549  0.2105 -0.2714  0.1894
 1316ERGO    R220635  12.685  12.963   6.711  0.4406  0.3101  0.0320
 1316ERGO    R320636  12.781  12.792   6.899 -0.1903  0.0400  0.1333
 1316ERGO    R420637  12.722  13.038   7.047  0.4308  0.2471  0.0467
 1316ERGO    R520638  12.911  12.930   7.045  0.1258 -0.3191  0.2002
 1316ERGO    C120639  12.833  12.920   7.418 -0.1671 -0.0433  0.1503
 1316ERGO    C220640  12.853  13.015   7.759  0.0381  0.2018 -0.2039
 1317ERGO   ROH20641  13.445  15.418   6.454 -0.2458  0.2921 -0.0803
 1317ERGO    R120642  13.552  15.446   6.714 -0.0912  0.0890 -0.1192
 1317ERGO    R220643  13.456  15.631   6.895  0.1244  0.0613  0.0255
 1317ERGO    R320644  13.430  15.413   7.056  0.0642 -0.0034 -0.0712
 1317ERGO    R420645  13.497  15.633   7.239  0.3744 -0.1438 -0.0002
 1317ERGO    R520646  13.601  15.442   7.222  0.2113 -0.2238 -0.1760
 1317ERGO    C120647  13.497  15.430   7.589  0.4635 -0.3240 -0.1060
 1317ERGO    C220648  13.466  15.568   7.928  0.0817  0.1468 -0.1989
 1318ERGO   ROH20649  13.368  16.907   6.378  0.0354  0.1328 -0.0341
 1318ERGO    R120650  13.454  16.811   6.630  0.2509  0.2343 -0.0716
 1318ERGO    R220651  13.616  16.959   6.798 -0.1884  0.5938  0.0206
 1318ERGO    R320652  13.418  16.911   6.978 -0.0934 -0.0471 -0.0145
 1318ERGO    R420653  13.661  16.930   7.140 -0.1170  0.7512  0.0288
 1318ERGO    R520654  13.517  16.766   7.140  0.3824  0.2535  0.0056
 1318ERGO    C120655  13.500  16.868   7.507  0.0137  0.2412  0.0006
 1318ERGO    C220656  13.566  16.961   7.900 -0.0183 -0.2400  0.0826
 1319ERGO   ROH20657  15.882   3.330   6.558 -0.0130 -0.2438  0.0095
 1319ERGO    R120658  15.985   3.251   6.809  0.0766 -0.0390  0.0401
 1319ERGO    R220659  16.162   3.406   6.954 -0.0949  0.2143 -0.0127
 1319ERGO    R320660  15.977   3.377   7.150 -0.0670  0.0773 -0.0064
 1319ERGO    R420661  16.230   3.411   7.293 -0.1042  0.3519 -0.0120
 1319ERGO    R520662  16.087   3.248   7.319  0.0540  0.2212  0.0227
 1319ERGO    C120663  16.094   3.385   7.674 -0.0835  0.3035 -0.0056
 1319ERGO    C220664  16.150   3.384   8.044  0.1027 -0.1282  0.0864
 1320ERGO   ROH20665   7.738  10.840   6.673 -0.1076 -0.0766 -0.0073
 1320ERGO    R120666   7.807  10.895   6.942 -0.0717  0.0135 -0.0330
 1320ERGO    R220667   7.653  11.055   7.105 -0.0478  0.0812 -0.0643
 1320ERGO    R320668   7.658  10.839   7.270 -0.0379  0.1320  0.0005
 1320ERGO    R420669   7.691  11.070   7.449 -0.1229  0.1738 -0.0602
 1320ERGO    R520670   7.822  10.895   7.436 -0.0902  0.2033  0.0188
 1320ERGO    C120671   7.719  10.875   7.803 -0.1573  0.2752  0.0031
 1320ERGO    C220672   7.730  10.978   8.082 -0.1148  0.1250 -0.1136
 1321ERGO   ROH20673   0.007   3.291   6.255  0.0671  0.0060 -0.0753
 1321ERGO    R120674  -0.029   3.197   6.520  0.0040  0.0844 -0.0550
 1321ERGO    R220675  -0.001   2.931   6.588 -0.1506  0.0801  0.0059
 1321ERGO    R320676   0.175   3.030   6.771 -0.0992  0.0227 -0.0132
 1321ERGO    R420677  -0.031   2.896   6.931 -0.0895  0.0416  0.0070
 1321ERGO    R520678   0.037   3.101   6.953 -0.0483  0.0232  0.0222
 1321ERGO    C120679   0.116   2.967   7.302 -0.0056 -0.0347 -0.0104
 1321ERGO    C220680   0.106   2.975   7.670 -0.0059  0.0951 -0.2644
 1322ERGO   ROH20681   9.569   2.460   6.545 -0.0724 -0.0798 -0.0037
 1322ERGO    R120682   9.724   2.486   6.780 -0.0710 -0.1618  0.0040
 1322ERGO    R220683   9.669   2.673   6.975  0.0573 -0.0876 -0.0332
 1322ERGO    R320684   9.670   2.456   7.138 -0.1225 -0.0614  0.0058
 1322ERGO    R420685   9.653   2.687   7.320  0.2472  0.0022 -0.0263
 1322ERGO    R520686   9.800   2.525   7.328  0.0606 -0.1780 -0.0721
 1322ERGO    C120687   9.645   2.491   7.674  0.1891  0.0791  0.0144
 1322ERGO    C220688   9.697   2.592   7.942  0.4951  0.0426  0.3473
 1323ERGO   ROH20689   9.208  10.382   6.598 -0.1793 -0.2340  0.0661
 1323ERGO    R120690   9.300  10.453   6.856 -0.0639 -0.1074 -0.0081
 1323ERGO    R220691   9.173  10.642   7.013 -0.0248 -0.0651 -0.0202
 1323ERGO    R320692   9.171  10.441   7.196  0.1062  0.0074  0.0610
 1323ERGO    R420693   9.222  10.683   7.353  0.0998  0.0774 -0.0552
 1323ERGO    R520694   9.341  10.501   7.353  0.1494  0.1146 -0.0306
 1323ERGO    C120695   9.248  10.519   7.722  0.2952  0.2284  0.0007
 1323ERGO    C220696   9.260  10.583   8.013 -0.1504 -0.0242  0.3707
 1324ERGO   ROH20697   0.925  17.145   6.272 -0.0891  0.1865  0.1967
 1324ERGO    R120698   1.061  16.990   6.466 -0.0993  0.1257  0.1550
 1324ERGO    R220699   1.235  17.100   6.650 -0.0696  0.0608  0.1645
 1324ERGO    R320700   1.075  16.974   6.829 -0.0753  0.0482  0.1511
 1324ERGO    R420701   1.271  17.117   6.993 -0.1815  0.1744  0.1719
 1324ERGO    R520702   1.224  16.905   7.004 -0.1001  0.1573  0.2176
 1324ERGO    C120703   1.142  17.009   7.362 -0.2520  0.2287  0.1636
 1324ERGO    C220704   1.190  17.042   7.799  0.1526 -0.0638  0.1523
 1325ERGO   ROH20705   4.075   0.823   6.273 -0.0058 -0.3641 -0.0472
 1325ERGO    R120706   4.068   0.665   6.508 -0.0751 -0.2276  0.0432
 1325ERGO    R220707   4.257   0.686   6.707  0.0316 -0.3156 -0.0482
 1325ERGO    R320708   4.040   0.725   6.866  0.1352  0.0010  0.0237
 1325ERGO    R420709   4.265   0.694   7.052  0.1544 -0.3318 -0.0499
 1325ERGO    R520710   4.078   0.581   7.054 -0.0144 -0.0603  0.0082
 1325ERGO    C120711   4.066   0.735   7.402  0.3230 -0.0441  0.0166
 1325ERGO    C220712   4.124   0.789   7.718  0.1377  0.1669 -0.1443
 1326ERGO   ROH20713   1.767  13.743   6.536 -0.0362  0.2291 -0.0448
 1326ERGO    R120714   1.755  13.606   6.783  0.0831  0.1309 -0.0924
 1326ERGO    R220715   1.907  13.680   7.002 -0.0885  0.2816 -0.0241
 1326ERGO    R320716   1.665  13.688   7.126 -0.1425 -0.1053 -0.0912
 1326ERGO    R420717   1.861  13.667   7.344 -0.1490  0.3224 -0.0304
 1326ERGO    R520718   1.689  13.537   7.311  0.0847 -0.0031 -0.0310
 1326ERGO    C120719   1.608  13.667   7.660 -0.2350 -0.0169 -0.0971
 1326ERGO    C220720   1.577  13.517   7.992 -0.1073 -0.2461  0.1560
 1327ERGO   ROH20721   7.273   6.172   6.518  0.0806 -0.0558 -0.0395
 1327ERGO    R120722   7.436   6.110   6.741  0.2290  0.1359 -0.0889
 1327ERGO    R220723   7.600   6.297   6.863 -0.0744  0.3885 -0.0295
 1327ERGO    R320724   7.465   6.222   7.086  0.0739  0.0487 -0.0507
 1327ERGO    R420725   7.703   6.358   7.187 -0.0928  0.2652 -0.0014
 1327ERGO    R520726   7.636   6.158   7.241  0.1760  0.1469 -0.1364
 1327ERGO    C120727   7.637   6.323   7.585  0.0358 -0.1256 -0.0050
 1327ERGO    C220728   7.665   6.318   7.937 -0.2914 -0.3274  0.1509
 1328ERGO   ROH20729   8.162  13.931   6.496 -0.1342 -0.1453 -0.0846
 1328ERGO    R120730   8.336  13.994   6.711 -0.1828  0.0461 -0.0982
 1328ERGO    R220731   8.272  14.182   6.904 -0.3904 -0.0425 -0.0707
 1328ERGO    R320732   8.323  13.977   7.075 -0.1246 -0.0034 -0.0998
 1328ERGO    R420733   8.280  14.209   7.248 -0.2136 -0.0492 -0.0739
 1328ERGO    R520734   8.452  14.076   7.250 -0.1064  0.0940 -0.1731
 1328ERGO    C120735   8.332  14.032   7.609  0.1390 -0.0165 -0.1031
 1328ERGO    C220736   8.243  14.139   7.841  0.1266 -0.1482  0.1330
 1329ERGO   ROH20737   3.852   2.298   6.305  0.2652 -0.0162 -0.0360
 1329ERGO    R120738   3.705   2.256   6.544  0.1577  0.1872 -0.0638
 1329ERGO    R220739   3.763   2.051   6.721 -0.2487  0.0104 -0.1221
 1329ERGO    R320740   3.776   2.254   6.901  0.1260 -0.0630 -0.0574
 1329ERGO    R420741   3.725   2.017   7.062 -0.1973 -0.0380 -0.1212
 1329ERGO    R520742   3.610   2.201   7.063  0.0898  0.1455 -0.0249
 1329ERGO    C120743   3.714   2.187   7.430  0.1844 -0.1351 -0.0599
 1329ERGO    C220744   3.618   2.056   7.816  0.0946 -0.0716 -0.0722
 1330ERGO   ROH20745   4.302  10.532   6.592 -0.0216  0.0318 -0.0418
 1330ERGO    R120746   4.192  10.523   6.853 -0.0843 -0.1510 -0.0735
 1330ERGO    R220747   4.250  10.320   7.031  0.0662 -0.1496 -0.1177
 1330ERGO    R320748   4.320  10.526   7.194 -0.1780 -0.1247 -0.0391
 1330ERGO    R420749   4.238  10.312   7.377  0.0591 -0.2814 -0.1199
 1330ERGO    R520750   4.162  10.516   7.374 -0.1752 -0.3673 -0.0490
 1330ERGO    C120751   4.297  10.502   7.730 -0.1744 -0.3348 -0.0474
 1330ERGO    C220752   4.323  10.512   8.133 -0.1405 -0.0852  0.2295
 1331ERGO   ROH20753   3.313   3.556   6.509 -0.1404 -0.1521 -0.0793
 1331ERGO    R120754   3.211   3.684   6.740 -0.0161 -0.0290 -0.0905
 1331ERGO    R220755   3.094   3.544   6.948 -0.1387  0.1022 -0.0682
 1331ERGO    R320756   3.278   3.677   7.098 -0.0096 -0.0483 -0.0923
 1331ERGO    R420757   3.087   3.569   7.293 -0.0077  0.0086 -0.0588
 1331ERGO    R520758   3.150   3.777   7.274  0.1084 -0.0228 -0.0208
 1331ERGO    C120759   3.256   3.709   7.634  0.1898 -0.1871 -0.0760
 1331ERGO    C220760   3.185   3.659   7.865  0.0449 -0.2224  0.0490
 1332ERGO   ROH20761  10.963   8.303   6.362  0.1159 -0.1599  0.0668
 1332ERGO    R120762  11.100   8.137   6.547  0.1884 -0.0947  0.0731
 1332ERGO    R220763  11.313   8.227   6.698  0.0728  0.0419  0.1642
 1332ERGO    R320764  11.162   8.137   6.905  0.0720 -0.1228  0.0924
 1332ERGO    R420765  11.420   8.204   7.026 -0.0802  0.2114  0.2279
 1332ERGO    R520766  11.315   8.014   7.041  0.1489  0.0835  0.1908
 1332ERGO    C120767  11.341   8.105   7.411 -0.1700  0.1554  0.1976
 1332ERGO    C220768  11.346   8.281   7.817 -0.0542  0.3061  0.2162
 1333ERGO   ROH20769   4.737  13.053   6.633 -0.2911  0.1061 -0.0166
 1333ERGO    R120770   4.850  12.995   6.886 -0.1721 -0.0405 -0.1018
 1333ERGO    R220771   4.927  13.193   7.063  0.0446 -0.1413 -0.0811
 1333ERGO    R320772   4.764  13.058   7.234  0.0697 -0.1060 -0.0288
 1333ERGO    R420773   4.954  13.198   7.407  0.0648 -0.0309 -0.0837
 1333ERGO    R520774   4.910  12.984   7.409  0.0883 -0.0355 -0.0144
 1333ERGO    C120775   4.817  13.073   7.768  0.1000  0.0665 -0.0362
 1333ERGO    C220776   4.827  13.131   8.122  0.0850 -0.2590 -0.0635
 1334ERGO   ROH20777   2.081   6.354   6.478  0.0320 -0.2146  0.1004
 1334ERGO    R120778   1.962   6.422   6.725  0.0590 -0.2493  0.1238
 1334ERGO    R220779   1.960   6.251   6.942  0.2379 -0.2133  0.1590
 1334ERGO    R320780   2.071   6.464   7.070  0.1360 -0.1137  0.0828
 1334ERGO    R420781   1.966   6.295   7.285  0.2001 -0.0709  0.1417
 1334ERGO    R520782   1.924   6.506   7.254  0.1092 -0.1040  0.0560
 1334ERGO    C120783   2.073   6.519   7.604  0.0825  0.1055  0.0600
 1334ERGO    C220784   2.114   6.451   7.935 -0.0706 -0.3021 -0.0250
 1335ERGO   ROH20785   6.954   5.113   6.475 -0.0101 -0.2693  0.1223
 1335ERGO    R120786   7.089   5.133   6.723 -0.1485  0.0451  0.1786
 1335ERGO    R220787   6.984   5.267   6.940 -0.5594 -0.2019  0.1459
 1335ERGO    R320788   7.028   5.031   7.066 -0.0507 -0.1151  0.1481
 1335ERGO    R420789   7.007   5.227   7.283 -0.6477 -0.1754  0.1550
 1335ERGO    R520790   7.171   5.087   7.250 -0.2816  0.2187  0.2309
 1335ERGO    C120791   7.063   4.982   7.601 -0.2216 -0.0785  0.1624
 1335ERGO    C220792   6.959   5.065   7.886  0.2008  0.1702  0.1532
 1336ERGO   ROH20793   4.948  14.622   6.466  0.0801  0.2421  0.0047
 1336ERGO    R120794   4.888  14.469   6.696 -0.1502  0.2254 -0.0644
 1336ERGO    R220795   5.079  14.399   6.884 -0.2583 -0.1142 -0.0735
 1336ERGO    R320796   4.905  14.515   7.057 -0.1187  0.0528 -0.0428
 1336ERGO    R420797   5.080  14.353   7.226 -0.3004 -0.1947 -0.0841
 1336ERGO    R520798   4.863  14.346   7.221 -0.3117  0.0618 -0.0800
 1336ERGO    C120799   4.918  14.435   7.588 -0.1939 -0.0849 -0.0615
 1336ERGO    C220800   4.933  14.423   7.965  0.1632 -0.0017 -0.2213
 1337ERGO   ROH20801   5.072   7.081   6.771  0.0868  0.2119  0.0042
 1337ERGO    R120802   5.007   7.000   7.034  0.0223  0.1528 -0.0308
 1337ERGO    R220803   5.176   6.845   7.189 -0.0850 -0.0094 -0.0831
 1337ERGO    R320804   5.145   7.048   7.367  0.0324 -0.0611 -0.0009
 1337ERGO    R420805   5.187   6.811   7.533 -0.2695 -0.1939 -0.0929
 1337ERGO    R520806   5.021   6.951   7.548 -0.1460 -0.0360 -0.1016
 1337ERGO    C120807   5.164   6.981   7.900 -0.2668 -0.3498 -0.0215
 1337ERGO    C220808   5.086   6.866   8.217 -0.0037 -0.0791  0.0628
 1338ERGO   ROH20809  16.737   0.224   6.378  0.0238 -0.0107  0.0983
 1338ERGO    R120810  16.639   0.160   6.636  0.0006 -0.0576  0.0781
 1338ERGO    R220811  16.695  -0.080   6.761  0.1142 -0.0205  0.1013
 1338ERGO    R320812  16.783   0.082   6.961 -0.0284  0.0415  0.1150
 1338ERGO    R420813  16.640  -0.134   7.098  0.1956 -0.1184  0.0992
 1338ERGO    R520814  16.606   0.080   7.122 -0.0135 -0.1541  0.1300
 1338ERGO    C120815  16.691  -0.013   7.482  0.1093 -0.1171  0.1108
 1338ERGO    C220816  16.676  -0.007   7.847 -0.1406 -0.3824 -0.1190
 1339ERGO   ROH20817   9.273   8.096   6.487 -0.0499  0.3261 -0.0677
 1339ERGO    R120818   9.392   8.108   6.744 -0.0621  0.2068 -0.0562
 1339ERGO    R220819   9.321   8.297   6.933 -0.0586  0.1279  0.0207
 1339ERGO    R320820   9.281   8.078   7.089 -0.0796  0.0637 -0.0726
 1339ERGO    R420821   9.374   8.286   7.274  0.1014 -0.0638 -0.0080
 1339ERGO    R520822   9.459   8.087   7.249  0.0048 -0.0929 -0.1515
 1339ERGO    C120823   9.367   8.075   7.620  0.1748 -0.2356 -0.1124
 1339ERGO    C220824   9.385   8.151   8.011 -0.0939  0.0337 -0.2504
 1340ERGO   ROH20825  13.938   3.732   6.551 -0.1253  0.0711 -0.0262
 1340ERGO    R120826  14.021   3.868   6.785  0.0359 -0.1571  0.0535
 1340ERGO    R220827  13.847   3.930   6.992  0.0867  0.0012  0.0497
 1340ERGO    R320828  14.031   3.799   7.142 -0.1275 -0.3418  0.0241
 1340ERGO    R420829  13.832   3.892   7.335  0.1464  0.1830  0.0736
 1340ERGO    R520830  14.046   3.926   7.343  0.2378 -0.2795 -0.0356
 1340ERGO    C120831  13.996   3.746   7.676 -0.0200 -0.0332  0.0635
 1340ERGO    C220832  14.013   3.763   8.015  0.0272 -0.0077  0.2144
 1341ERGO   ROH20833  10.013  13.139   6.382  0.2196  0.0556 -0.1301
 1341ERGO    R120834   9.917  13.255   6.622  0.0895 -0.0361 -0.1380
 1341ERGO    R220835   9.815  13.105   6.829  0.2165 -0.1337 -0.1508
 1341ERGO    R320836  10.000  13.239   6.976  0.0758  0.0439 -0.1298
 1341ERGO    R420837   9.840  13.092   7.174  0.2232 -0.1595 -0.1512
 1341ERGO    R520838   9.882  13.307   7.173 -0.0029 -0.1093 -0.1199
 1341ERGO    C120839  10.029  13.211   7.512  0.0949 -0.0079 -0.1319
 1341ERGO    C220840   9.974  13.160   7.870 -0.1280 -0.2067 -0.1051
 1342ERGO   ROH20841  13.904   7.578   6.317  0.0274 -0.0088 -0.0699
 1342ERGO    R120842  13.784   7.529   6.568  0.0144  0.0505 -0.0649
 1342ERGO    R220843  13.896   7.362   6.757 -0.0723 -0.0227 -0.0808
 1342ERGO    R320844  13.872   7.580   6.918  0.0644 -0.0165 -0.0671
 1342ERGO    R420845  13.898   7.354   7.103 -0.1115 -0.0536 -0.0810
 1342ERGO    R520846  13.740   7.504   7.102 -0.0090  0.0593 -0.0858
 1342ERGO    C120847  13.876   7.554   7.455 -0.0060 -0.0658 -0.0682
 1342ERGO    C220848  13.816   7.548   7.807 -0.1139  0.3135 -0.1879
 1343ERGO   ROH20849  11.946   4.767   6.392 -0.0836 -0.2333  0.0831
 1343ERGO    R120850  11.810   4.856   6.623  0.1173  0.0382  0.1004
 1343ERGO    R220851  11.723   4.684   6.821 -0.2078  0.2027  0.1047
 1343ERGO    R320852  11.866   4.849   6.982  0.1450 -0.0813  0.0946
 1343ERGO    R420853  11.693   4.701   7.165 -0.2432  0.3453  0.0956
 1343ERGO    R520854  11.712   4.917   7.152  0.2551  0.3125  0.0489
 1343ERGO    C120855  11.811   4.866   7.517  0.0672  0.1618  0.0808
 1343ERGO    C220856  11.869   4.841   7.934  0.2763  0.0138 -0.2090
 1344ERGO   ROH20857   1.829   7.279   6.460 -0.2821 -0.1619 -0.0045
 1344ERGO    R120858   1.763   7.458   6.669 -0.1757 -0.1423  0.0126
 1344ERGO    R220859   1.584   7.393   6.870 -0.0925 -0.1143  0.0957
 1344ERGO    R320860   1.791   7.462   7.032 -0.0155 -0.1191  0.0008
 1344ERGO    R420861   1.581   7.369   7.214 -0.0056  0.0672  0.1103
 1344ERGO    R520862   1.686   7.560   7.224  0.0812  0.0275 -0.0192
 1344ERGO    C120863   1.774   7.420   7.568  0.1173  0.1684  0.0298
 1344ERGO    C220864   1.865   7.467   7.963  0.1495  0.0493  0.0208
 1345ERGO   ROH20865  14.978  12.814   6.582  0.3120 -0.1635 -0.0352
 1345ERGO    R120866  15.135  12.739   6.806  0.2237 -0.1736  0.0255
 1345ERGO    R220867  15.220  12.920   6.996  0.3110 -0.1453 -0.0300
 1345ERGO    R320868  15.099  12.747   7.168  0.1603  0.0036  0.0146
 1345ERGO    R420869  15.265  12.918   7.339  0.2486 -0.0590 -0.0231
 1345ERGO    R520870  15.267  12.700   7.332  0.0940 -0.0580  0.0583
 1345ERGO    C120871  15.179  12.755   7.699  0.0710  0.1311  0.0229
 1345ERGO    C220872  15.163  12.767   8.028 -0.1613 -0.0104 -0.1414
 1346ERGO   ROH20873   1.725   4.469   6.413 -0.2864 -0.0640 -0.1482
 1346ERGO    R120874   1.627   4.578   6.655 -0.1523 -0.0320 -0.1071
 1346ERGO    R220875   1.456   4.439   6.823 -0.1278  0.0225 -0.0368
 1346ERGO    R320876   1.646   4.496   7.009 -0.0326 -0.0372 -0.1141
 1346ERGO    R420877   1.403   4.442   7.164  0.0031  0.0706 -0.0162
 1346ERGO    R520878   1.528   4.620   7.177  0.0794  0.0231 -0.0782
 1346ERGO    C120879   1.549   4.498   7.538  0.1686  0.0426 -0.0767
 1346ERGO    C220880   1.515   4.518   7.816  0.0877 -0.2647 -0.0315
 1347W        W20881  11.899   3.449   3.216 -0.0965  0.0067  0.2518
 1348W        W20882   2.129  14.551   0.622  0.0735 -0.0884 -0.1627
 1349W        W20883   2.748   2.635   0.073  0.4216  0.1435 -0.0608
 1350W        W20884  12.932   6.363  14.995  0.2006  0.0820  0.1023
 1351W        W20885  15.105  13.087   1.412 -0.0984 -0.1308 -0.3051
 1352W        W20886  14.321   4.711  16.854 -0.3761 -0.1800 -0.2889
 1353W        W20887  12.825  14.625  15.713 -0.2642 -0.0893 -0.5314
 1354W        W20888  10.541   3.863   4.573  0.0104  0.2054  0.1145
 1355W        W20889   9.055  13.051   4.258  0.0403  0.1701  0.0010
 1356W        W20890   2.769   1.229  13.295  0.0959 -0.2342 -0.4885
 1357W        W20891  17.461   2.445   5.160 -0.0217 -0.0732 -0.0944
 1358W        W20892   8.592   1.419  14.222 -0.0736 -0.1825  0.1941
 1359W        W20893   4.544   6.980  13.680  0.0267  0.0762 -0.2394
 1360W        W20894   3.565   1.932   4.356  0.2793 -0.0777 -0.0438
 1361W        W20895   8.803  11.352  15.497 -0.1621 -0.3224  0.1894
 1362W        W20896   0.712   9.852  16.015 -0.2128  0.0668 -0.0825
 1363W        W20897  13.389   5.976   0.779  0.0762  0.0382  0.3800
 1364W        W20898  11.497  12.974  17.053 -0.2383  0.1128  0.3348
 1365W        W20899   5.381   2.350  14.432 -0.0613  0.2095  0.2103
 1366W        W20900   0.889  15.871  14.012 -0.2108  0.0726 -0.1950
 1367W        W20901   5.571  12.054   0.852  0.1149  0.0187 -0.0662
 1368W        W20902  14.352  16.633   4.768  0.0582  0.1496 -0.0657
 1369W        W20903   9.077  11.611  12.455 -0.0549  0.0415 -0.0334
 1370W        W20904   2.626   7.665  13.297  0.0659 -0.1025 -0.1035
 1371W        W20905  10.450   3.126  14.021 -0.1474 -0.0751 -0.0591
 1372W        W20906  10.932   2.042   0.886 -0.1722 -0.2020  0.1003
 1373W        W20907   7.732  16.515  13.694  0.0366  0.3708 -0.0773
 1374W        W20908   5.812  17.039  14.694 -0.1453 -0.3618 -0.0933
 1375W        W20909   9.397   6.512   0.792  0.0388 -0.1807 -0.2795
 1376W        W20910  16.273  10.047  16.986 -0.1277  0.1626  0.1058
 1377W        W20911   4.000  12.738   0.670 -0.1695 -0.2505  0.0982
 1378W        W20912  16.399  15.895  15.548 -0.0048 -0.0207  0.1627
 1379W        W20913  16.020   6.007   1.176  0.3467  0.1389 -0.1671
 1380W        W20914  10.803   5.170   4.712 -0.1774  0.0815 -0.0474
 1381W        W20915  16.536   0.156   1.209  0.0806 -0.4132 -0.1796
 1382W        W20916   2.398  14.990   4.340  0.3210  0.1314 -0.1686
 1383W        W20917   3.066   4.534   1.528  0.0398  0.4296  0.0163
 1384W        W20918   7.780   6.243   2.384  0.0264  0.1817 -0.1154
 1385W        W20919  12.104   7.269  16.999 -0.1350  0.2164 -0.2140
 1386W        W20920   7.833  12.254   4.701 -0.0163  0.0735  0.0112
 1387W        W20921   4.490  16.054   3.067  0.0546 -0.0807  0.1135
 1388W        W20922  10.718   4.798   6.138  0.4162  0.1005 -0.1275
 1389W        W20923   9.344  13.526   1.980  0.0774 -0.1408 -0.1796
 1390W        W20924   8.646   5.601   2.519  0.1250 -0.0019 -0.0537
 1391W        W20925   1.538  14.044   2.847 -0.0735 -0.1382 -0.0848
 1392W        W20926   3.244   1.633  17.158  0.2588  0.1143 -0.0807
 1393W        W20927  14.860  15.918   2.088 -0.0293  0.0474  0.3340
 1394W        W20928   8.335  13.940  13.150 -0.2737 -0.0461  0.1898
 1395W        W20929  16.985  14.606  16.790 -0.1864  0.1094  0.2465
 1396W        W20930   1.413   3.654   5.110  0.1925  0.0503 -0.0770
 1397W        W20931  11.117   9.950   3.374 -0.1880  0.1703  0.1804
 1398W        W20932   7.048   7.692  16.742  0.0239 -0.2966  0.1980
 1399W        W20933  12.402   6.031  14.711  0.0933  0.3053 -0.1094
 1400W        W20934   0.219  14.769  17.268  0.0996 -0.3363  0.1683
 1401W        W20935  11.215   8.434   4.417  0.2656 -0.2468 -0.0363
 1402W        W20936  16.323   2.203  12.464  0.3595  0.3120  0.1214
 1403W        W20937   8.865  11.701   1.931  0.0408 -0.3406 -0.0562
 1404W        W20938   9.304   0.072  11.943  0.1622 -0.0276 -0.0340
 1405W        W20939  11.279  11.084  12.780  0.0166 -0.1266  0.1211
 1406W        W20940  10.955   6.731  13.616  0.2050 -0.0405  0.2034
 1407W        W20941   1.721  14.320   4.717  0.2584 -0.1417  0.2095
 1408W        W20942   6.443   3.746  15.723 -0.0864  0.1093 -0.1734
 1409W        W20943   9.521  14.087   2.456 -0.0879 -0.0500  0.0437
 1410W        W20944   9.962   8.392   1.180  0.2419  0.2009  0.0293
 1411W        W20945   2.031  10.123   0.955  0.2878  0.0670  0.0857
 1412W        W20946   8.374   6.124   0.082  0.2451  0.1103 -0.1321
 1413W        W20947  16.104  16.135  13.740  0.0453 -0.1788 -0.2582
 1414W        W20948  11.752  17.099  12.382  0.0361 -0.0742 -0.0784
 1415W        W20949  11.220   4.373   3.143 -0.0428 -0.0184  0.3976
 1416W        W20950   0.852   8.494  15.256  0.0306 -0.0278  0.2354
 1417W        W20951   6.121   8.824  16.441  0.4352  0.2531  0.1635
 1418W        W20952   1.815   2.675  15.121  0.0654  0.0350  0.0166
 1419W        W20953   0.855   7.216   4.061  0.2302  0.2388  0.1118
 1420W        W20954  12.018   4.129  16.896  0.2031 -0.2192  0.1976
 1421W        W20955  10.350   2.419   4.730 -0.1173  0.2772 -0.0478
 1422W        W20956   0.166   6.313   4.742  0.0539 -0.3051  0.4507
 1423W        W20957   7.715  15.287  13.925 -0.0025  0.0684 -0.0407
 1424W        W20958  13.895   2.718   2.563 -0.0865  0.2599  0.0688
 1425W        W20959  12.629   8.439   0.705  0.3303  0.1386  0.1014
 1426W        W20960  15.664   8.021   2.377 -0.1092  0.0262 -0.0899
 1427W        W20961   8.882   6.011   3.847  0.3591  0.1460  0.0866
 1428W        W20962  11.413   0.740   0.497 -0.2212 -0.2541  0.0813
 1429W        W20963  14.897  17.020  12.621 -0.0237 -0.0214 -0.1137
 1430W        W20964  12.494  15.024  13.868 -0.0508  0.1539 -0.1743
 1431W        W20965  10.416  10.259  14.341 -0.1464  0.0732 -0.0129
 1432W        W20966  12.826  11.310   1.236 -0.1399  0.1272  0.1890
 1433W        W20967  15.118   0.735   2.297 -0.2034 -0.2665 -0.1824
 1434W        W20968  12.844   6.861  15.184 -0.0151  0.0232  0.0676
 1435W        W20969  13.121   2.762   0.160 -0.0813  0.2480  0.4214
 1436W        W20970  16.578  13.121  16.604 -0.1009  0.1229  0.2202
 1437W        W20971  15.241   3.873   5.166 -0.2480 -0.0545 -0.3562
 1438W        W20972  11.538  10.767   0.762 -0.0429 -0.1667  0.0280
 1439W        W20973  11.071   9.426  13.294 -0.4282 -0.1706 -0.0801
 1440W        W20974   4.031   2.983   4.651 -0.1227  0.3360  0.0922
 1441W        W20975  15.660   0.437  14.077 -0.0167 -0.0228  0.0505
 1442W        W20976   3.931   6.933   3.048  0.1242 -0.1659 -0.0964
 1443W        W20977  14.323  12.774   4.322  0.1236  0.2970  0.0765
 1444W        W20978   8.194   8.958  14.885 -0.0525 -0.0632  0.1051
 1445W        W20979   7.415  16.572   1.694  0.0677  0.1212 -0.0706
 1446W        W20980  14.781  16.397   2.022 -0.1538 -0.1851 -0.0745
 1447W        W20981  15.422   4.293  15.898  0.2100 -0.3561  0.1187
 1448W        W20982  11.664   7.708  12.386 -0.0879  0.2233  0.2837
 1449W        W20983  13.424   3.856  12.606  0.3164 -0.2312  0.2130
 1450W        W20984   0.712   7.007  12.463 -0.2008  0.1928  0.1859
 1451W        W20985   2.203  10.665   1.889  0.3336  0.2345 -0.1075
 1452W        W20986   5.432   8.559   4.137 -0.3317 -0.1479 -0.1890
 1453W        W20987   7.107   6.850   3.423 -0.2629 -0.0773 -0.2170
 1454W        W20988   1.452   0.189   3.086 -0.0234  0.0709  0.0484
 1455W        W20989   8.077  12.882   2.348  0.0191  0.1859  0.1954
 1456W        W20990   2.889   3.519  13.983 -0.1812  0.0244 -0.0571
 1457W        W20991  17.334  11.268  16.916 -0.0269  0.1894 -0.1924
 1458W        W20992  12.057  10.430   0.634  0.1481 -0.1319 -0.2541
 1459W        W20993  15.166  13.726   4.673 -0.1213 -0.0034  0.0362
 1460W        W20994   9.585   4.147   2.705  0.1916 -0.0204 -0.0085
 1461W        W20995  10.490  16.913   0.274  0.1842 -0.2006 -0.0729
 1462W        W20996  17.110  12.680  13.295  0.0300 -0.2029 -0.2468
 1463W        W20997  13.150  10.009   3.326 -0.0471  0.1956 -0.0479
 1464W        W20998   1.328  11.794  16.132  0.1861  0.3478 -0.0239
 1465W        W20999   4.292   2.015   1.703  0.1142  0.0356  0.0464
 1466W        W21000  14.513  10.717  15.209 -0.1578  0.2138 -0.0796
 1467W        W21001   1.236   8.993   4.245 -0.5027 -0.2208  0.1400
 1468W        W21002   3.153   0.464   2.863  0.0649  0.0885 -0.1039
 1469W        W21003   0.898  15.373  15.675  0.2232  0.2855 -0.0523
 1470W        W21004   6.509  14.285  15.572 -0.1924 -0.0622 -0.3228
 1471W        W21005   7.781   4.921   4.682  0.0123  0.4287  0.3887
 1472W        W21006   4.450  12.266   0.701  0.2147 -0.0013  0.0833
 1473W        W21007   1.344   2.060  14.574 -0.0698 -0.5109  0.2132
 1474W        W21008  10.852   3.956  17.134 -0.0161  0.0658  0.0363
 1475W        W21009  17.237   0.637   2.320 -0.0909  0.3114  0.2084
 1476W        W21010   0.579  11.756   1.629 -0.3572  0.2029 -0.1456
 1477W        W21011   7.737  15.638   2.239  0.1200  0.1356  0.3873
 1478W        W21012  14.125   9.415  16.480  0.1867  0.0124  0.2201
 1479W        W21013   8.643  13.363   4.158  0.2885  0.0838 -0.0080
 1480W        W21014   0.251   9.555   1.949 -0.3998  0.0281  0.1192
 1481W        W21015   2.307  12.486   2.888 -0.2089  0.0016 -0.1302
 1482W        W21016  15.493  16.773   3.482  0.1727 -0.0120  0.0681
 1483W        W21017  16.387   2.785  13.101 -0.0321 -0.1342  0.0493
 1484W        W21018   0.792  12.664   0.097 -0.1010 -0.0143  0.0657
 1485W        W21019   7.746   4.252  12.982  0.0684 -0.0779  0.0503
 1486W        W21020   4.493   8.802  16.742 -0.0185  0.0101  0.2689
 1487W        W21021  10.904  11.603  14.434  0.1422 -0.0183 -0.0401
 1488W        W21022  15.259   0.583   3.127 -0.0448  0.0736  0.2049
 1489W        W21023   3.816  14.193   2.029  0.1643  0.2046  0.0687
 1490W        W21024  10.351   3.119  17.108  0.1840  0.0599  0.2131
 1491W        W21025   2.288   4.714   5.137  0.0025  0.4173 -0.1860
 1492W        W21026   8.412   5.875   1.150  0.1660  0.4332  0.1297
 1493W        W21027   8.391  14.914  15.023  0.0080 -0.1850  0.2120
 1494W        W21028  11.282   8.046  12.609 -0.4259  0.0426 -0.1004
 1495W        W21029   8.266   1.470  13.776  0.0533  0.1113  0.0111
 1496W        W21030  14.712  11.797  12.933  0.1776  0.0234 -0.1013
 1497W        W21031   3.741  17.411  16.196 -0.0674  0.0193  0.3912
 1498W        W21032   3.242  13.364  14.586 -0.0602 -0.0375  0.0736
 1499W        W21033  14.834  10.760  13.617  0.1137  0.1599  0.3849
 1500W        W21034  15.178   6.118  14.157 -0.1523  0.1405 -0.0928
 1501W        W21035  15.660  12.123  12.482  0.0389  0.1636  0.3850
 1502W        W21036   5.339   1.811  16.696  0.3184  0.0193  0.1927
 1503W        W21037   5.460   9.611   5.054 -0.1521  0.2419  0.1627
 1504W        W21038   2.405   2.992  13.333 -0.2254  0.1063 -0.0964
 1505W        W21039   2.643   6.042  16.219  0.2340 -0.1991 -0.0180
 1506W        W21040   9.845   5.845  14.181  0.3349 -0.0926 -0.1064
 1507W        W21041  15.381  16.760  16.669 -0.0781  0.2044 -0.1768
 1508W        W21042  10.837   1.736   5.079 -0.0315 -0.0210  0.0333
 1509W        W21043  14.869   8.784   0.029  0.0616  0.2382 -0.0948
 1510W        W21044  14.816   0.185  15.301 -0.0013  0.0541 -0.5804
 1511W        W21045   3.144  13.016   3.743  0.1400  0.3022 -0.0760
 1512W        W21046   8.258   1.736   4.561 -0.0472  0.1055 -0.0891
 1513W        W21047  16.346  12.661   0.270 -0.0353 -0.2126  0.1174
 1514W        W21048   3.509  14.857   1.884 -0.0558 -0.1218  0.1422
 1515W        W21049   5.621  11.480   1.046  0.0039 -0.1130  0.0687
 1516W        W21050   3.863   0.215   1.712  0.2050 -0.1005  0.2784
 1517W        W21051   1.482  13.469  14.982 -0.2332 -0.1159  0.0481
 1518W        W21052   5.093   5.849   4.946  0.0899  0.2604  0.1684
 1519W        W21053   9.999   4.087  14.059  0.0185  0.0994 -0.2775
 1520W        W21054  11.707   6.383   4.265 -0.0472 -0.1926  0.1183
 1521W        W21055   1.022   5.715   5.018 -0.0958  0.0037 -0.0341
 1522W        W21056   2.909   2.409  14.295 -0.2056 -0.2639 -0.0466
 1523W        W21057   1.134  11.648   1.498  0.0247  0.1673 -0.1380
 1524W        W21058  16.394   7.963   0.971 -0.1183 -0.1636  0.4503
 1525W        W21059   8.294   8.017  16.657  0.1249 -0.2548 -0.0074
 1526W        W21060  15.499   9.127  14.011  0.2730 -0.3049 -0.1587
 1527W        W21061   2.864   5.687  14.303  0.1360  0.2573  0.0724
 1528W        W21062   8.481  15.674   0.911 -0.1605  0.1309 -0.3460
 1529W        W21063   5.534   3.141  13.106  0.3498 -0.1807  0.3780
 1530W        W21064   7.311  12.941   3.912 -0.0769 -0.2152  0.2972
 1531W        W21065  11.209   6.696  15.306  0.0180  0.0112  0.0260
 1532W        W21066  14.373   5.232  16.919  0.0424  0.0982 -0.1889
 1533W        W21067  17.436  15.796   4.841 -0.1376  0.3003  0.1701
 1534W        W21068  10.455   8.733  14.527 -0.0520  0.0216  0.1282
 1535W        W21069   6.415  11.781   3.379  0.3183 -0.0540  0.0439
 1536W        W21070   2.783  10.350  13.868 -0.0685 -0.3317  0.2019
 1537W        W21071  13.424   0.250   4.925 -0.0657  0.2298 -0.0929
 1538W        W21072   9.069   7.650  14.507  0.2913 -0.0360 -0.2931
 1539W        W21073   8.233  11.501   2.352  0.2346 -0.0219 -0.0463
 1540W        W21074   4.563   7.677   5.014 -0.2251  0.0225 -0.0938
 1541W        W21075   9.934   9.205  14.201 -0.0759  0.2559 -0.1524
 1542W        W21076  13.728   8.001   0.024 -0.3417  0.0875 -0.1108
 1543W        W21077  16.135   7.271   3.832  0.1221 -0.0957  0.0035
 1544W        W21078  16.027   7.935  16.971  0.1717  0.0224  0.4182
 1545W        W21079   2.461  12.227   4.376  0.0379  0.1800  0.1025
 1546W        W21080   3.814  16.151  16.209 -0.0640 -0.1097 -0.1167
 1547W        W21081   3.151   6.961  13.509  0.0618  0.1405 -0.1171
 1548W        W21082  10.690  15.923  14.913 -0.1769  0.0116  0.1347
 1549W        W21083   0.501  15.114   2.912 -0.1192  0.0369  0.1379
 1550W        W21084   5.455   6.379   1.442  0.3098  0.0103  0.1025
 1551W        W21085   1.817  13.302   0.809  0.0911 -0.1145 -0.0115
 1552W        W21086   6.610  13.191  16.559 -0.2009  0.0546  0.0717
 1553W        W21087   8.946  17.118  12.550  0.1929 -0.1864  0.1323
 1554W        W21088  16.624   6.197  14.685 -0.0875 -0.0457  0.0200
 1555W        W21089  15.682   9.877   1.310  0.2235  0.0667 -0.1602
 1556W        W21090  12.014   2.762   2.341 -0.2956 -0.0301  0.2182
 1557W        W21091   9.472  14.051   0.030  0.0396  0.1243  0.2260
 1558W        W21092  13.154   4.634  16.314  0.3626  0.1379 -0.1947
 1559W        W21093   5.313   7.541  13.492  0.1117 -0.2442 -0.0290
 1560W        W21094  10.233  11.611  14.376  0.3364  0.2301  0.0497
 1561W        W21095  11.850   5.154  16.181  0.0744 -0.0755  0.1932
 1562W        W21096  13.109  10.682  15.472 -0.1962 -0.2389  0.2899
 1563W        W21097  16.247  12.533  15.354  0.1971  0.1024 -0.0965
 1564W        W21098   4.724   3.516  14.791  0.0288  0.1455  0.0359
 1565W        W21099  12.065  12.867   2.012 -0.1444  0.0670 -0.0521
 1566W        W21100  13.340  14.737  14.040  0.2157  0.0963 -0.2007
 1567W        W21101   9.073   0.473   2.911 -0.0102 -0.1507 -0.1717
 1568W        W21102  13.032   7.685  13.507  0.0636  0.0975  0.1930
 1569W        W21103  13.298  13.373  13.664 -0.0025  0.3403  0.0816
 1570W        W21104   9.561   1.593   1.844  0.0956 -0.3256  0.2152
 1571W        W21105   5.906   0.639   3.153  0.0493  0.0678 -0.0450
 1572W        W21106   7.481  16.470  14.221  0.2970 -0.0089 -0.2255
 1573W        W21107   0.052   7.322  14.096  0.1530  0.0733 -0.2306
 1574W        W21108   2.186  14.215   0.239 -0.2669  0.1630 -0.2288
 1575W        W21109   5.223   3.339  13.428 -0.4561  0.3611 -0.1194
 1576W        W21110  14.208  14.448  13.309 -0.2227 -0.1239  0.0662
 1577W        W21111   9.254  10.112  16.892 -0.0810  0.0122  0.1087
 1578W        W21112   9.269  15.308  15.019  0.1057  0.0514 -0.0125
 1579W        W21113  11.978   0.541   2.228  0.0538  0.1023  0.0913
 1580W        W21114   9.173  13.091   2.556 -0.2961 -0.1822 -0.1783
 1581W        W21115   1.761   5.533  13.765 -0.0236  0.4225 -0.1297
 1582W        W21116   0.031  16.383  13.701  0.4846  0.0704  0.0409
 1583W        W21117   0.755   7.799   2.656 -0.0385 -0.2738  0.0855
 1584W        W21118  16.887   0.482   1.968  0.2325  0.6139  0.0705
 1585W        W21119   8.360   3.208  15.837 -0.0155  0.0746  0.1264
 1586W        W21120   9.188   3.809  15.465  0.1274 -0.0323  0.2081
 1587W        W21121   2.006   5.531   1.417 -0.2756  0.1635 -0.0349
 1588W        W21122  15.756  11.368   3.383  0.2404 -0.2000  0.0143
 1589W        W21123  16.128  13.063  14.540 -0.0062  0.2357 -0.1829
 1590W        W21124  16.199   6.275   2.835  0.2147 -0.1859  0.2875
 1591W        W21125   5.435   7.558   5.888 -0.0581  0.1624 -0.0786
 1592W        W21126   5.734  15.684   1.112  0.2395  0.3651 -0.1081
 1593W        W21127  11.046  15.436  16.106 -0.0183 -0.1059 -0.0376
 1594W        W21128  12.654  13.123  12.358  0.0081  0.0040 -0.0825
 1595W        W21129   4.286   9.808  12.594  0.2686 -0.0918 -0.0237
 1596W        W21130  15.692  16.863   4.761 -0.0265  0.0106  0.0535
 1597W        W21131  13.386   4.405   3.230 -0.2159 -0.0221  0.0551
 1598W        W21132  12.509   6.063   1.207  0.0824  0.1529 -0.1100
 1599W        W21133  15.444   8.187   1.885  0.1946  0.0368 -0.3587
 1600W        W21134  10.339   0.588  15.188 -0.0143  0.0411  0.3772
 1601W        W21135  10.279  13.732  13.034 -0.3004 -0.0997  0.1096
 1602W        W21136   8.727  12.412  12.589  0.2268  0.0947  0.0547
 1603W        W21137  13.284  10.099  13.774  0.0615 -0.1503  0.0070
 1604W        W21138   8.952   5.422  15.570  0.0824  0.1471  0.2248
 1605W        W21139  12.861   7.665   3.071  0.2402  0.2998  0.1604
 1606W        W21140  14.749   3.684   2.150  0.2188 -0.0243 -0.1733
 1607W        W21141   0.889   5.468   2.180  0.1386  0.2983  0.1215
 1608W        W21142  10.730   3.447   3.916 -0.1203 -0.1424 -0.1456
 1609W        W21143   0.744   7.935   4.263 -0.0176  0.0285 -0.0443
 1610W        W21144   5.699  12.054  16.678 -0.0690 -0.2097 -0.1256
 1611W        W21145  12.363   7.405   2.424 -0.0984  0.1112  0.0831
 1612W        W21146  12.005  15.050  13.870  0.1084  0.0265 -0.1065
 1613W        W21147   1.982  15.787   1.756 -0.0382 -0.0986 -0.1090
 1614W        W21148   1.520   6.712   2.267  0.3249  0.0274  0.1332
 1615W        W21149   9.426   7.667   0.983  0.2660 -0.3109  0.0604
 1616W        W21150  11.588  14.617   3.450 -0.1331  0.1786 -0.1800
 1617W        W21151  13.674   4.011  14.927 -0.1034  0.0625 -0.0856
 1618W        W21152   9.400   2.608   1.695  0.1824 -0.0500  0.2287
 1619W        W21153   5.523  13.852   1.007 -0.0020 -0.0324 -0.0531
 1620W        W21154  14.551   1.400  13.772 -0.4241  0.2028 -0.2988
 1621W        W21155  11.224   0.238  16.713  0.1350  0.1552 -0.0866
 1622W        W21156  13.088   9.297  15.606  0.0938  0.1894  0.0184
 1623W        W21157   0.972  10.822   2.205 -0.2507  0.0228 -0.0399
 1624W        W21158  15.508  14.105  14.002 -0.0390 -0.1084 -0.1325
 1625W        W21159  11.307  16.645  12.820  0.5150  0.1622  0.0394
 1626W        W21160   1.909   9.895  16.043 -0.0359  0.1603 -0.1539
 1627W        W21161   2.971  10.965  17.244 -0.1676  0.1504 -0.1188
 1628W        W21162  12.983   8.844   3.650  0.2789  0.0653 -0.2577
 1629W        W21163   4.346   4.665   4.788 -0.1771  0.6234 -0.0474
 1630W        W21164  17.205   4.252   0.274  0.1060 -0.2774  0.0802
 1631W        W21165   7.875  13.650  16.156  0.2475 -0.1424  0.0906
 1632W        W21166  13.542   5.625  15.358  0.0894  0.0776  0.0129
 1633W        W21167   8.830   1.093  16.766 -0.0009 -0.3118  0.0301
 1634W        W21168   9.870   5.543   1.402  0.0263  0.1733 -0.0335
 1635W        W21169   6.545   8.129   3.194  0.0126  0.0219  0.3504
 1636W        W21170  15.475   1.487  14.107  0.0753  0.0562 -0.1179
 1637W        W21171   7.588   7.331  13.628 -0.2207  0.0157  0.1327
 1638W        W21172   6.924  15.994  16.722 -0.0849 -0.1376 -0.0042
 1639W        W21173   7.991  14.115  15.767  0.0449 -0.1123 -0.1279
 1640W        W21174  11.090  12.444  14.899  0.2361 -0.0562  0.0273
 1641W        W21175  17.079   2.262  13.544  0.2114  0.0773  0.0808
 1642W        W21176  10.681   3.559  12.815 -0.1144  0.1081 -0.1989
 1643W        W21177  14.539   4.661  14.921  0.1317 -0.0536 -0.0949
 1644W        W21178  13.291   4.476   4.664  0.1338 -0.2351 -0.2691
 1645W        W21179   4.247  14.951   1.101 -0.2585  0.0225 -0.1185
 1646W        W21180   5.258  14.770   4.608  0.1519 -0.0280 -0.0794
 1647W        W21181   8.350  14.092  15.422  0.1270  0.0891 -0.0157
 1648W        W21182   4.935   4.771  15.584 -0.0471  0.1446 -0.1766
 1649W        W21183   3.125   8.523   1.545 -0.1274 -0.0021  0.0370
 1650W        W21184   9.252   3.929   3.780  0.1693  0.1040  0.2429
 1651W        W21185   1.987   3.067   1.404 -0.2023  0.1475  0.1356
 1652W        W21186  14.231  11.553  12.927 -0.1477  0.2082  0.0848
 1653W        W21187   8.106   5.355  17.177 -0.0597  0.3853  0.2489
 1654W        W21188  15.670   5.923   0.846  0.1982  0.0182 -0.1356
 1655W        W21189  13.030  11.234  12.583  0.1691  0.1090 -0.2166
 1656W        W21190   0.522  15.810  15.747  0.0343  0.0984 -0.0307
 1657W        W21191   7.321   5.473   2.343  0.4367  0.0207 -0.0622
 1658W        W21192   7.020  15.676   4.961 -0.0257 -0.0456  0.0743
 1659W        W21193  16.399  13.458  15.226  0.0831  0.2430  0.1579
 1660W        W21194   6.493  14.309   0.015  0.1301  0.1423 -0.1104
 1661W        W21195  13.124   0.560  15.042 -0.0954 -0.2490  0.3500
 1662W        W21196  11.348   9.343   4.719  0.1312  0.0370 -0.0727
 1663W        W21197  11.177  14.462  17.047 -0.0283  0.0118 -0.0535
 1664W        W21198   7.470   3.607   3.924 -0.0205 -0.3603  0.0264
 1665W        W21199  14.763   6.759  12.489  0.0953 -0.0739 -0.0599
 1666W        W21200  16.550   4.806  13.886  0.0310  0.2118 -0.0826
 1667W        W21201  14.317  11.151  13.225 -0.2176 -0.1506 -0.0634
 1668W        W21202  17.098   1.291   4.400  0.0084  0.0281 -0.0150
 1669W        W21203  16.977   5.371   0.394  0.1147 -0.2399 -0.0674
 1670W        W21204   7.652  16.642  16.528 -0.1360  0.0205  0.2099
 1671W        W21205  17.455  12.600  15.086  0.3308 -0.0980 -0.3327
 1672W        W21206  16.599   1.811  12.435  0.2094 -0.2505  0.3667
 1673W        W21207   9.473   3.452   3.999 -0.2068 -0.3815 -0.1402
 1674W        W21208   6.914  16.750  15.636 -0.1042 -0.0170  0.1254
 1675W        W21209   7.441   3.375   1.351  0.0436 -0.0781 -0.1676
 1676W        W21210   0.588  11.242  15.835 -0.3046  0.0792 -0.0908
 1677W        W21211  12.571   4.779   4.281  0.1589  0.2370  0.1320
 1678W        W21212   8.839  15.929  13.485  0.1412  0.0235  0.0166
 1679W        W21213   8.068   3.159  16.305  0.0719  0.1995 -0.0007
 1680W        W21214   1.700   7.381   2.448 -0.1871 -0.0582 -0.1631
 1681W        W21215  15.664  13.007  12.365  0.1053 -0.0282 -0.0545
 1682W        W21216   6.485   2.718   0.592  0.1151  0.1464  0.1500
 1683W        W21217  14.825   7.772  15.824  0.4593  0.1220  0.0046
 1684W        W21218   1.694  12.956   0.445 -0.0945  0.2070  0.1240
 1685W        W21219  16.698  15.990   2.515 -0.0619 -0.0889  0.3442
 1686W        W21220   3.716   7.848  16.272 -0.2261  0.0004 -0.4142
 1687W        W21221   5.711  12.384   3.544  0.2445  0.1160  0.1351
 1688W        W21222   0.473  14.695   4.253  0.0090 -0.0913  0.0573
 1689W        W21223  12.524  10.674   2.887  0.0027 -0.2266  0.1437
 1690W        W21224   8.662   4.907   4.603  0.3473 -0.2248 -0.0028
 1691W        W21225  11.442  10.016  13.443 -0.1156  0.2983 -0.0737
 1692W        W21226  16.581   2.554  13.701 -0.1639  0.0911  0.2422
 1693W        W21227  13.164   8.873  12.734 -0.0976 -0.0166  0.3777
 1694W        W21228   8.892  13.154   5.127  0.3164 -0.2789 -0.1020
 1695W        W21229   8.327   6.559  15.161 -0.2280  0.1394 -0.2296
 1696W        W21230   4.700   2.995  14.804 -0.0126  0.1032 -0.0553
 1697W        W21231   4.248   8.849   4.685 -0.3730  0.1636 -0.0819
 1698W        W21232   5.716   1.578  13.793  0.0315  0.2524 -0.0219
 1699W        W21233  10.318   4.644  14.706  0.3880 -0.1855 -0.0702
 1700W        W21234   5.857   7.125  11.216 -0.1879  0.0030 -0.1281
 1701W        W21235   4.513   4.378   3.502 -0.0068 -0.0598  0.3612
 1702W        W21236   6.490   7.172   1.270 -0.4813 -0.0272  0.0879
 1703W        W21237  12.568   9.472  14.954  0.0813 -0.0670 -0.0686
 1704W        W21238  13.999   3.395  14.423  0.2191 -0.1852 -0.0936
 1705W        W21239  10.810   6.288  16.526 -0.0102  0.0435  0.0709
 1706W        W21240   1.740  14.942   2.486 -0.0555 -0.0465 -0.2452
 1707W        W21241   9.311  14.595  16.375 -0.3458 -0.0051  0.3065
 1708W        W21242   9.926  15.968  12.119  0.0430 -0.0651 -0.1198
 1709W        W21243  17.012  11.609   0.526  0.0655  0.1200 -0.2542
 1710W        W21244   6.646  12.625   0.819  0.0060  0.0974  0.0840
 1711W        W21245  16.588   8.155   4.941  0.2154  0.0214 -0.0845
 1712W        W21246  15.135  12.043  16.040 -0.0867  0.0351  0.1000
 1713W        W21247  10.877   7.576   3.816  0.2733  0.0813  0.1278
 1714W        W21248   2.719   6.752  13.692 -0.0701 -0.1464  0.0847
 1715W        W21249   1.872   8.236  13.296 -0.2106  0.3010  0.0201
 1716W        W21250   4.083   8.554  11.531  0.1482  0.2062 -0.1064
 1717W        W21251   1.155   0.513   0.094 -0.1679 -0.0304 -0.1461
 1718W        W21252  12.822  10.228   2.995 -0.2403 -0.0691 -0.0713
 1719W        W21253   1.574   8.955  14.557  0.0491  0.1903  0.0624
 1720W        W21254   9.317   3.819  16.038 -0.2365 -0.2990  0.1284
 1721W        W21255  17.239  15.362  15.572 -0.2374  0.1480  0.0518
 1722W        W21256   6.759  12.067   0.716 -0.2319 -0.3380 -0.4055
 1723W        W21257  12.110   6.639   5.162  0.2010 -0.1032 -0.2568
 1724W        W21258  10.129  11.970   3.483  0.1464 -0.1339 -0.1360
 1725W        W21259  16.365  11.744   4.072 -0.0598 -0.0689  0.2757
 1726W        W21260   3.358   4.889   2.323 -0.0942 -0.1032 -0.0647
 1727W        W21261  12.328   4.361  12.525 -0.1397 -0.2319 -0.2605
 1728W        W21262   5.065   1.124  13.229  0.2032 -0.2311  0.2512
 1729W        W21263  16.544  14.664   5.214 -0.2613 -0.0340  0.1302
 1730W        W21264  10.441  17.455   3.083  0.1557 -0.1186 -0.0895
 1731W        W21265   9.260  14.258  15.845  0.0366 -0.2505 -0.1512
 1732W        W21266   0.453   1.513   2.552  0.0137 -0.1330  0.1727
 1733W        W21267   4.591   5.117  17.206 -0.1692 -0.0263  0.2649
 1734W        W21268  15.534  17.187  17.238 -0.0213 -0.0114 -0.3360
 1735W        W21269   8.319  12.241  16.132 -0.0037  0.0260 -0.0614
 1736W        W21270   9.600   0.380  15.372  0.1326  0.0732 -0.1338
 1737W        W21271   6.950   8.530   6.381  0.2325 -0.0022  0.1817
 1738W        W21272   6.090   6.325  14.147 -0.0453 -0.1546 -0.0235
 1739W        W21273  11.276   7.208   4.594  0.1954  0.0569 -0.2046
 1740W        W21274   4.419  11.680   4.899  0.2360  0.0861  0.1237
 1741W        W21275  13.478  16.136   1.592 -0.0117 -0.0782  0.0546
 1742W        W21276   9.314  15.880   1.756 -0.1598 -0.1735  0.1412
 1743W        W21277   4.848   9.526  12.914 -0.2831 -0.1078  0.1264
 1744W        W21278   9.705   9.185  12.804 -0.0112  0.1893 -0.3509
 1745W        W21279   1.532  10.847  16.156 -0.1271  0.1095 -0.1008
 1746W        W21280  12.583   2.350   1.227  0.1026  0.2176  0.0439
 1747W        W21281  15.513   7.170   2.189 -0.1680  0.0187  0.3514
 1748W        W21282   9.214  10.954   3.834 -0.2373 -0.1208 -0.1112
 1749W        W21283  15.390  15.916   2.831  0.0492  0.2944  0.0916
 1750W        W21284   7.093   3.117   1.555  0.0406 -0.0035  0.0106
 1751W        W21285  15.886   7.879   0.546  0.1060 -0.0162 -0.0149
 1752W        W21286  14.993  13.689  15.153  0.2383 -0.1827 -0.2363
 1753W        W21287  10.686  15.223  13.857 -0.1644 -0.1371  0.3560
 1754W        W21288   8.842  13.947  13.251  0.0255 -0.1290  0.1407
 1755W        W21289   7.232  10.295  14.121 -0.0615  0.2096 -0.1527
 1756W        W21290   2.951  12.354  14.895  0.1789  0.1751 -0.1037
 1757W        W21291  13.984   7.789  15.959  0.1048  0.2370  0.1320
 1758W        W21292  12.608  17.343  16.477 -0.3782  0.2804 -0.2254
 1759W        W21293  11.495   5.869   2.972  0.0305 -0.4112 -0.0388
 1760W        W21294  15.688  10.783  15.466  0.1746 -0.0342  0.1859
 1761W        W21295   8.100  11.158   4.010  0.0408 -0.0157 -0.2896
 1762W        W21296   9.349  11.024   4.872  0.1327 -0.2506  0.2229
 1763W        W21297  13.135  11.418   3.814  0.1586 -0.0791  0.1177
 1764W        W21298  13.542   3.139  13.532  0.1974 -0.1041  0.0116
 1765W        W21299  15.834  10.748  14.633 -0.2284  0.0138 -0.3565
 1766W        W21300   6.476  14.008   3.026  0.0891  0.4260 -0.0122
 1767W        W21301   3.655  17.081  14.115  0.2451 -0.0823  0.0911
 1768W        W21302   2.876   6.675  16.938 -0.3575 -0.2677  0.2253
 1769W        W21303  11.181   7.670   3.270  0.0530 -0.3367 -0.0096
 1770W        W21304   9.045   2.362  13.130  0.1898  0.1366  0.0357
 1771W        W21305  14.854   3.526   4.524 -0.1246  0.3223  0.1251
 1772W        W21306   1.156   2.388  15.059 -0.1120 -0.1595 -0.1297
 1773W        W21307  16.342   1.743  13.465  0.0816  0.0319 -0.0072
 1774W        W21308   0.756   0.281   3.194  0.0519 -0.0197  0.1542
 1775W        W21309   8.526   0.826   1.292  0.2378  0.0188  0.0187
 1776W        W21310  12.949  12.170   0.005  0.1028  0.0577 -0.0670
 1777W        W21311  12.353   0.943  14.426  0.1964 -0.2259  0.1880
 1778W        W21312   9.999  12.590   2.177  0.0768 -0.1417  0.2501
 1779W        W21313  10.908   5.133   0.513 -0.1410 -0.1430 -0.1804
 1780W        W21314   6.921  16.694   1.830 -0.3687  0.4339 -0.0544
 1781W        W21315  14.775  15.394   4.148 -0.0112  0.1254 -0.3240
 1782W        W21316  16.707   8.110  12.750 -0.2384  0.1233  0.1435
 1783W        W21317   3.897  10.736  12.416  0.1897 -0.2152 -0.2218
 1784W        W21318   7.023  15.990  14.674 -0.0980  0.0941 -0.0653
 1785W        W21319   9.574   8.262  16.613  0.1142 -0.0175  0.1122
 1786W        W21320   4.625  12.008  16.121 -0.0375  0.0134  0.3031
 1787W        W21321  11.588  13.771  14.275  0.2267  0.1396 -0.0753
 1788W        W21322  15.853   6.138   5.042 -0.0115  0.2311 -0.0270
 1789W        W21323  16.988   7.785  15.490  0.0006 -0.0355 -0.1301
 1790W        W21324   4.050   6.422  13.947  0.0741  0.1057  0.1753
 1791W        W21325  15.053   9.991   3.806 -0.0016 -0.1132  0.1137
 1792W        W21326   9.262   9.218   3.768 -0.1675  0.1176  0.1438
 1793W        W21327   3.212  16.475   1.971 -0.0347  0.0053  0.0716
 1794W        W21328   9.309  11.996  14.679 -0.0139 -0.2313 -0.0546
 1795W        W21329  10.245  11.539   1.041  0.2709  0.1631 -0.1259
 1796W        W21330   9.213   3.809  12.399  0.0604  0.0595 -0.0081
 1797W        W21331   9.157  16.755   0.897  0.0445  0.0195  0.2532
 1798W        W21332  10.428   1.138   2.351  0.1182  0.1288 -0.1326
 1799W        W21333  10.904   8.074  14.478  0.3650 -0.1266  0.5100
 1800W        W21334  17.374  13.883   0.286  0.1250 -0.1900 -0.0521
 1801W        W21335   0.380  17.006   0.617  0.1487 -0.0509  0.0844
 1802W        W21336   7.887  16.772   4.711  0.0130  0.0787  0.0894
 1803W        W21337   1.766   0.152   2.475  0.0425 -0.0613 -0.1541
 1804W        W21338  12.803   3.258   0.895 -0.1352 -0.1024  0.2494
 1805W        W21339   4.143   4.960  15.296 -0.0229 -0.0795  0.0279
 1806W        W21340   4.846  12.985   1.961  0.0481  0.0990  0.0989
 1807W        W21341  12.935  13.375  14.071 -0.1367 -0.2266  0.1041
 1808W        W21342   4.097   0.336  16.135 -0.2147  0.1371 -0.1768
 1809W        W21343   4.376  14.185   4.201 -0.0744 -0.1158 -0.0420
 1810W        W21344   3.327   0.807  13.676  0.0180 -0.0588  0.2954
 1811W        W21345   2.624   5.026   3.858 -0.0882  0.2531  0.1673
 1812W        W21346   2.727   0.859  12.380  0.4757 -0.2440  0.0366
 1813W        W21347   3.344   7.982   4.432 -0.1834 -0.0069 -0.0309
 1814W        W21348  10.120  17.072   4.137 -0.1636 -0.3233  0.0412
 1815W        W21349   7.667  10.744   2.678  0.2964  0.1717  0.0742
 1816W        W21350  16.947  12.528  12.136 -0.0279 -0.1124  0.3964
 1817W        W21351   0.745   1.909   4.300  0.0124 -0.1577 -0.0445
 1818W        W21352  13.386  15.754   3.886 -0.2170  0.0746  0.0676
 1819W        W21353   1.940  14.464  14.443 -0.4366 -0.1072 -0.0664
 1820W        W21354   6.669   7.550  17.056 -0.1512  0.2118  0.1810
 1821W        W21355   4.005  16.723   2.825 -0.0873  0.0181  0.1449
 1822W        W21356  16.078   2.392   0.787 -0.1763 -0.0680 -0.2305
 1823W        W21357   2.054   5.536   6.011 -0.1927 -0.5533 -0.0997
 1824W        W21358   7.083  17.468   1.887 -0.1925 -0.1919 -0.2852
 1825W        W21359  16.207  13.360   4.465 -0.0930  0.0824 -0.2626
 1826W        W21360  17.048   7.166   1.281 -0.2800  0.0741 -0.1337
 1827W        W21361   4.859  13.302   2.430  0.0202  0.0614  0.2568
 1828W        W21362  16.216   3.178  12.381  0.1099 -0.1153  0.0851
 1829W        W21363  11.596  10.118  16.726  0.0855  0.1876  0.0583
 1830W        W21364  11.169   7.239  15.505 -0.0353  0.2270 -0.1973
 1831W        W21365  16.941  11.336   2.399  0.0305  0.1210  0.0635
 1832W        W21366  12.606   8.870  15.536 -0.1323  0.2223 -0.0632
 1833W        W21367   8.264  17.191  14.054  0.0682  0.0093  0.0568
 1834W        W21368   0.620  15.361   2.439  0.2415 -0.0397  0.0622
 1835W        W21369   4.518  15.940  15.318  0.3459 -0.3079 -0.0595
 1836W        W21370   0.278  15.647  16.329  0.0231  0.0255 -0.1773
 1837W        W21371   4.713   1.795  12.251  0.0554 -0.1162  0.1808
 1838W        W21372  14.500   9.534  13.955  0.1186 -0.1580  0.2060
 1839W        W21373   0.397   3.249  17.174 -0.0154 -0.2120 -0.2755
 1840W        W21374   5.226  10.576  16.923 -0.1004 -0.1427  0.1100
 1841W        W21375  15.668  14.647  15.616  0.0620  0.1863  0.0250
 1842W        W21376   5.612   1.509  15.797 -0.0900  0.0930  0.2696
 1843W        W21377   7.250   3.679  14.200  0.1156  0.0371 -0.4218
 1844W        W21378  10.192   6.050   0.604 -0.0367 -0.2035  0.0067
 1845W        W21379   6.395  13.941  15.045 -0.0588  0.0937 -0.0808
 1846W        W21380   7.864   9.293   0.413 -0.2788  0.2116 -0.2046
 1847W        W21381  12.402   8.864   0.877  0.0632  0.1373 -0.5113
 1848W        W21382  10.579   7.432  13.818  0.0784  0.0625 -0.4034
 1849W        W21383   0.332   8.000   2.824  0.1388 -0.0174 -0.3442
 1850W        W21384   4.710   6.732   2.765  0.0374  0.1555 -0.4321
 1851W        W21385   8.538   9.855   4.064  0.0791 -0.0922  0.1985
 1852W        W21386   3.637  16.589  17.058 -0.0180  0.1684 -0.1870
 1853W        W21387  11.698  17.400   2.794  0.0759 -0.1630  0.0761
 1854W        W21388   5.283  14.471  16.201 -0.0776  0.0988  0.3554
 1855W        W21389   3.031   9.251  15.745  0.0106 -0.0643  0.1511
 1856W        W21390  12.232   1.270  16.739  0.3079  0.0028 -0.0966
 1857W        W21391  15.845   1.291  12.448  0.0495 -0.3118 -0.0110
 1858W        W21392   8.925   2.059  14.636 -0.1088 -0.2855  0.0407
 1859W        W21393   0.964  12.374  15.875 -0.3005  0.0813  0.0901
 1860W        W21394   3.184   3.092   2.776  0.0670  0.1441 -0.3137
 1861W        W21395  15.131   1.110   3.175 -0.0275  0.2345 -0.1573
 1862W        W21396   1.840   6.088  13.808 -0.2877  0.0385  0.0707
 1863W        W21397   9.066  16.191  13.908 -0.1329 -0.0255  0.2726
 1864W        W21398  10.939   4.465  17.186 -0.3850 -0.1310 -0.2141
 1865W        W21399  14.250  13.362   1.818 -0.1122 -0.1325 -0.0327
 1866W        W21400  16.790   9.161  15.336 -0.2017  0.0313 -0.1677
 1867W        W21401  13.859   5.771   2.932 -0.0631  0.1614  0.2214
 1868W        W21402  15.061   6.542   6.177  0.0335 -0.3228  0.2980
 1869W        W21403   7.196  16.086  14.103  0.2705  0.0668 -0.0860
 1870W        W21404  12.851  14.293   0.162 -0.3580 -0.0542  0.0645
 1871W        W21405   7.246   9.514   5.160  0.1001 -0.0478  0.1819
 1872W        W21406   5.958  17.127  12.163 -0.0979  0.1146  0.1224
 1873W        W21407   5.365  11.174   1.962  0.4246 -0.1711  0.0101
 1874W        W21408  15.773   9.922  16.056  0.0314 -0.2069  0.1347
 1875W        W21409  14.710  12.729  17.134 -0.1934  0.1807  0.2912
 1876W        W21410  13.673   9.399   2.404  0.0249  0.1390 -0.0761
 1877W        W21411   9.270  12.782  13.396 -0.1003  0.0529  0.1152
 1878W        W21412  11.386   5.720  14.967 -0.2185 -0.1283  0.1420
 1879W        W21413  10.148   5.633   4.045  0.0281  0.2158  0.1208
 1880W        W21414  12.224  11.162  15.336 -0.3513  0.5091 -0.0268
 1881W        W21415  10.674  16.376   1.411 -0.1768 -0.4905  0.1052
 1882W        W21416   8.865   9.937   3.136  0.3061 -0.0916  0.1678
 1883W        W21417   5.566   3.691   4.115  0.1251  0.0581  0.2065
 1884W        W21418   3.428   5.508  16.464 -0.1688  0.1442  0.0571
 1885W        W21419   7.116  16.111  16.233  0.0967 -0.3265  0.2029
 1886W        W21420   7.906  12.660   0.217  0.1342  0.2643  0.2892
 1887W        W21421   6.777  15.831  15.270  0.2066  0.0832  0.2309
 1888W        W21422   0.223  11.611  14.991  0.0552 -0.0884 -0.3346
 1889W        W21423  16.076   3.176  13.319  0.1477 -0.0753 -0.1844
 1890W        W21424  14.453   0.942   2.660 -0.1709  0.4968  0.1025
 1891W        W21425   2.883   8.914  13.722  0.0516 -0.2286 -0.1349
 1892W        W21426   5.810   4.289   3.489  0.0080  0.0358  0.0750
 1893W        W21427   2.867  16.335   0.181 -0.2793 -0.0261 -0.0802
 1894W        W21428   0.288  15.630  16.811 -0.0767 -0.0282 -0.3128
 1895W        W21429   0.203   7.572  13.013  0.0153 -0.1166 -0.1085
 1896W        W21430  11.504   7.232   3.313 -0.0259 -0.1667  0.1455
 1897W        W21431   8.997   5.244   4.448  0.4360 -0.1073  0.0583
 1898W        W21432   0.944   0.521  14.811 -0.0244  0.0955 -0.0968
 1899W        W21433   6.179  11.810   4.626  0.0262  0.0050  0.0794
 1900W        W21434  11.817   0.846  12.122 -0.0277 -0.0506 -0.0348
 1901W        W21435  10.810  15.317  12.232 -0.0661 -0.0126  0.0941
 1902W        W21436   4.964   4.472  14.562 -0.1504  0.2712  0.0206
 1903W        W21437   6.178  11.136   2.301 -0.0085  0.0763 -0.2383
 1904W        W21438   7.388  15.665  14.720 -0.1761 -0.0246 -0.2189
 1905W        W21439   6.038  10.694   2.155  0.2390  0.1838 -0.2183
 1906W        W21440   0.770   8.621  13.957  0.1689  0.0402  0.0896
 1907W        W21441  15.952  15.940  15.245 -0.0130  0.1987 -0.0996
 1908W        W21442   2.575  15.826   1.599 -0.0289  0.1633 -0.1731
 1909W        W21443  13.240  15.151   0.101 -0.0148  0.1613  0.1641
 1910W        W21444  10.503   2.077   2.577  0.1942 -0.2458 -0.2339
 1911W        W21445   4.148   2.620   4.234 -0.0622  0.3540 -0.1287
 1912W        W21446   2.500  15.034  16.659 -0.0276  0.0436 -0.0841
 1913W        W21447  14.909   5.985   4.072  0.1033 -0.2735  0.1235
 1914W        W21448  12.308   2.299   5.173  0.2200  0.0841  0.0339
 1915W        W21449  10.746  12.060   4.182 -0.3182  0.0278  0.0115
 1916W        W21450   4.042   6.200  14.891  0.1392 -0.1811  0.2779
 1917W        W21451  13.192   1.185   3.938 -0.1146  0.2308 -0.1610
 1918W        W21452  13.272   9.186   0.938  0.1924 -0.0040 -0.2283
 1919W        W21453   3.763  14.330   2.526 -0.3386  0.2556 -0.1539
 1920W        W21454  10.080   3.338  14.303 -0.0911 -0.3408 -0.1973
 1921W        W21455   5.859   9.230   0.886  0.3614 -0.1014  0.3817
 1922W        W21456  12.505   5.159   2.371  0.0201 -0.0908  0.0234
 1923W        W21457  13.379   8.306  14.809 -0.3330 -0.0201 -0.2399
 1924W        W21458   8.081   1.308   1.704  0.0964  0.1820 -0.2032
 1925W        W21459  16.536  14.552   2.252 -0.0717  0.1657  0.1426
 1926W        W21460   5.019   1.422  12.217  0.2933  0.2673 -0.1426
 1927W        W21461  10.682   5.567   3.623 -0.1702  0.3583 -0.4683
 1928W        W21462  15.668   2.899   2.942 -0.0607 -0.1011 -0.5447
 1929W        W21463   1.478  16.444  13.034  0.0804  0.2938 -0.1015
 1930W        W21464   4.287  11.769  15.818 -0.1787 -0.1339 -0.0535
 1931W        W21465   7.620   7.407  14.184  0.1090 -0.2231  0.1239
 1932W        W21466   1.066  15.500   0.805 -0.0841 -0.1789  0.0300
 1933W        W21467   4.221   0.660  15.689  0.1651 -0.1340 -0.3327
 1934W        W21468  12.019  16.388   0.069  0.2455 -0.1437 -0.0090
 1935W        W21469   8.485  11.279   2.728 -0.3102 -0.2614 -0.0737
 1936W        W21470  11.984   2.375   4.819  0.3528 -0.1156  0.1996
 1937W        W21471  12.364   0.653   1.284 -0.0973 -0.0265 -0.2066
 1938W        W21472   3.934   2.454  15.035  0.3442 -0.2545 -0.1713
 1939W        W21473   2.614  15.958   4.326  0.0612 -0.1322 -0.3135
 1940W        W21474   3.810   6.942  14.156 -0.2657  0.1021  0.1197
 1941W        W21475   2.028   7.105  14.765 -0.0095 -0.0897 -0.1405
 1942W        W21476   6.134   9.435  13.888 -0.3996  0.2163 -0.4672
 1943W        W21477  14.320  11.807   4.637  0.1801 -0.0291 -0.0696
 1944W        W21478  15.266  14.418  15.331 -0.2115  0.1486  0.2782
 1945W        W21479   8.118   6.133  13.546 -0.0661 -0.0181 -0.2819
 1946W        W21480  13.216   2.180  17.275  0.4207 -0.3002 -0.0610
 1947W        W21481   8.905  12.148   1.134  0.0474  0.0528 -0.0653
 1948W        W21482   6.734  16.210   1.778  0.0373  0.1050 -0.2508
 1949W        W21483   0.958  12.135   1.741  0.0248 -0.3583  0.0813
 1950W        W21484  12.070   7.779   0.437  0.0388 -0.2142  0.1215
 1951W        W21485  17.190   2.024   2.055  0.0527 -0.2390  0.3962
 1952W        W21486  13.504  17.005   1.143  0.2371  0.2666  0.0787
 1953W        W21487   8.536  13.979   0.441 -0.0358  0.0539 -0.1041
 1954W        W21488  11.899   2.040  12.560 -0.1715  0.4433 -0.0952
 1955W        W21489  14.165   1.400  16.966 -0.1605  0.3654 -0.0603
 1956W        W21490  13.805  13.943  15.635  0.0789 -0.1187  0.1194
 1957W        W21491   2.003   5.239   0.731 -0.1760  0.0528 -0.1176
 1958W        W21492  10.047   6.716   4.022  0.2798 -0.2134  0.0116
 1959W        W21493   8.260  14.691   3.234  0.1047  0.1347  0.3179
 1960W        W21494  12.570   8.588  16.897 -0.3399 -0.3250  0.3036
 1961W        W21495   0.688   7.463   3.528 -0.2034  0.1038 -0.1716
 1962W        W21496   7.615  12.817  16.626  0.0149  0.1918 -0.0251
 1963W        W21497  16.442   6.262  17.052 -0.0422  0.2857  0.0918
 1964W        W21498   3.768  15.028   3.109 -0.1360 -0.3180  0.0142
 1965W        W21499   4.873   2.187   1.112  0.1719 -0.1014  0.0193
 1966W        W21500   7.692   8.718   2.786  0.1778 -0.0457 -0.0312
 1967W        W21501  11.304  12.272  17.256 -0.0199  0.2551  0.3867
 1968W        W21502  10.755   4.302   4.831 -0.2836 -0.1835  0.1586
 1969W        W21503   8.825  14.390   0.335  0.0698 -0.0711 -0.0869
 1970W        W21504   0.939   5.415  17.193 -0.0611 -0.1528  0.0140
 1971W        W21505  10.737  10.390  15.272  0.0095 -0.1243  0.1145
 1972W        W21506   3.243  14.433   3.694  0.1913  0.2483  0.1641
 1973W        W21507   9.705   8.503  13.851 -0.2731 -0.0289 -0.3506
 1974W        W21508   7.346  15.564  15.251 -0.0781 -0.1539 -0.0727
 1975W        W21509  10.554   1.854  15.341  0.0106 -0.1068  0.1528
 1976W        W21510  12.778  14.701   3.678  0.1664 -0.2376  0.0247
 1977W        W21511  13.802   8.847  12.437  0.0895 -0.0906  0.0750
 1978W        W21512   3.558   1.338  15.924  0.3726 -0.2712  0.1958
 1979W        W21513  12.455   9.638   0.008  0.1568 -0.1497 -0.0845
 1980W        W21514   9.399   5.957  15.037 -0.0354  0.0153 -0.3102
 1981W        W21515  10.657   6.263   4.452  0.3573 -0.1379 -0.0283
 1982W        W21516  14.524  16.546   0.836 -0.1067 -0.2119  0.0824
 1983W        W21517   4.953   9.761   1.428 -0.2019 -0.0786 -0.1716
 1984W        W21518  15.545   0.896   1.916  0.0833  0.1961  0.0761
 1985W        W21519  15.419   0.909   2.806  0.1860  0.0230 -0.0136
 1986W        W21520  10.452  10.940  12.948  0.0131 -0.1866  0.0827
 1987W        W21521   2.344   7.438   3.931  0.0512 -0.0705  0.0417
 1988W        W21522  16.785   8.778  15.606 -0.1126 -0.1298 -0.0946
 1989W        W21523   7.728   0.329   4.331 -0.0966 -0.1187  0.0217
 1990W        W21524  13.564   0.202  12.193  0.0326 -0.0853  0.0610
 1991W        W21525   7.342   6.733  13.694  0.0900  0.0598  0.1116
 1992W        W21526  13.773  14.015  14.238 -0.3382  0.1053  0.1622
 1993W        W21527   3.388  10.198   3.746 -0.3293 -0.0804  0.1461
 1994W        W21528   4.752   8.719   2.381  0.1648 -0.3565 -0.1231
 1995W        W21529  14.268   5.852  13.363 -0.3477 -0.1068  0.1973
 1996W        W21530  15.921   4.178  12.690  0.4667  0.0337 -0.0618
 1997W        W21531  11.996  15.978   2.391  0.0675  0.0249  0.1051
 1998W        W21532  11.070   4.367  15.503  0.1340  0.1551 -0.1274
 1999W        W21533  14.475   5.789   2.216 -0.1012 -0.1346 -0.1357
 2000W        W21534  13.824  15.512  16.805  0.3717  0.1255 -0.0622
 2001W        W21535   0.584  12.211  13.245  0.2527  0.3849 -0.0763
 2002W        W21536  11.519  17.445   3.870  0.0545  0.2426  0.0048
 2003W        W21537   4.044  15.493  13.391  0.1950  0.1751 -0.2164
 2004W        W21538  17.068  13.470  17.237 -0.0462  0.0177 -0.1973
 2005W        W21539   3.820  12.110   1.215 -0.1387  0.0784 -0.1079
 2006W        W21540  10.023  15.943  17.100 -0.1836  0.3277  0.0609
 2007W        W21541   6.428   8.111   0.270 -0.0123 -0.0664 -0.1295
 2008W        W21542  14.529  10.303  16.141 -0.1617 -0.0094  0.1262
 2009W        W21543  10.988   7.787  16.172 -0.1294  0.0040  0.1833
 2010W        W21544  11.246   1.092   2.879  0.1541 -0.2201  0.1306
 2011W        W21545   3.670  11.255   2.784 -0.0184  0.3383  0.0480
 2012W        W21546   9.876   5.307  13.495  0.1551 -0.1045 -0.3124
 2013W        W21547   8.555   4.651   3.940  0.0723  0.2142  0.1977
 2014W        W21548  11.954   4.999   0.811  0.0209 -0.0111  0.0195
 2015W        W21549  12.707   2.041   2.419 -0.1222 -0.2180 -0.2198
 2016W        W21550  17.368   8.881   2.510  0.0211 -0.0621  0.1198
 2017W        W21551  13.520  17.418  16.111  0.1825  0.1009  0.1327
 2018W        W21552   6.989   9.366  16.218 -0.1105 -0.2928 -0.0347
 2019W        W21553   1.584   8.461  12.930 -0.1039  0.1718 -0.2176
 2020W        W21554  12.723   3.790   2.585  0.1566 -0.3068  0.3082
 2021W        W21555   1.686   8.115   0.658  0.2214  0.1052 -0.1150
 2022W        W21556   4.560  12.887   0.996  0.0917 -0.0668  0.2060
 2023W        W21557  13.390  12.181  12.270  0.1080 -0.0385 -0.4342
 2024W        W21558   5.364  13.843  15.060 -0.3154  0.2802 -0.0212
 2025W        W21559  15.001   1.163  16.619 -0.2654  0.0022 -0.0002
 2026W        W21560   4.086   2.899  12.514  0.2846  0.0158 -0.2962
 2027W        W21561   7.458   0.630  12.806  0.2635  0.1397  0.2042
 2028W        W21562   2.548   7.845  12.364  0.2704 -0.0440 -0.0863
 2029W        W21563   7.874   8.924  14.318 -0.0398  0.0348 -0.0817
 2030W        W21564  15.566   6.679  17.061  0.0344 -0.1254 -0.0110
 2031W        W21565   9.576   2.170   1.529 -0.1129 -0.1478  0.1289
 2032W        W21566   3.822  12.989  15.356  0.1810 -0.0757 -0.1922
 2033W        W21567  14.232  10.454   0.173  0.0248  0.0298  0.1221
 2034W        W21568  11.768  11.185   4.588 -0.2257 -0.3479  0.0035
 2035W        W21569  12.351  15.205  16.776 -0.1739  0.2117  0.4626
 2036W        W21570   6.476  15.445  15.739 -0.2873  0.2790  0.2103
 2037W        W21571  11.130  10.224   1.618  0.1908 -0.0784 -0.0941
 2038W        W21572   9.023  13.029   3.274 -0.1103 -0.1486  0.1020
 2039W        W21573  17.113  17.225  15.827 -0.3031 -0.0993 -0.0028
 2040W        W21574   4.211  10.724  16.737 -0.0515 -0.2495  0.3823
 2041W        W21575   3.621  13.735   3.648 -0.0773  0.1298  0.0342
 2042W        W21576  15.484   8.788  12.833  0.1770 -0.2660 -0.2902
 2043W        W21577   1.410   7.571  15.701 -0.0351 -0.0268  0.2350
 2044W        W21578   6.040   1.476   0.396  0.0695 -0.1360 -0.2761
 2045W        W21579   7.347  12.534   3.561  0.0512 -0.0357  0.0351
 2046W        W21580   0.577  14.325  16.683 -0.0917 -0.3407  0.2542
 2047W        W21581  16.735   9.473   4.921  0.0772  0.1147 -0.1289
 2048W        W21582  12.768  12.923  13.361 -0.2443 -0.0732  0.1202
 2049W        W21583   5.710   2.917   2.947  0.0957  0.2005 -0.0632
 2050W        W21584   9.151   0.674   3.706  0.1504 -0.3195  0.0974
 2051W        W21585   9.692  16.692   1.783 -0.1348  0.0409  0.0632
 2052W        W21586   9.034   4.246  15.903  0.0509 -0.2174  0.0478
 2053W        W21587   7.426  12.872   1.743 -0.1808 -0.1238 -0.2707
 2054W        W21588   3.829   6.662  16.690 -0.0282 -0.1857  0.0232
 2055W        W21589  10.893   1.024  12.721 -0.1475  0.0986  0.1315
 2056W        W21590  12.190  16.739   2.508 -0.0756  0.0265  0.1979
 2057W        W21591  10.210   1.620   1.282 -0.2441  0.0122  0.2587
 2058W        W21592  17.084  12.233  14.950  0.3648  0.0381 -0.2197
 2059W        W21593   5.555  15.337   0.843 -0.1092  0.2627 -0.1607
 2060W        W21594   9.058   2.846   4.389 -0.0792 -0.0102  0.2102
 2061W        W21595   4.089   7.090   0.926 -0.4630  0.1800  0.3474
 2062W        W21596  12.467   5.227  14.659 -0.0247  0.0849  0.0152
 2063W        W21597   1.389  13.762  14.368 -0.0614 -0.1024 -0.1463
 2064W        W21598   2.821  16.367   4.212 -0.0350  0.1856 -0.2147
 2065W        W21599   0.918  15.051   5.023 -0.0557 -0.0973 -0.4296
 2066W        W21600  12.339   3.097   0.491 -0.0859 -0.0106  0.1670
 2067W        W21601   9.718  12.925  12.181  0.1404  0.0442 -0.0951
 2068W        W21602  13.276  12.395   2.586 -0.0462 -0.4135 -0.1770
 2069W        W21603  14.235   2.590  14.888  0.0543 -0.0130  0.0537
 2070W        W21604   7.661   7.851   0.998  0.1827 -0.1489  0.1043
 2071W        W21605  11.595   3.737  15.753 -0.0152  0.0711  0.0137
 2072W        W21606   0.352  10.200  12.450 -0.2112  0.4053  0.2478
 2073W        W21607   0.175   5.833  11.816 -0.1826 -0.1391  0.1313
 2074W        W21608   8.165  13.487   3.831 -0.0158 -0.2477 -0.3855
 2075W        W21609   3.595   4.570   0.217  0.0295 -0.0504 -0.1345
 2076W        W21610  16.015  10.813  15.070  0.0863  0.1090  0.1559
 2077W        W21611   3.412   3.051   2.331 -0.0091  0.0269 -0.0692
 2078W        W21612   9.079  10.857   2.338 -0.1961  0.2341  0.2083
 2079W        W21613   9.084   0.007   2.642  0.0387  0.0357  0.3283
 2080W        W21614   8.187   8.213  15.563  0.0482 -0.0095  0.1305
 2081W        W21615  15.642   9.435  12.261  0.0600 -0.0554 -0.1906
 2082W        W21616   8.957   6.315  15.788  0.0607 -0.0163  0.1673
 2083W        W21617   1.787  15.906  12.295  0.1282 -0.0404 -0.0741
 2084W        W21618  16.855   6.634  16.954 -0.1396 -0.2703  0.0827
 2085W        W21619   0.024   5.104   1.675  0.0507  0.1540  0.2343
 2086W        W21620  12.015   7.263  14.976  0.2528 -0.1167 -0.1077
 2087W        W21621  13.077  12.189   3.123 -0.1695 -0.0993  0.0887
 2088W        W21622   4.116  13.375  15.670  0.0747  0.1525 -0.0321
 2089W        W21623  17.385  16.693  15.157  0.0229 -0.1970  0.1654
 2090W        W21624  16.687   5.998  13.356  0.1532  0.1368  0.1078
 2091W        W21625  15.580   0.582  16.299  0.0663  0.3052 -0.1285
 2092W        W21626  13.741   1.329  12.529  0.0797  0.0338  0.2606
 2093W        W21627   5.323   6.187  16.732 -0.1630  0.3207 -0.1063
 2094W        W21628  12.770  15.606   3.347 -0.0624  0.2596  0.1560
 2095W        W21629  12.601   0.854  15.838  0.1512 -0.2601  0.2083
 2096W        W21630   7.103   9.840  15.308 -0.3441  0.0445 -0.3242
 2097W        W21631   0.960   6.534  16.966 -0.0241  0.3543  0.0215
 2098W        W21632   5.332   2.682   4.235  0.2349  0.1075 -0.2696
 2099W        W21633   2.660   2.881  14.368 -0.2995  0.0241 -0.2953
 2100W        W21634   8.865   7.583   1.755 -0.2144 -0.2642  0.0464
 2101W        W21635  14.888   8.955  14.438  0.0589 -0.1710 -0.2099
 2102W        W21636   2.809  17.281   2.437 -0.1916 -0.1104 -0.0654
 2103W        W21637   9.363  12.844   5.103 -0.0233 -0.0734  0.0778
 2104W        W21638   2.712  16.353  17.039 -0.0956 -0.2599  0.2513
 2105W        W21639  10.435  11.908  14.066 -0.1153  0.2149  0.4011
 2106W        W21640   0.311   4.198   3.220 -0.1516  0.0950  0.0052
 2107W        W21641   8.608   6.904  16.295  0.1730 -0.1234 -0.0637
 2108W        W21642   7.476  15.384  14.310  0.3111 -0.0574 -0.1885
 2109W        W21643   3.974  12.938   3.597 -0.4332  0.3551  0.1925
 2110W        W21644   7.232  15.603  11.795 -0.0494  0.1912 -0.0140
 2111W        W21645  16.482  15.402  17.226  0.0456  0.0700  0.3887
 2112W        W21646  11.656   5.664   2.444  0.1665  0.2977  0.0040
 2113W        W21647   8.591  13.676  12.321  0.1648 -0.2105 -0.3059
 2114W        W21648  14.421  13.109   3.112  0.3278  0.1426  0.1812
 2115W        W21649   9.456  14.859  15.895 -0.3861  0.0738 -0.0968
 2116W        W21650  10.252   4.319   4.438 -0.1853 -0.0290 -0.0515
 2117W        W21651   3.360   4.845  11.556 -0.0353 -0.1222  0.1588
 2118W        W21652  15.479  13.254   2.214  0.0497  0.1761 -0.2018
 2119W        W21653  13.125   7.704   5.430 -0.3633 -0.3226 -0.2878
 2120W        W21654   1.971  15.750  14.603 -0.2666  0.1649 -0.3838
 2121W        W21655   0.962  15.017   2.577  0.3139 -0.0113  0.1000
 2122W        W21656  15.141  10.421   4.048 -0.2497 -0.1087  0.3794
 2123W        W21657   1.417  13.414  16.660  0.0519 -0.1952  0.0277
 2124W        W21658   8.594  15.060  14.061 -0.1005 -0.1258  0.1871
 2125W        W21659   9.705   3.939  16.347  0.0315 -0.1854  0.1695
 2126W        W21660  14.670   0.889   2.153  0.3374 -0.2642 -0.0748
 2127W        W21661  15.794   9.611   3.938  0.0658 -0.1572  0.2503
 2128W        W21662   4.640   6.071   1.695 -0.0347 -0.0485  0.2715
 2129W        W21663   8.859   5.620   0.075  0.0582 -0.1862  0.0781
 2130W        W21664   4.715   4.886  15.093 -0.0972  0.1137 -0.1661
 2131W        W21665  17.408   2.481   3.636  0.2984  0.1346 -0.0810
 2132W        W21666   1.098  17.260  12.682 -0.2291  0.1605  0.0418
 2133W        W21667   7.267   5.130   2.705 -0.1276 -0.1035 -0.2498
 2134W        W21668  15.336   5.174  14.228 -0.0509 -0.1184 -0.1160
 2135W        W21669   0.905  11.879  15.900 -0.0405  0.1062  0.0168
 2136W        W21670  10.447   7.344  13.055  0.2829 -0.2542  0.0642
 2137W        W21671  15.437   5.481  12.886  0.0964 -0.1965  0.0730
 2138W        W21672  12.778   2.048   5.126 -0.1734  0.1334 -0.0022
 2139W        W21673  12.532   0.101  14.402 -0.0761 -0.2850 -0.0148
 2140W        W21674  17.374  11.604   1.866  0.0311  0.0499 -0.0070
 2141W        W21675   0.840  11.997   3.943 -0.0346  0.1836  0.2137
 2142W        W21676   3.745   5.543  16.008 -0.2340  0.0059 -0.0535
 2143W        W21677   1.320  13.961   0.107 -0.2645 -0.1524 -0.1323
 2144W        W21678   8.174  13.900   0.060  0.1392  0.4222  0.4510
 2145W        W21679   2.857  11.475   2.340 -0.1172 -0.2197  0.0260
 2146W        W21680  14.434   8.025  13.743  0.2144  0.3807 -0.1206
 2147W        W21681  12.770   7.641   2.323  0.1923  0.0564 -0.0606
 2148W        W21682   3.215   4.472  14.047 -0.1722  0.0213  0.0006
 2149W        W21683  10.053   6.339   2.078 -0.0861  0.1225 -0.0182
 2150W        W21684  13.786  12.908   3.669 -0.0127  0.0777  0.0878
 2151W        W21685   4.136   9.351   0.215 -0.0972 -0.2248  0.1569
 2152W        W21686   3.904   3.447  13.864  0.0906 -0.0140  0.0010
 2153W        W21687  15.862   6.985   4.172  0.3505 -0.1431 -0.3254
 2154W        W21688   1.799   5.709   1.852 -0.0914  0.0278 -0.3303
 2155W        W21689   6.726   8.435  13.301  0.3813  0.5331 -0.1286
 2156W        W21690  11.962   7.496   3.560  0.1368 -0.1672  0.0062
 2157W        W21691   1.585  12.479   0.629  0.3608 -0.1862  0.0987
 2158W        W21692  11.697  10.559  15.003  0.3678 -0.0764  0.2720
 2159W        W21693  11.893   1.868   0.137  0.0964  0.3430  0.2007
 2160W        W21694  13.770   6.100   4.495 -0.1486  0.2947  0.0994
 2161W        W21695  17.325   0.319   0.369  0.1225  0.0548 -0.0015
 2162W        W21696  12.633   4.456  16.308 -0.2709  0.2002 -0.1150
 2163W        W21697  17.253   6.715   0.506 -0.2403  0.1219  0.0170
 2164W        W21698   3.540   1.013  12.246  0.0157 -0.1891  0.1294
 2165W        W21699  13.307   7.810  16.848 -0.0977 -0.2520  0.2230
 2166W        W21700  11.171   6.240  14.365 -0.1630 -0.0228 -0.0372
 2167W        W21701  15.876  10.504   4.868  0.0486  0.0058  0.1096
 2168W        W21702  13.482  11.736  13.632 -0.0169  0.0569 -0.1014
 2169W        W21703  14.706   9.681  12.262  0.3842 -0.1288  0.1233
 2170W        W21704   2.204   7.852  16.764 -0.2768  0.1096 -0.1865
 2171W        W21705   3.891   5.898  16.350 -0.3639  0.0210 -0.0207
 2172W        W21706  16.582  13.707   1.679 -0.3053 -0.0866 -0.0369
 2173W        W21707  10.924  11.874  17.294 -0.2182 -0.0155 -0.1254
 2174W        W21708  15.017  13.075  12.352  0.1857  0.1104  0.2307
 2175W        W21709  11.201   4.463   2.456 -0.0668  0.1512 -0.3012
 2176W        W21710   0.417  12.411   0.327 -0.1461 -0.0985 -0.0469
 2177W        W21711  13.207   8.597   1.368 -0.0552 -0.0714  0.1784
 2178W        W21712  15.006   3.564   2.838  0.0952 -0.3046 -0.0702
 2179W        W21713  10.892   3.561   2.902 -0.0186 -0.0655  0.2603
 2180W        W21714   6.179   0.024   1.363 -0.0713 -0.3281  0.0165
 2181W        W21715   7.239  11.379  14.936 -0.1023 -0.0768 -0.1634
 2182W        W21716  11.201  17.401  15.295  0.2213 -0.0342  0.2482
 2183W        W21717  11.194   2.643  15.453 -0.0014  0.1010  0.1910
 2184W        W21718  13.945   7.190   0.321  0.1146 -0.1884 -0.4905
 2185W        W21719  15.700  10.339  15.254 -0.1477  0.0893 -0.0177
 2186W        W21720  14.630  12.191  15.320  0.0090  0.0032  0.0458
 2187W        W21721   6.409  12.260   4.989 -0.0769 -0.1343 -0.0594
 2188W        W21722   4.570  12.249  12.190  0.1145  0.0845 -0.1220
 2189W        W21723   7.717   8.829  12.642  0.0829 -0.0237  0.0163
 2190W        W21724  13.639   7.631  12.124 -0.1436 -0.3376 -0.5278
 2191W        W21725   2.372  17.463  16.834  0.0958 -0.1138 -0.2563
 2192W        W21726  17.162   4.903   1.967 -0.0243 -0.5782 -0.2411
 2193W        W21727   5.232   6.238   4.429  0.2783  0.1044  0.4794
 2194W        W21728  14.237   5.167   0.790 -0.1150  0.1288  0.0105
 2195W        W21729   0.105   2.664   3.152 -0.0154 -0.0751 -0.0001
 2196W        W21730  14.332   3.474  12.539  0.2447  0.1888 -0.2412
 2197W        W21731   7.999   6.279  14.860 -0.0426 -0.0534 -0.0908
 2198W        W21732   3.281   9.224  13.725  0.0816  0.1934  0.3682
 2199W        W21733  11.175   7.170  16.074 -0.1150  0.3085 -0.0844
 2200W        W21734   1.955  16.152  15.615  0.1622  0.3192 -0.1123
 2201W        W21735  10.326  16.158   1.051  0.0640  0.0633 -0.0302
 2202W        W21736  10.704   9.300  16.158 -0.2785  0.2686  0.1425
 2203W        W21737  16.152   9.187   1.261  0.1798  0.5071  0.2628
 2204W        W21738  11.153   3.120   2.700  0.1489 -0.2455 -0.3894
 2205W        W21739  16.028   9.160   2.966 -0.0261  0.1188 -0.2671
 2206W        W21740   0.968   1.441   0.223 -0.0847  0.3625  0.1034
 2207W        W21741  16.667   8.977  13.549 -0.0677  0.0990 -0.2018
 2208W        W21742   3.299   8.703  17.099 -0.0061  0.1236 -0.2116
 2209W        W21743   4.526   7.450   4.486 -0.0217  0.0767  0.3274
 2210W        W21744  10.410   5.431  15.900 -0.1366  0.0987 -0.2664
 2211W        W21745   5.352   2.283  16.268 -0.1244 -0.0617  0.0898
 2212W        W21746  13.829  15.019   6.269 -0.0868  0.1323 -0.0617
 2213W        W21747   7.642   0.744   5.115  0.0664  0.1052 -0.0994
 2214W        W21748   9.026  15.467   4.281  0.1194  0.3378  0.0993
 2215W        W21749  15.021   5.527  17.126  0.1259  0.0617 -0.0070
 2216W        W21750  13.649  11.912   1.368 -0.2706  0.0499  0.1465
 2217W        W21751   4.070   9.018   5.083 -0.2782 -0.1411  0.3389
 2218W        W21752   5.437  11.130   2.758 -0.1680 -0.0994  0.0583
 2219W        W21753  12.956   4.184   0.536 -0.0949 -0.1290  0.1815
 2220W        W21754  17.001  13.590   1.959 -0.1104  0.0503  0.3892
 2221W        W21755   2.622  12.840   4.721 -0.1595 -0.0973  0.1968
 2222W        W21756   4.672   3.498  15.675  0.2830 -0.0191  0.1302
 2223W        W21757  10.234   1.594  13.298 -0.0034  0.0884  0.0714
 2224W        W21758  14.961  12.633   2.620 -0.0127 -0.1818 -0.1400
 2225W        W21759  11.540   0.884   4.228  0.0806  0.0158  0.0459
 2226W        W21760   6.020  11.313   1.883  0.0708 -0.1170 -0.0994
 2227W        W21761  11.179   5.094  13.319 -0.0721 -0.0194  0.0278
 2228W        W21762  10.632   5.639   0.319 -0.0499  0.0783 -0.1869
 2229W        W21763  10.830  16.361  15.294  0.3024 -0.0647 -0.0834
 2230W        W21764  10.404   6.656   1.897 -0.1860 -0.1151  0.0198
 2231W        W21765  10.959   8.389   3.469 -0.1241  0.0054 -0.1097
 2232W        W21766   9.635   5.716   4.146 -0.0546  0.4625 -0.1685
 2233W        W21767   9.619   9.256  15.094  0.1211  0.0015 -0.0792
 2234W        W21768   3.717   0.596   0.215  0.1202 -0.2094  0.0959
 2235W        W21769  11.353   5.222   1.623  0.1123 -0.0404  0.0099
 2236W        W21770  10.353  10.149   0.155 -0.0268  0.2584 -0.0345
 2237W        W21771   3.433   8.424   5.574  0.1266  0.1192  0.4608
 2238W        W21772  14.840  14.903  15.745 -0.2598  0.0106  0.1937
 2239W        W21773   8.080  12.874  14.518 -0.0815  0.0302 -0.0671
 2240W        W21774   0.670  10.985   0.901 -0.0997 -0.0958 -0.1876
 2241W        W21775   4.012   6.367  16.285 -0.1872  0.0184  0.0577
 2242W        W21776  12.969   5.130   4.333  0.0572 -0.2330  0.0966
 2243W        W21777   5.897   4.626  15.493  0.1414 -0.2130 -0.1186
 2244W        W21778   0.336   8.653   4.734  0.0652 -0.3137  0.0737
 2245W        W21779   2.007   3.959   0.079 -0.1060  0.1092  0.0736
 2246W        W21780  16.257  12.162  14.362 -0.2680 -0.1249  0.1497
 2247W        W21781   1.468  14.102   4.210 -0.1861 -0.3563  0.2844
 2248W        W21782   2.058   8.550  12.836 -0.1133 -0.1200 -0.1706
 2249W        W21783   7.416   3.362  13.061  0.2790  0.0561 -0.2302
 2250W        W21784   2.916   5.288  13.598  0.0556  0.0123  0.0433
 2251W        W21785   6.882  13.090   0.485  0.1291 -0.1907  0.1972
 2252W        W21786   6.492  10.995   1.326 -0.0051 -0.0786 -0.2796
 2253W        W21787   8.983   4.987   5.042 -0.0811 -0.0687  0.2794
 2254W        W21788  14.124  14.262   1.379  0.1250  0.0639  0.0807
 2255W        W21789  13.857  15.477   0.753 -0.0906 -0.0628  0.0086
 2256W        W21790   9.538  11.749  11.551  0.1295  0.1944 -0.0811
 2257W        W21791  16.548  10.791  14.099 -0.1053  0.1178  0.1139
 2258W        W21792   3.795  13.382  12.367 -0.1336 -0.1097 -0.1322
 2259W        W21793  12.920   5.853   0.964  0.0058 -0.0466 -0.4342
 2260W        W21794   9.091   5.284   3.904 -0.1333 -0.2517 -0.2715
 2261W        W21795   9.404  11.622   2.941 -0.1954 -0.0303 -0.0553
 2262W        W21796  12.972  12.030  13.572  0.3212  0.0572  0.3384
 2263W        W21797   9.127   4.871  12.764 -0.0302  0.3185 -0.1181
 2264W        W21798   8.545   3.584  12.923  0.0363 -0.2027 -0.0397
 2265W        W21799   3.656   3.842   2.471 -0.1311  0.0036  0.0936
 2266W        W21800   4.697   9.334  13.335  0.2401  0.1159 -0.0551
 2267W        W21801   2.266   8.200  14.140  0.0686  0.1207  0.0092
 2268W        W21802   5.021   6.158  17.278 -0.0972 -0.3569  0.1914
 2269W        W21803  16.734   7.208  17.182  0.1451  0.2523  0.0627
 2270W        W21804  10.684   9.975  14.068  0.0493  0.2119 -0.1227
 2271W        W21805   7.830  15.441  13.466 -0.1553  0.2705  0.3263
 2272W        W21806  12.416   9.457   3.112  0.0654 -0.0075  0.1217
 2273W        W21807  17.090   1.590   1.234 -0.2215 -0.1080 -0.1568
 2274W        W21808  16.117   6.123  15.711 -0.3592  0.0024 -0.0906
 2275W        W21809  11.082  14.511   3.609  0.0494 -0.1221  0.3582
 2276W        W21810   1.509   2.070  16.682  0.4780 -0.2059  0.0890
 2277W        W21811   9.079   5.516   0.842  0.1013  0.0687  0.1141
 2278W        W21812  12.037   0.270   1.131  0.0782 -0.2332 -0.1287
 2279W        W21813  15.137   7.191   1.586 -0.2777 -0.0660 -0.2542
 2280W        W21814  17.160   8.098   2.309  0.2031 -0.2156 -0.1686
 2281W        W21815  10.254   1.745  14.616 -0.0052 -0.2406 -0.2231
 2282W        W21816  15.127   2.735  13.196  0.3027  0.0007 -0.2043
 2283W        W21817  12.394   9.428   1.652 -0.0513  0.1042 -0.1384
 2284W        W21818  14.850  15.211   3.607 -0.2137  0.1725  0.3673
 2285W        W21819   7.618   2.375   5.078  0.0547 -0.0961  0.0515
 2286W        W21820   7.304   5.754   0.330 -0.1969 -0.0863 -0.1401
 2287W        W21821   4.117   2.624  16.940 -0.1438  0.0717  0.0025
 2288W        W21822  16.122   5.578   1.508  0.0609 -0.1119  0.0597
 2289W        W21823  11.203  11.616   0.388  0.1112  0.0568 -0.0313
 2290W        W21824  13.334   9.748   1.670 -0.4925  0.0373 -0.2402
 2291W        W21825   9.203  16.432  16.175 -0.3717  0.3043 -0.1599
 2292W        W21826   3.981   5.483   0.398  0.2614  0.1603 -0.2437
 2293W        W21827   2.996  11.597  12.608  0.1830 -0.0434 -0.1768
 2294W        W21828  16.368   1.864   4.336 -0.0729  0.2230  0.2181
 2295W        W21829  11.569  16.721   5.305 -0.2948  0.2253  0.0139
 2296W        W21830  11.614  12.999   1.959  0.3286  0.1936  0.1773
 2297W        W21831   0.969   2.383  14.628 -0.0635 -0.1023  0.0994
 2298W        W21832  13.166  10.943   3.528  0.0299 -0.1452  0.0515
 2299W        W21833   8.142   4.040  15.901 -0.2547 -0.0360 -0.0168
 2300W        W21834  14.398   9.498   3.361  0.0283 -0.2868  0.0880
 2301W        W21835  12.818  14.106  15.413  0.3301  0.0296 -0.2203
 2302W        W21836  12.833   3.425  17.102  0.2523  0.2314  0.2517
 2303W        W21837   7.973  15.462   4.154 -0.2109 -0.2537  0.3655
 2304W        W21838  11.238   3.943   2.110  0.2710  0.2861  0.2313
 2305W        W21839  10.102   0.035   1.626  0.0445  0.0736 -0.2053
 2306W        W21840  14.645  15.571  17.080  0.0650  0.0626  0.1074
 2307W        W21841  15.187  13.595   2.077  0.2505 -0.1746 -0.1411
 2308W        W21842   1.299  14.610   0.331 -0.1033 -0.0640 -0.2529
 2309W        W21843   2.580  14.294   0.586  0.0308 -0.0337 -0.1885
 2310W        W21844  14.279  11.850   2.385  0.1056  0.2837 -0.2731
 2311W        W21845   0.112   5.658  12.344  0.1295 -0.1306 -0.0438
 2312W        W21846  16.111   0.710   3.560  0.2164  0.1974  0.1811
 2313W        W21847  14.064   8.591  13.154  0.1937 -0.1773 -0.0725
 2314W        W21848   0.361   9.743  14.583 -0.0878  0.2147  0.1853
 2315W        W21849   1.473  16.789   0.562  0.0870 -0.0958  0.1680
 2316W        W21850  11.489   0.754   2.582 -0.0268 -0.2363  0.1957
 2317W        W21851   6.409   8.918  13.076  0.0731  0.2496  0.3314
 2318W        W21852   7.358  12.443   0.130 -0.1208  0.2497  0.1305
 2319W        W21853   1.112   0.196  13.103  0.4910  0.0747 -0.0858
 2320W        W21854   3.662  10.109   2.462 -0.2173  0.3083 -0.0576
 2321W        W21855  11.920  12.833  13.365 -0.0531  0.0985 -0.1980
 2322W        W21856   4.147  10.546   1.330 -0.1796 -0.0334 -0.1521
 2323W        W21857   8.603  12.701   5.166 -0.2610  0.0791  0.0279
 2324W        W21858  10.765  14.829   0.120  0.0564  0.0991 -0.2125
 2325W        W21859   3.400   6.097   1.234  0.0601  0.1234 -0.1736
 2326W        W21860   8.113   6.007  15.355  0.1502  0.2109 -0.0877
 2327W        W21861  10.652   1.793  15.918 -0.0063 -0.2340 -0.1076
 2328W        W21862   3.178   1.168  17.308  0.0840 -0.1087  0.0743
 2329W        W21863   1.437  11.973  13.172  0.2594 -0.2950  0.1639
 2330W        W21864   2.440   0.046   4.244  0.4546 -0.1261 -0.0644
 2331W        W21865  13.491   3.004  16.078  0.2079  0.0388 -0.2394
 2332W        W21866   9.516  10.719  15.793 -0.3151 -0.0628  0.3242
 2333W        W21867  11.115  10.894   2.162  0.0162  0.2814  0.4388
 2334W        W21868   0.803   9.618   2.926  0.0745 -0.3602 -0.0220
 2335W        W21869  11.393  16.657  14.715 -0.0843 -0.0639 -0.0676
 2336W        W21870  12.270  16.238  14.802 -0.0588 -0.3292  0.0761
 2337W        W21871   6.504   4.677   4.444 -0.0363 -0.3799 -0.0294
 2338W        W21872  13.305   0.894  15.865  0.1806  0.2306 -0.0810
 2339W        W21873   7.402   5.103   1.591  0.1366 -0.0613  0.0787
 2340W        W21874   1.854  13.539  12.229 -0.0516 -0.1873  0.0159
 2341W        W21875   6.214   6.192   2.120 -0.1885  0.0403  0.2685
 2342W        W21876   5.647   5.225   1.908 -0.2446  0.1652 -0.3053
 2343W        W21877   1.386   8.487   0.840  0.0474 -0.2978  0.0983
 2344W        W21878   2.318  15.524  15.841 -0.1193  0.1416 -0.0420
 2345W        W21879  13.052   8.447   2.481  0.0720 -0.0425  0.0584
 2346W        W21880   9.203  15.477   4.773  0.0809  0.2345  0.1080
 2347W        W21881  12.209   1.435  15.363 -0.3944 -0.2473 -0.1289
 2348W        W21882  12.101  10.836   3.257 -0.2412  0.0553 -0.1261
 2349W        W21883  14.405  12.809  16.176  0.1027  0.0971 -0.0538
 2350W        W21884  16.900   3.088   4.510 -0.1461 -0.0897  0.2308
 2351W        W21885  10.115  10.605  12.789  0.1112  0.0379  0.1124
 2352W        W21886  12.345  11.381   4.002  0.2938 -0.1295  0.0949
 2353W        W21887  17.263   9.100   1.486  0.1265  0.2408 -0.1573
 2354W        W21888   7.764  11.876  13.075 -0.1267  0.0045 -0.3592
 2355W        W21889   2.790  14.617   3.944 -0.0009  0.1914  0.0428
 2356W        W21890   1.932   0.035  14.088  0.2097  0.0140  0.1323
 2357W        W21891   6.294   5.973  15.711  0.0484 -0.1261  0.1643
 2358W        W21892   0.399   8.907   3.326  0.1614  0.0488 -0.0610
 2359W        W21893  10.420   7.608   4.578 -0.1587  0.1631 -0.1175
 2360W        W21894  16.408  13.817  16.016  0.1401  0.3194 -0.0045
 2361W        W21895   6.291   6.096  15.240 -0.0464  0.1267  0.0437
 2362W        W21896  11.988   8.266  13.233  0.0089  0.0710 -0.1195
 2363W        W21897   2.427  12.066   2.593  0.0544  0.1654 -0.0390
 2364W        W21898   4.898   5.613  16.193 -0.1722 -0.2103 -0.1521
 2365W        W21899   6.956  14.790   1.674 -0.1182 -0.0727  0.1410
 2366W        W21900  16.135   4.557   2.979 -0.0992 -0.0500  0.0058
 2367W        W21901   2.607  14.726   2.948 -0.0743  0.0049 -0.1385
 2368W        W21902   9.744  14.162  12.082  0.0756 -0.3044  0.0185
 2369W        W21903   0.410  15.908   5.068 -0.3043 -0.0768 -0.0351
 2370W        W21904  14.923   7.181  16.690 -0.0774  0.0118 -0.0501
 2371W        W21905   1.934  14.385   3.971 -0.1088 -0.0247 -0.1977
 2372W        W21906   9.442   5.611  13.239 -0.0801 -0.0803 -0.0590
 2373W        W21907  14.668   0.456   4.341 -0.1020  0.0155 -0.0918
 2374W        W21908  10.748   4.172   2.157 -0.1841  0.1451 -0.1475
 2375W        W21909   6.822   7.029   3.964 -0.3802 -0.0417 -0.1233
 2376W        W21910  15.423   1.764  16.459  0.0890 -0.0718  0.2321
 2377W        W21911  14.392   1.719  13.419 -0.0817  0.2217 -0.0622
 2378W        W21912  12.785  10.727  15.865 -0.2428 -0.1515 -0.0654
 2379W        W21913  13.575   8.572  15.136  0.1240  0.1075 -0.1232
 2380W        W21914   2.577   1.900   3.770  0.0874 -0.0409 -0.0708
 2381W        W21915   0.887   7.824  15.819 -0.0971 -0.1292 -0.1000
 2382W        W21916  11.050   5.397  14.744  0.1511  0.2396 -0.0910
 2383W        W21917   2.722  17.260  11.981 -0.0116  0.1102 -0.2953
 2384W        W21918   6.144   4.383  12.123  0.2340  0.1627 -0.2573
 2385W        W21919  13.955  11.568   4.827  0.1069  0.2409 -0.0551
 2386W        W21920  12.155  15.445   0.008  0.1391  0.1214 -0.0150
 2387W        W21921  16.306  12.923   3.995 -0.0274 -0.0510  0.2110
 2388W        W21922  15.512   3.736   2.735  0.0278  0.0361  0.1112
 2389W        W21923  17.097  17.090   0.817 -0.2672 -0.2842 -0.0076
 2390W        W21924   0.505   3.825  14.042 -0.0065  0.2418 -0.1219
 2391W        W21925   8.937  10.748   4.446  0.0111  0.3086 -0.2252
 2392W        W21926  15.241  13.683  16.451 -0.2925  0.1613 -0.1669
 2393W        W21927   6.408  16.382  14.684  0.2884 -0.1281 -0.1813
 2394W        W21928  15.335   6.113  12.328  0.0302 -0.1067  0.3845
 2395W        W21929  13.104   5.180   1.394  0.0506 -0.0825 -0.0049
 2396W        W21930  13.561   1.504   2.376  0.1145 -0.1320 -0.0130
 2397W        W21931  13.111  12.994   3.005  0.2121 -0.1512 -0.1077
 2398W        W21932   0.892   3.574  16.598  0.1179  0.3214  0.3096
 2399W        W21933   3.952  14.847   4.690  0.0624  0.0954  0.3389
 2400W        W21934  11.908   8.966  16.226 -0.0662  0.0350 -0.0199
 2401W        W21935  17.152   2.943   4.018  0.1227 -0.0539 -0.1296
 2402W        W21936   5.027   8.021  17.097  0.2258 -0.0425  0.1341
 2403W        W21937  13.058   7.184   0.804 -0.0466 -0.0032  0.3022
 2404W        W21938   5.593  15.216  13.337  0.0451 -0.2414 -0.0509
 2405W        W21939  14.777  16.153  13.032 -0.3939 -0.1664 -0.3358
 2406W        W21940   1.446   2.580   1.576  0.0355 -0.0466  0.1480
 2407W        W21941   8.837   4.535   4.873 -0.0022 -0.1642 -0.0014
 2408W        W21942   9.475   0.854  13.405 -0.1084 -0.2128 -0.2857
 2409W        W21943  10.654   7.655   2.633 -0.0149 -0.0732  0.0064
 2410W        W21944   8.062  13.199  15.983 -0.2227  0.1880  0.2954
 2411W        W21945   4.348  17.397  13.755  0.2234  0.1455 -0.0993
 2412W        W21946   5.956  11.006  13.728 -0.2868  0.1003 -0.0830
 2413W        W21947  14.172   6.370  15.596  0.1237  0.1253 -0.4980
 2414W        W21948   2.750   1.332   1.344  0.1639 -0.1580 -0.2287
 2415W        W21949  11.193  12.924  16.349 -0.2740 -0.1021 -0.1146
 2416W        W21950   3.567  14.286  14.535 -0.3013  0.2459  0.2368
 2417W        W21951   8.399   2.754  14.206 -0.2230 -0.0369  0.0827
 2418W        W21952   7.842   4.972   2.495  0.0024  0.1768 -0.0114
 2419W        W21953   7.021  10.031   3.226 -0.0776  0.0286  0.1990
 2420W        W21954   7.223   4.805   5.206  0.0413  0.1288 -0.2157
 2421W        W21955  11.672   6.875   2.982  0.0965  0.2973  0.0056
 2422W        W21956  13.765   8.675  14.024 -0.1345  0.0590  0.0469
 2423W        W21957  15.055   4.460  16.250  0.0523 -0.3380  0.2287
 2424W        W21958   9.191   7.505   5.042 -0.1101 -0.2155 -0.0101
 2425W        W21959   6.350   6.591   4.839  0.1279  0.0531  0.0164
 2426W        W21960   6.589   4.754  14.808  0.2989  0.1379 -0.1142
 2427W        W21961   2.059  11.309  12.707  0.0051  0.3997 -0.3474
 2428W        W21962   0.145   6.582   1.764 -0.2100 -0.2233  0.0452
 2429W        W21963   2.132  14.052  14.410  0.1357  0.3162 -0.0384
 2430W        W21964   6.340   2.719  16.491  0.0655  0.3412 -0.1183
 2431W        W21965  12.918   4.123  15.172  0.0767 -0.1743  0.0206
 2432W        W21966   8.800   1.912  16.542 -0.1571  0.2001  0.1683
 2433W        W21967   8.825  16.938   4.808 -0.0983  0.1232 -0.2037
 2434W        W21968   3.180   7.726   2.988  0.0876 -0.0492 -0.0491
 2435W        W21969   0.749   1.299  14.000  0.0755  0.0193 -0.0802
 2436W        W21970  12.413   4.714  12.976 -0.0598 -0.1625  0.0982
 2437W        W21971   9.472  11.177  16.454  0.3791  0.0189  0.0590
 2438W        W21972  12.295  10.575  16.141 -0.1018 -0.1277 -0.0830
 2439W        W21973   8.700  13.016   0.089  0.1168 -0.0315  0.0698
 2440W        W21974   7.437  11.961  17.168  0.0903 -0.0535 -0.0601
 2441W        W21975   6.718  14.026  16.873  0.1060  0.0289 -0.0783
 2442W        W21976   5.710  17.134  13.071 -0.0708 -0.0341  0.1793
 2443W        W21977  11.350   7.338  12.602 -0.3214  0.0138  0.1415
 2444W        W21978   0.664   0.500  14.132 -0.2972  0.0213 -0.2870
 2445W        W21979   0.547  10.796  16.277  0.1484  0.0104  0.0912
 2446W        W21980   9.214  16.235   2.964  0.1815  0.2652  0.1708
 2447W        W21981  11.931  10.403   3.499 -0.0496 -0.1083  0.1442
 2448W        W21982   4.695   7.365   3.480  0.0268  0.0030  0.1689
 2449W        W21983  10.228  10.395  16.134  0.1921 -0.1992 -0.2193
 2450W        W21984   7.334   4.665  14.182  0.0358  0.0949 -0.4244
 2451W        W21985   5.443  10.877   3.875  0.0386  0.2152  0.0594
 2452W        W21986   4.203   4.133   0.341  0.1140  0.1259  0.0907
 2453W        W21987   7.610   2.404   0.544  0.1638 -0.1770 -0.0467
 2454W        W21988  14.003   0.404   1.080 -0.1532  0.0157  0.0724
 2455W        W21989  11.668   5.580  17.166  0.1831 -0.0364 -0.1638
 2456W        W21990  11.381   3.331  12.129  0.0652 -0.0902  0.2458
 2457W        W21991  17.420   6.027  15.594  0.2910 -0.1197  0.0543
 2458W        W21992  14.213  16.185   2.054 -0.2973  0.0604 -0.0898
 2459W        W21993  12.774  14.605  12.650 -0.0601 -0.3470  0.1210
 2460W        W21994  13.860   0.111   2.939  0.1996 -0.1708 -0.0146
 2461W        W21995  10.707  15.501   2.333  0.1024  0.1102  0.1568
 2462W        W21996  15.322  14.854  15.914  0.0598 -0.0302  0.1039
 2463W        W21997   4.631  13.396   3.043 -0.1934  0.0794  0.3529
 2464W        W21998  11.628  15.849   3.990  0.1297  0.2447 -0.0531
 2465W        W21999  11.987  13.257  16.703  0.0687 -0.1709  0.0046
 2466W        W22000   6.589  16.694   1.435  0.2797  0.0269 -0.0788
 2467W        W22001   8.730   2.743  16.355  0.0071 -0.2923 -0.1269
 2468W        W22002   4.605  11.595   0.314 -0.1402  0.3544  0.0314
 2469W        W22003   7.000   0.612   1.108  0.1438  0.0207  0.0514
 2470W        W22004   0.578   4.951  14.586 -0.3275 -0.1639 -0.0211
 2471W        W22005   9.032   1.520   1.786 -0.1460  0.2827  0.3369
 2472W        W22006   0.344   9.011   4.303  0.1798 -0.0115 -0.0340
 2473W        W22007   3.757   5.598  16.832 -0.2027 -0.2503  0.0322
 2474W        W22008  14.196   0.114   1.383  0.1403  0.2078 -0.2847
 2475W        W22009  12.156   7.617   1.662 -0.0444  0.1627  0.1306
 2476W        W22010   2.913   4.152   0.773 -0.0172 -0.0427 -0.1446
 2477W        W22011   5.787   3.559   4.513 -0.0931  0.1296  0.1062
 2478W        W22012  10.075   0.466  15.562 -0.1174 -0.0074 -0.4448
 2479W        W22013  12.004  10.441   4.215  0.0853 -0.1094  0.0592
 2480W        W22014  16.185  15.605  12.279 -0.0904 -0.0926 -0.0076
 2481W        W22015  13.200   4.962   3.295 -0.0208 -0.1171 -0.1831
 2482W        W22016   6.352  13.260   0.061  0.0740 -0.0757 -0.1574
 2483W        W22017  14.772   6.309  16.201 -0.0898  0.1989 -0.0972
 2484W        W22018   4.728   1.895   1.947  0.0846 -0.0003 -0.1641
 2485W        W22019   2.030   2.783  12.114  0.1499  0.1821  0.0152
 2486W        W22020  12.914  10.492   3.442  0.0897 -0.1276 -0.0238
 2487W        W22021  12.887   8.360   0.321 -0.0133  0.0389 -0.4460
 2488W        W22022   1.534  11.213   5.749 -0.3861  0.1004  0.0823
 2489W        W22023   4.666   1.458   4.163  0.0774  0.3548 -0.4017
 2490W        W22024  14.229  10.346  16.596  0.2651 -0.1221 -0.3029
 2491W        W22025  10.988   6.406  13.252  0.0082 -0.0420  0.0985
 2492W        W22026  12.957  14.380   5.328 -0.3417 -0.1321 -0.1732
 2493W        W22027   5.796  10.340  14.347  0.0385 -0.1019  0.2308
 2494W        W22028  16.487  10.129   3.586 -0.0274 -0.2409 -0.0087
 2495W        W22029  12.532  14.001   0.935  0.1736 -0.2062  0.2700
 2496W        W22030   4.645   7.151  12.864  0.1904 -0.0498  0.0230
 2497W        W22031   1.800  16.487  17.238  0.1452 -0.0497  0.2357
 2498W        W22032  11.189   5.647   3.744 -0.0934 -0.0376 -0.0297
 2499W        W22033  12.522  14.260  13.669 -0.0818 -0.0649  0.0117
 2500W        W22034   9.448   2.297  17.306  0.1771 -0.0147 -0.0976
 2501W        W22035   6.058   2.363  12.396 -0.2930  0.0226 -0.0253
 2502W        W22036   5.398   5.308  13.170  0.0220 -0.1241  0.1349
 2503W        W22037   8.793   6.351   2.503  0.3648  0.0565  0.0036
 2504W        W22038   3.461   4.082   2.876  0.0656 -0.0868  0.0374
 2505W        W22039   0.265   7.500   2.527 -0.0274 -0.2202  0.1302
 2506W        W22040   0.568   6.213  12.473  0.0601  0.1732  0.0566
 2507W        W22041  11.643   0.599  17.299 -0.0732  0.0364 -0.0860
 2508W        W22042   6.603   1.603  14.266 -0.1159  0.0580 -0.0466
 2509W        W22043   5.468   3.927   3.247  0.0930 -0.0845 -0.1018
 2510W        W22044   5.183  10.861  12.523  0.0045  0.3497  0.1876
 2511W        W22045   4.135  11.993   4.552 -0.3173  0.1199  0.1513
 2512W        W22046  13.558  13.612   4.214 -0.1462  0.0555  0.0522
 2513W        W22047  16.988  10.652  12.928  0.2661 -0.0477 -0.1752
 2514W        W22048  14.487  16.119  15.146 -0.2962 -0.1903  0.1196
 2515W        W22049   6.309   2.280   0.922 -0.0441  0.4720 -0.2414
 2516W        W22050   7.502   0.703  14.089  0.0262  0.2453 -0.0092
 2517W        W22051  13.298  11.703  16.201 -0.0679 -0.0097 -0.0840
 2518W        W22052   3.300  15.621  14.043 -0.0740  0.1612  0.0676
 2519W        W22053  14.815  12.717  12.740  0.1504 -0.1772  0.2358
 2520W        W22054   9.213  17.203   2.210 -0.3552 -0.0362  0.3593
 2521W        W22055   4.511  12.735   0.525  0.5403  0.1942 -0.1226
 2522W        W22056  12.529  16.380   1.779 -0.1245  0.1716 -0.0473
 2523W        W22057   1.694  14.745  16.412 -0.0270  0.0635 -0.1280
 2524W        W22058  11.895   2.260   2.505  0.1749  0.3101  0.0006
 2525W        W22059   6.359   0.289  16.870 -0.1429 -0.0753 -0.3049
 2526W        W22060   2.782   4.082  14.866 -0.0153 -0.3148  0.1813
 2527W        W22061   2.743   0.703   3.586  0.0460 -0.0006  0.0535
 2528W        W22062  13.036  10.041   5.218  0.2665  0.1126 -0.0403
 2529W        W22063   6.298   5.881   3.890  0.2382 -0.1233  0.0941
 2530W        W22064   8.734  11.316   1.070 -0.1299 -0.0699  0.0994
 2531W        W22065  16.927   9.230   1.807 -0.0104 -0.1708  0.2435
 2532W        W22066   9.867  13.792   4.331 -0.0071  0.3517 -0.0699
 2533W        W22067  13.513   7.475  11.344 -0.1543 -0.1030  0.2130
 2534W        W22068   5.131   9.594  15.553 -0.0861 -0.0873 -0.1615
 2535W        W22069   5.381   8.626   3.637 -0.3593  0.0084  0.2539
 2536W        W22070  15.975  15.574  16.433 -0.0310  0.2485  0.0804
 2537W        W22071   8.537   9.812   5.212 -0.2235  0.0646  0.0683
 2538W        W22072   7.673   5.219   2.091 -0.1617  0.0461  0.0509
 2539W        W22073   6.119   5.523   0.758  0.1897 -0.0150 -0.0403
 2540W        W22074  12.069   1.397   0.184 -0.1220 -0.2793 -0.1067
 2541W        W22075   1.513  11.525  12.818  0.1557 -0.0932 -0.0958
 2542W        W22076   2.929  14.847  13.028 -0.3676 -0.1361  0.2419
 2543W        W22077  14.657  16.350  14.730  0.1746  0.0922 -0.2861
 2544W        W22078   7.434   9.080   0.623  0.0590  0.1711  0.3384
 2545W        W22079  14.701   2.455   3.662 -0.1431  0.0980 -0.1749
 2546W        W22080   4.628   6.522  13.956  0.0254 -0.2492  0.3421
 2547W        W22081   4.918   7.143   4.305  0.2182 -0.1438 -0.1130
 2548W        W22082   5.931   0.101   4.535 -0.1122 -0.2218 -0.1585
 2549W        W22083  17.272   4.428  14.472  0.1239  0.2671  0.0064
 2550W        W22084   0.287  15.578   3.894  0.1007  0.2912  0.0420
 2551W        W22085   6.684  13.722  12.939 -0.2655  0.2183 -0.1949
 2552W        W22086  16.908  14.568  15.965 -0.2205  0.1284 -0.0469
 2553W        W22087  17.145  13.906  14.268 -0.1948  0.2294  0.0012
 2554W        W22088  14.526   2.158   2.209 -0.3311 -0.0279  0.0015
 2555W        W22089  13.132  17.343  15.323  0.1785  0.1565  0.0092
 2556W        W22090   4.550   8.426  14.172  0.0623 -0.1042 -0.2065
 2557W        W22091   0.340  12.619  13.382  0.1345  0.1241  0.1043
 2558W        W22092   9.333   6.999   4.715 -0.0973 -0.0847 -0.0344
 2559W        W22093   6.144   4.274  17.141 -0.3001  0.0833  0.0032
 2560W        W22094   3.587  17.102  12.107  0.2711  0.0127  0.1713
 2561W        W22095  13.244  10.308  17.224 -0.0015 -0.1374  0.1392
 2562W        W22096  15.269  12.040  17.188 -0.1750  0.4244 -0.2200
 2563W        W22097  13.770   0.781   3.480 -0.0343  0.1386 -0.1224
 2564W        W22098  17.201   2.758  13.681  0.1140  0.0525  0.0375
 2565W        W22099   4.591   4.396   0.160 -0.0409 -0.0946  0.2682
 2566W        W22100   2.551   9.432   0.725 -0.1356 -0.0818  0.1168
 2567W        W22101   8.002   8.437   3.111  0.1368 -0.2448  0.0207
 2568W        W22102  17.244  14.972  12.106 -0.0146 -0.0326  0.1217
 2569W        W22103   2.703  13.918  16.924  0.0998  0.0496  0.1329
 2570W        W22104  14.818   1.307   1.111  0.0094 -0.0760  0.1665
 2571W        W22105   3.703   6.091  13.852  0.2719  0.3393  0.2222
 2572W        W22106  13.711  12.102   2.626  0.0208 -0.0697  0.1484
 2573W        W22107   8.387   5.469   1.508 -0.0332 -0.3949 -0.0810
 2574W        W22108  15.994   8.326   0.800  0.2429 -0.1500  0.0136
 2575W        W22109  15.824   4.616   2.588  0.0576 -0.2094  0.1530
 2576W        W22110   5.864   6.379  15.494 -0.1382  0.2850 -0.1092
 2577W        W22111  16.313  13.194   2.591 -0.1601 -0.0355  0.0781
 2578W        W22112  10.612  11.127   1.228 -0.0896 -0.1447 -0.3135
 2579W        W22113   1.211   1.944   3.341  0.0277  0.1056 -0.0193
 2580W        W22114  13.169  12.227   4.166 -0.3076 -0.2416  0.0590
 2581W        W22115   4.602   0.507   0.210  0.1323  0.0623  0.0706
 2582W        W22116   4.928  10.020   5.353  0.0001 -0.1007  0.0306
 2583W        W22117  10.584  10.207   4.115  0.1718 -0.1407  0.0810
 2584W        W22118  15.505   4.942  14.948 -0.1237  0.0548  0.3369
 2585W        W22119   9.056   6.352  13.640 -0.1087 -0.3403  0.0358
 2586W        W22120   1.289  15.401   1.209 -0.0413  0.2592 -0.4709
 2587W        W22121  10.637  12.667  15.151  0.1380 -0.2149  0.0693
 2588W        W22122  11.746   4.217  14.946 -0.0439 -0.1048 -0.0583
 2589W        W22123   7.036   0.296  14.727  0.0158  0.0057 -0.2370
 2590W        W22124  13.634   6.740  12.516 -0.1805 -0.1133 -0.0252
 2591W        W22125  17.121   9.847   3.575 -0.2689  0.1090  0.0650
 2592W        W22126   1.794   0.686  17.160 -0.2025 -0.0618  0.2202
 2593W        W22127   1.969   1.055   2.234 -0.0623 -0.2512 -0.1829
 2594W        W22128   6.701  16.036  12.286 -0.2552  0.1572  0.1929
 2595W        W22129   1.501   9.734   3.598  0.1028  0.2421  0.1637
 2596W        W22130  10.712   0.982   4.654 -0.2254  0.1467  0.1606
 2597W        W22131  17.197   4.120   1.362 -0.0983 -0.0518  0.0683
 2598W        W22132   8.378   6.463   4.453 -0.1672 -0.3430  0.1366
 2599W        W22133   2.189   9.270  16.575 -0.2202 -0.0541 -0.0129
 2600W        W22134   5.790  14.209   1.218 -0.1054 -0.0181  0.0644
 2601W        W22135   0.809  10.847   3.650  0.1092  0.1089 -0.1918
 2602W        W22136   4.967   7.684   1.665  0.1870  0.2280  0.1380
 2603W        W22137   2.873   8.634   2.955  0.1845 -0.0692  0.0921
 2604W        W22138   4.320  12.927   2.032  0.1239  0.0392  0.0327
 2605W        W22139   1.027   7.525   4.414  0.0781  0.0571  0.0536
 2606W        W22140  13.561   1.783   1.100 -0.0479 -0.1338  0.0690
 2607W        W22141   2.383  14.531   2.291 -0.2639 -0.0744 -0.1048
 2608W        W22142   5.552   1.005  13.020 -0.0050 -0.0734  0.1960
 2609W        W22143  14.534  11.307   3.953  0.1955  0.2954  0.0731
 2610W        W22144   0.766   5.336  15.193  0.1104  0.3024 -0.2112
 2611W        W22145  14.258   6.867  15.013  0.0859 -0.1369 -0.2501
 2612W        W22146   5.091  12.171   0.613 -0.1010 -0.1561  0.3604
 2613W        W22147   0.888   8.318  13.565  0.0281  0.0343 -0.0963
 2614W        W22148   5.596   9.365  13.351 -0.0421  0.0504 -0.1189
 2615W        W22149   7.014   8.571  16.200 -0.2285  0.0823 -0.0136
 2616W        W22150  15.949  13.822  14.085 -0.2154 -0.0714  0.1027
 2617W        W22151   3.100  16.493  14.385  0.0469  0.1518  0.0066
 2618W        W22152   2.889   1.162   3.438  0.1492 -0.0126 -0.0706
 2619W        W22153   9.818  14.431   3.325  0.0068 -0.1070  0.1199
 2620W        W22154   2.764  12.780  13.497  0.1269  0.0505 -0.1049
 2621W        W22155   7.642   4.508  17.198  0.2039 -0.2049  0.1602
 2622W        W22156  13.336   7.029  15.289  0.0052  0.1891 -0.1466
 2623W        W22157  16.271  13.596  16.518 -0.2217  0.0951 -0.1548
 2624W        W22158   7.377   6.931   2.274 -0.0554 -0.1726 -0.3341
 2625W        W22159  13.795   3.331  15.749  0.0125 -0.1969  0.2812
 2626W        W22160   0.247   9.195   0.446  0.0454  0.1901 -0.2635
 2627W        W22161   5.536   4.693   4.027 -0.3539  0.1031  0.1303
 2628W        W22162  16.393  12.193  16.602  0.1658  0.2259 -0.0694
 2629W        W22163  16.557  17.433  17.199 -0.1914 -0.2211 -0.1933
 2630W        W22164  14.508  17.035  12.252 -0.0390  0.1038  0.0499
 2631W        W22165  12.804   9.034  16.916  0.1478 -0.1438 -0.0009
 2632W        W22166  13.277   5.890   4.906  0.1392 -0.0917 -0.1090
 2633W        W22167   1.500  14.285  14.445  0.0511 -0.1402  0.1125
 2634W        W22168  10.706   4.011  15.685 -0.2130 -0.0869 -0.0212
 2635W        W22169   9.334   0.936   0.232 -0.1818  0.3007  0.2825
 2636W        W22170   3.833  16.153  17.267 -0.2959 -0.0671 -0.0707
 2637W        W22171   3.036   1.749   5.260  0.1413  0.1917  0.4145
 2638W        W22172   4.373  13.903  14.779  0.1560  0.0861  0.1125
 2639W        W22173   8.564   2.360  16.063 -0.0605 -0.0569  0.1386
 2640W        W22174   4.568   9.667   2.322  0.1186 -0.2478  0.3096
 2641W        W22175   9.090   1.286  17.175 -0.1915  0.1439 -0.0350
 2642W        W22176  14.862   0.056   3.843  0.0031  0.0848  0.0980
 2643W        W22177   5.423  11.106  13.637  0.3142  0.1323 -0.1604
 2644W        W22178  13.810  10.810  15.934 -0.0533  0.1010  0.0155
 2645W        W22179  16.532  14.012  11.851  0.2144 -0.1831 -0.0117
 2646W        W22180   1.735   0.642   4.019  0.0026  0.1765  0.0125
 2647W        W22181   7.754  13.890   0.378  0.2335  0.2486 -0.0533
 2648W        W22182   7.808  10.284  15.542 -0.2462  0.2601 -0.0431
 2649W        W22183   5.695   2.544   3.680  0.2042 -0.0800  0.2523
 2650W        W22184  13.420   7.986  15.245 -0.1600 -0.1326 -0.0728
 2651W        W22185   0.550  13.026   2.691 -0.0637  0.0761 -0.0219
 2652W        W22186   4.127  13.952  16.636  0.1531 -0.1155 -0.0363
 2653W        W22187   2.113  12.608   1.250 -0.2163  0.2417 -0.0006
 2654W        W22188   8.720   5.879  16.546 -0.1313  0.1619  0.3663
 2655W        W22189  11.125   5.661  17.141 -0.1126 -0.0342 -0.2744
 2656W        W22190   7.706  10.162  16.087 -0.1428 -0.2021 -0.0137
 2657W        W22191   3.117   7.990   0.832 -0.0100 -0.0500  0.0483
 2658W        W22192  10.219   6.377   3.167  0.0869 -0.2232  0.0760
 2659W        W22193   4.122   2.774  14.688  0.1806 -0.0624  0.0544
 2660W        W22194   7.069   5.321   5.195 -0.5745 -0.0635 -0.3429
 2661W        W22195   0.737   4.839  11.823  0.4159 -0.0047 -0.0103
 2662W        W22196   8.919  15.332   0.868  0.0418 -0.0010  0.0511
 2663W        W22197  10.963   0.689   2.735 -0.0297 -0.0241 -0.0326
 2664W        W22198   1.411   9.071   3.307  0.1362 -0.2995  0.0745
 2665W        W22199   9.535   3.752  13.149  0.1950  0.1257  0.2217
 2666W        W22200  11.971   1.914  12.084 -0.2549  0.1737 -0.0603
 2667W        W22201  12.745   9.166  15.951 -0.0794 -0.2101  0.1269
 2668W        W22202  13.125   2.937  14.712 -0.2349 -0.1812 -0.0727
 2669W        W22203  16.636  10.695  17.292  0.0693  0.0525 -0.0713
 2670W        W22204  17.011   9.797   0.086 -0.0872  0.1042 -0.1914
 2671W        W22205   8.727  14.712  16.468  0.2484 -0.5375  0.0745
 2672W        W22206  16.402  11.153   0.096  0.0620 -0.1524  0.1055
 2673W        W22207   9.639  17.163   0.077  0.1847  0.2098  0.0176
 2674W        W22208   8.996  11.061  13.171 -0.1064 -0.1645 -0.1723
 2675W        W22209  12.333   7.990  13.935  0.1730 -0.1347 -0.1602
 2676W        W22210   7.194  11.285   0.509 -0.3031 -0.1629  0.0671
 2677W        W22211  14.478  10.094  15.480  0.2162  0.0088  0.1919
 2678W        W22212   9.754   3.570   1.776  0.1912  0.4015 -0.1328
 2679W        W22213   6.837  13.686   3.787 -0.0678  0.1650 -0.0453
 2680W        W22214  15.483  11.469   2.193  0.0354  0.1980  0.0942
 2681W        W22215   6.570   5.829  13.056  0.0558 -0.1921  0.1164
 2682W        W22216   2.343  17.431  13.301  0.2277 -0.2282 -0.3697
 2683W        W22217  15.002   4.414  12.398  0.1361 -0.1797 -0.1717
 2684W        W22218  11.123  12.521  13.147 -0.3530 -0.1997 -0.0438
 2685W        W22219  14.168  11.907   0.400 -0.1296 -0.2968 -0.2473
 2686W        W22220  16.386  15.695  14.962  0.2415 -0.1257 -0.1060
 2687W        W22221  11.624  10.696   3.168 -0.0016  0.0147  0.0820
 2688W        W22222   0.690   4.543   2.247  0.0863 -0.1343 -0.1616
 2689W        W22223   9.543   0.150  16.675  0.0887 -0.1919  0.2419
 2690W        W22224  13.725  16.002  13.519  0.0924 -0.2697  0.1148
 2691W        W22225   4.423  12.249  14.961 -0.1801  0.1076  0.0328
 2692W        W22226   6.222   9.233   3.875 -0.2172 -0.1560  0.0294
 2693W        W22227   6.152  15.337  14.695 -0.3529  0.1928 -0.0089
 2694W        W22228  12.331   9.328  12.514 -0.1609  0.0089 -0.0384
 2695W        W22229   3.729   3.229   0.789 -0.0199 -0.1293 -0.3720
 2696W        W22230   1.683  11.191  17.172  0.2581  0.1256  0.0104
 2697W        W22231   4.745  11.864  17.173 -0.2268  0.0437  0.2580
 2698W        W22232   1.417   9.048   4.696 -0.2622  0.0462 -0.2813
 2699W        W22233  16.242   8.401  13.019  0.1716  0.1577 -0.0236
 2700W        W22234  12.714  10.339   1.243 -0.1591  0.1044 -0.0162
 2701W        W22235   4.384   3.594   3.880 -0.1481 -0.3184  0.1075
 2702W        W22236  10.342  15.459   4.619 -0.2709  0.1236  0.1895
 2703W        W22237   8.697   9.825   0.232 -0.2452 -0.1014 -0.0974
 2704W        W22238   1.358  15.231   2.438  0.2480 -0.2776 -0.2511
 2705W        W22239   5.249  12.794  15.312  0.0614  0.4128  0.1530
 2706W        W22240  16.637   3.526   2.313 -0.0241  0.1288 -0.0136
 2707W        W22241   0.023   5.938   2.889 -0.2454  0.3259  0.0746
 2708W        W22242  15.402   6.442  13.073  0.0601  0.1196  0.1532
 2709W        W22243  11.175  16.629  13.684 -0.0412  0.1641  0.0510
 2710W        W22244  10.140   2.911  13.308 -0.0029 -0.3243 -0.0731
 2711W        W22245  13.861  16.559   4.921  0.3529 -0.0620  0.0219
 2712W        W22246  10.581   1.458  12.609  0.2016 -0.2234  0.0598
 2713W        W22247   7.667  10.238   5.695  0.1092  0.2442  0.1783
 2714W        W22248   5.533   5.556   2.543  0.1611  0.0285  0.4281
 2715W        W22249   0.680   6.211   0.361  0.2621  0.0756 -0.1814
 2716W        W22250  16.821  15.698  16.325  0.0824  0.1102 -0.3149
 2717W        W22251  16.674   1.684   3.888  0.0677  0.2249 -0.0217
 2718W        W22252   1.856   4.234   1.933  0.1011  0.0034 -0.1582
 2719W        W22253   9.987   1.222   0.908  0.3035 -0.1313  0.1459
 2720W        W22254   4.482  16.496   2.116  0.1363 -0.1154 -0.1513
 2721W        W22255  13.557  14.512   2.627  0.1785 -0.0178  0.0880
 2722W        W22256  13.742  16.077   0.056  0.5176 -0.0157 -0.0679
 2723W        W22257   1.850  10.845  12.611  0.0066 -0.1784  0.1920
 2724W        W22258   1.133  16.576  14.571  0.3384 -0.0300 -0.2573
 2725W        W22259   8.697   2.925  13.863 -0.3276  0.0469  0.4500
 2726W        W22260  13.204  11.399   3.164  0.0373  0.1474 -0.1353
 2727W        W22261  15.455   6.949  15.338 -0.3295  0.0191  0.0465
 2728W        W22262   8.266  13.068  13.242  0.0266 -0.0835 -0.0927
 2729W        W22263  15.714   4.439   5.040 -0.0947  0.2351  0.2737
 2730W        W22264   1.218  10.200  14.781 -0.0912  0.1935  0.2530
 2731W        W22265  16.105   0.702  14.080  0.1947 -0.1690 -0.3564
 2732W        W22266   5.880   0.571  16.308 -0.0278  0.0065  0.2147
 2733W        W22267  15.900  11.962   3.199  0.0576 -0.2917  0.2808
 2734W        W22268  17.012   4.554   1.146  0.0510  0.3414  0.2051
 2735W        W22269   5.722  14.242  16.367 -0.2251 -0.0057  0.0976
 2736W        W22270  13.013  13.066  16.387 -0.3292  0.1511  0.2154
 2737W        W22271  15.346   2.973  12.830  0.1174  0.0075  0.2822
 2738W        W22272   1.930   7.369  15.855  0.1646 -0.0290 -0.0969
 2739W        W22273  13.185  13.162  15.425 -0.0261 -0.0834 -0.3017
 2740W        W22274  11.846   2.911   1.811 -0.1500 -0.0218  0.0892
 2741W        W22275  13.392  11.942   5.091  0.1014 -0.2029  0.1415
 2742W        W22276  11.377  11.112   1.682 -0.0998  0.2348 -0.0612
 2743W        W22277   6.092   4.246   0.333  0.0317  0.1308  0.0327
 2744W        W22278  15.559   1.428  12.818  0.0085 -0.1058  0.0267
 2745W        W22279   4.690   7.981   5.383  0.2971 -0.0405  0.1072
 2746W        W22280  15.547  11.812   2.547 -0.3597 -0.0868  0.1697
 2747W        W22281  16.938  13.950   1.168 -0.2192 -0.1092  0.2361
 2748W        W22282  12.303   2.705   1.557  0.2525 -0.1584  0.2279
 2749W        W22283   8.300  14.350   1.339 -0.0706 -0.1022 -0.1182
 2750W        W22284   0.452   5.432   0.003  0.1183  0.3143  0.0809
 2751W        W22285   1.316   8.936   0.599  0.1280 -0.6986 -0.2625
 2752W        W22286   8.478   8.202  14.953 -0.3549 -0.2205  0.0434
 2753W        W22287   1.075   5.289  16.705 -0.3394  0.0932 -0.0212
 2754W        W22288  16.331  15.513  14.060  0.0463  0.2081  0.0205
 2755W        W22289   2.689  10.216  12.757 -0.0713 -0.0706 -0.0893
 2756W        W22290  15.302  16.460  13.596  0.1061  0.1738 -0.1196
 2757W        W22291   8.209   2.159  14.851  0.1410 -0.0055  0.2004
 2758W        W22292   3.655   5.102   0.127  0.3499  0.1364 -0.0346
 2759W        W22293   2.402  12.764  12.773 -0.1052 -0.1946 -0.2207
 2760W        W22294   1.759  16.166  14.384 -0.1393  0.1279  0.1610
 2761W        W22295  16.234  14.591  16.454  0.2774 -0.0480 -0.1665
 2762W        W22296  15.989  13.569  17.305  0.2066  0.3994  0.4356
 2763W        W22297  13.655  12.141  16.460  0.2752  0.1565  0.0520
 2764W        W22298  10.889   1.361   2.073  0.1899  0.0838 -0.0839
 2765W        W22299   0.158   0.261   2.211 -0.1007 -0.0848 -0.1784
 2766W        W22300   8.178  10.106   2.509 -0.2941 -0.0489 -0.0263
 2767W        W22301  12.479  14.728   2.714 -0.1203 -0.2381 -0.0800
 2768W        W22302   8.451   3.836  17.112 -0.0083  0.1197 -0.2215
 2769W        W22303  10.827   1.300   0.515 -0.2322  0.0757 -0.1639
 2770W        W22304   7.019   6.126  11.898  0.0408 -0.0595  0.1970
 2771W        W22305   7.087   7.329   3.165  0.0511 -0.0195 -0.2309
 2772W        W22306  16.954   9.116   4.560  0.0295  0.4247 -0.0602
 2773W        W22307   3.243  10.390   1.060  0.0449 -0.1229  0.0063
 2774W        W22308   8.051   6.353   3.693  0.0522  0.0326  0.0403
 2775W        W22309   7.129   8.093  14.993  0.2471 -0.2363 -0.2249
 2776W        W22310  17.340   0.154  13.939  0.1509 -0.3051  0.0042
 2777W        W22311   7.921  13.566   4.263 -0.1195  0.2574 -0.0039
 2778W        W22312   5.695  13.538  13.155 -0.1807 -0.0115 -0.1504
 2779W        W22313  15.415  14.747   0.848 -0.2606 -0.2220 -0.0228
 2780W        W22314  15.064   5.786   3.616 -0.0637  0.0797 -0.3295
 2781W        W22315   4.024   4.249  11.344 -0.2139  0.0506 -0.0838
 2782W        W22316   1.853   7.763   3.324  0.1328  0.0050  0.1711
 2783W        W22317  10.742   0.719   2.334 -0.1409 -0.2366  0.1497
 2784W        W22318   9.677   5.876   0.502 -0.0241  0.1466  0.0763
 2785W        W22319  11.980  13.880   4.814 -0.1641 -0.2627  0.0043
 2786W        W22320  13.040   5.251  15.753 -0.0020  0.0460 -0.0397
 2787W        W22321   0.064  14.125  14.489 -0.0513 -0.1806  0.0307
 2788W        W22322   6.965   4.591  15.663  0.1089 -0.1996  0.3298
 2789W        W22323   9.791   8.862   1.281  0.0845 -0.1434  0.1260
 2790W        W22324  14.745  15.108   1.587 -0.2718  0.3357 -0.0618
 2791W        W22325  13.446   2.790  14.407  0.0659  0.0081  0.1085
 2792W        W22326   1.091   9.569  14.125 -0.3591 -0.1627 -0.2553
 2793W        W22327  16.305  14.578   3.250  0.2959  0.0103  0.0080
 2794W        W22328   3.341  17.030   4.524  0.0458 -0.2090 -0.0052
 2795W        W22329   8.747   6.097  12.830  0.3696 -0.1690  0.0090
 2796W        W22330   0.850  12.841  15.667 -0.0567 -0.0415  0.1477
 2797W        W22331   6.786   3.304  15.017  0.0498 -0.1274 -0.3213
 2798W        W22332   6.486  11.953  16.212 -0.0228  0.1772 -0.3185
 2799W        W22333   2.578   9.713   1.479 -0.0142  0.0079 -0.2766
 2800W        W22334   6.632   3.986   3.890 -0.2797 -0.1048 -0.2487
 2801W        W22335  15.961  11.524  13.071 -0.0606 -0.1330  0.2814
 2802W        W22336  11.611  15.025   0.469  0.1026 -0.1177 -0.0775
 2803W        W22337   4.164  15.244   2.532  0.3313  0.0562 -0.1897
 2804W        W22338  13.421  14.597   0.872 -0.3840 -0.0133 -0.3011
 2805W        W22339   8.298  10.142  17.287  0.3009  0.1692 -0.1497
 2806W        W22340   2.982   5.558  13.121  0.1125  0.1090  0.1232
 2807W        W22341   1.465  10.699  17.184 -0.0345  0.0896  0.3781
 2808W        W22342  16.497   3.292  16.621  0.0815 -0.2373 -0.0118
 2809W        W22343   7.854   5.748   0.299 -0.0535  0.2669 -0.0386
 2810W        W22344  13.845   1.302   1.908 -0.1105 -0.2134 -0.0954
 2811W        W22345  16.668   7.757   0.073  0.3051  0.3384 -0.2777
 2812W        W22346   2.654   2.663   5.433  0.0898  0.2024 -0.1213
 2813W        W22347  13.111  12.444   0.751 -0.4232  0.0344 -0.0186
 2814W        W22348   2.420   5.744   2.718  0.1692  0.0444 -0.0215
 2815W        W22349  10.289   0.099   4.356  0.2869  0.0389  0.2727
 2816W        W22350  16.556   5.124   2.669  0.1214  0.1090 -0.1453
 2817W        W22351   2.195   2.461   2.171 -0.2239  0.4051  0.1967
 2818W        W22352   7.980  15.994   1.404 -0.0733  0.0053  0.2449
 2819W        W22353   7.712  14.515  15.607  0.2231  0.0786  0.2059
 2820W        W22354  10.599   3.913  16.158  0.0023 -0.0663  0.1065
 2821W        W22355  14.831  16.118  15.848 -0.2356  0.0019  0.2305
 2822W        W22356   7.686   0.547   2.732  0.1023 -0.1498  0.0386
 2823W        W22357  11.054   4.938   0.950 -0.0947 -0.1041  0.0511
 2824W        W22358  13.356   0.301  13.044 -0.0161  0.0181  0.1326
 2825W        W22359  12.820  10.161   2.117 -0.3154 -0.4886  0.0508
 2826W        W22360   0.060   3.116  16.696  0.2342 -0.0130  0.2448
 2827W        W22361  17.287   2.167   4.566  0.0408 -0.0081 -0.3154
 2828W        W22362   9.238  14.474  17.264  0.0549 -0.0323  0.0414
 2829W        W22363   1.552   3.573   2.368  0.0039  0.0013  0.0588
 2830W        W22364   9.861  17.047  16.507 -0.0489  0.1118  0.1028
 2831W        W22365  11.565   4.417   0.378 -0.0095  0.0000 -0.1618
 2832W        W22366  15.351   2.486  12.828  0.0676  0.0671  0.0748
 2833W        W22367  15.880   0.732  14.561 -0.0364 -0.2665  0.1664
 2834W        W22368  15.456   6.587   0.249  0.2772  0.0386  0.0648
 2835W        W22369   1.198   8.056   4.445  0.2444 -0.1489 -0.3239
 2836W        W22370  12.275  13.396  16.310 -0.1422  0.2662 -0.0561
 2837W        W22371   5.449  15.668  16.457  0.0292 -0.2503 -0.1450
 2838W        W22372  15.703   8.507   1.620  0.0197 -0.2102  0.1928
 2839W        W22373  11.691  15.934  15.786  0.1767 -0.0071 -0.0594
 2840W        W22374  15.306   6.782   1.911 -0.0052 -0.3378 -0.0451
 2841W        W22375  11.726   0.058  16.481 -0.1096  0.2965 -0.1234
 2842W        W22376   2.301   8.739   3.206 -0.0358 -0.1663  0.1213
 2843W        W22377   5.499   5.571  15.491  0.0688  0.0549  0.2080
 2844W        W22378  14.216   9.248   0.662 -0.1537 -0.1193  0.1087
 2845W        W22379  14.632   7.262  14.897  0.3699 -0.3395 -0.0010
 2846W        W22380   0.767  10.472  14.530  0.0628 -0.1093  0.0646
 2847W        W22381  15.396   9.176   1.749 -0.2504  0.0015 -0.0568
 2848W        W22382  11.847   0.135   1.945 -0.0257 -0.0540 -0.0502
 2849W        W22383  11.549  15.418  15.988  0.3989  0.0153  0.0600
 2850W        W22384   4.796   8.536   2.950 -0.2938 -0.0203 -0.3528
 2851W        W22385  13.551   9.646  12.884 -0.0711 -0.0824 -0.1067
 2852W        W22386  13.047   0.551   4.626 -0.2364  0.0909  0.1902
 2853W        W22387   5.078  16.494   1.325  0.1912 -0.1038 -0.0911
 2854W        W22388  13.302  13.577   1.068 -0.0653  0.1125 -0.0600
 2855W        W22389  17.335  16.881   2.823 -0.2253  0.0601  0.1870
 2856W        W22390   3.384   6.138  17.311  0.1643 -0.0698  0.0988
 2857W        W22391   5.752   5.620   3.814  0.1081 -0.1667 -0.0696
 2858W        W22392   1.651   7.120  14.448 -0.2217 -0.0245  0.0894
 2859W        W22393  10.168   0.327  11.965  0.2913 -0.2077 -0.3090
 2860W        W22394  12.519   7.047  16.682 -0.0741 -0.0365  0.1647
 2861W        W22395   9.400  15.433  15.911 -0.0953  0.0927  0.2432
 2862W        W22396   6.676  17.256   2.700  0.3081 -0.0457  0.1553
 2863W        W22397   7.557  12.254  13.360 -0.3126  0.0947  0.0346
 2864W        W22398   7.014   6.208  14.508  0.0286 -0.0147 -0.2285
 2865W        W22399   7.288  15.323  12.646  0.0994  0.1734  0.1575
 2866W        W22400  12.911   3.309   0.307  0.1324 -0.2781  0.0807
 2867W        W22401  14.172  10.345   4.373  0.0526  0.1207  0.0741
 2868W        W22402   2.197   9.151   3.624 -0.0986 -0.1763 -0.1273
 2869W        W22403  14.876   0.327   0.744  0.2467  0.1055  0.0644
 2870W        W22404  13.622  10.354  16.857  0.0401  0.0488  0.1830
 2871W        W22405   4.587  13.731   2.587 -0.0134 -0.0890  0.2504
 2872W        W22406   3.807  10.230   4.048  0.0722  0.1781 -0.2591
 2873W        W22407   0.110  11.155  14.116 -0.1208 -0.1843  0.0083
 2874W        W22408  13.327  10.990  15.816 -0.0395  0.0961 -0.1707
 2875W        W22409   6.108  11.404   3.254  0.0139 -0.0363 -0.1391
 2876W        W22410   7.511   7.915   2.118 -0.0097 -0.2198 -0.0920
 2877W        W22411   9.904   6.178   0.141 -0.0021  0.1993  0.2545
 2878W        W22412   1.813   1.844  13.553 -0.0827  0.0240 -0.1915
 2879W        W22413  14.106  12.939   1.616  0.0740  0.2109  0.1762
 2880W        W22414  16.605   9.835  15.102  0.1135  0.1473  0.1142
 2881W        W22415   9.760   9.678  14.227  0.2023 -0.0080 -0.1483
 2882W        W22416   9.555   6.167  13.467  0.2599 -0.0363  0.1905
 2883W        W22417  10.978   5.649   5.639 -0.0983 -0.2407 -0.2876
 2884W        W22418  12.835   0.357  15.323  0.3948  0.0540  0.0004
 2885W        W22419   1.098  14.579   1.715 -0.3718  0.0953 -0.0065
 2886W        W22420   1.740  13.351  13.162 -0.1249  0.1148  0.0306
 2887W        W22421   7.094  15.010   2.588  0.1178  0.1096 -0.1438
 2888W        W22422  10.816  12.088  15.764  0.2565 -0.5165  0.1170
 2889W        W22423   1.566   8.428   2.607 -0.0288 -0.0146 -0.0024
 2890W        W22424  11.510  13.960   4.690 -0.0055  0.0991 -0.1377
 2891W        W22425   4.488   9.721   1.289  0.0480  0.3124 -0.0516
 2892W        W22426   2.181   6.194  12.610 -0.0410 -0.0504 -0.1399
 2893W        W22427  12.590   6.558  16.879  0.0723 -0.1748 -0.0581
 2894W        W22428   2.823   3.229  13.185  0.0696  0.0870  0.2203
 2895W        W22429  14.495  16.962   2.497 -0.1034  0.2973 -0.0473
 2896W        W22430   8.820   0.319   5.163  0.1077  0.0912 -0.0142
 2897W        W22431   9.210   3.429   3.585 -0.2411  0.0478  0.2147
 2898W        W22432  16.637  14.413  15.466 -0.2181 -0.0639 -0.0408
 2899W        W22433   1.414   0.238   1.290  0.1920  0.4120 -0.1231
 2900W        W22434   0.646  17.316   3.010 -0.0715 -0.0132  0.0864
 2901W        W22435  10.290   1.846  12.266 -0.2705 -0.0031 -0.2221
 2902W        W22436  13.643   6.633   2.356 -0.0633 -0.2011  0.0291
 2903W        W22437  14.012   1.142   1.443  0.0377  0.0386 -0.1297
 2904W        W22438   1.202   8.222   0.403  0.0184  0.0531  0.0612
 2905W        W22439  10.360  13.585   1.823 -0.0910 -0.1688  0.0314
 2906W        W22440   3.591   7.832  16.742 -0.0677 -0.3062 -0.3233
 2907W        W22441   0.150   7.483  15.389  0.0171  0.3020  0.2951
 2908W        W22442   9.803   6.664  15.724 -0.2325 -0.0732 -0.1911
 2909W        W22443   5.510   5.394   3.014 -0.1585 -0.0844 -0.0427
 2910W        W22444  11.309  13.067  12.588  0.2117  0.1467 -0.0829
 2911W        W22445   7.787   9.176   3.844 -0.0716  0.0064 -0.0853
 2912W        W22446  10.769  12.436   2.620  0.3822 -0.1167 -0.1098
 2913W        W22447  15.467   2.303  16.646 -0.0730  0.0067  0.4108
 2914W        W22448   6.040   0.878  13.070 -0.1026 -0.2315 -0.1366
 2915W        W22449   2.027   6.354  16.796  0.2116 -0.0549  0.1685
 2916W        W22450   1.123  11.319   2.703  0.1411 -0.2417  0.3234
 2917W        W22451  12.386  11.560  17.106 -0.2967 -0.1488  0.1108
 2918W        W22452   6.350  16.445   4.551 -0.2544 -0.0334  0.3422
 2919W        W22453   9.855   6.581   1.064  0.2766  0.1321 -0.0161
 2920W        W22454   6.689   5.338   0.734 -0.3125 -0.0820  0.1519
 2921W        W22455   8.976   5.566   1.842  0.2213  0.0175  0.0252
 2922W        W22456   5.840  15.861  12.503 -0.0783  0.0923 -0.2722
 2923W        W22457   7.255   3.365  15.717 -0.1984  0.0732  0.0704
 2924W        W22458  14.367  17.122  13.104  0.1140  0.0904  0.1326
 2925W        W22459  11.412  10.722   0.318  0.2431  0.1670  0.0602
 2926W        W22460   3.372   4.667  16.546 -0.0283  0.1405 -0.1151
 2927W        W22461   2.800   2.779   2.732  0.3287 -0.1015  0.0240
 2928W        W22462   4.091  13.560  12.705  0.0975 -0.0830  0.2497
 2929W        W22463   6.982   9.226   5.384  0.1112  0.0625 -0.0740
 2930W        W22464  12.213   1.225  13.269  0.0107  0.1930  0.0853
 2931W        W22465   7.216  11.183  13.537  0.1717 -0.1040 -0.0145
 2932W        W22466   2.700   0.776  15.624 -0.1092  0.2483 -0.1433
 2933W        W22467   8.509  11.712  14.275 -0.0627  0.1672  0.0084
 2934W        W22468  12.054   2.385  12.262 -0.2739  0.0386 -0.1241
 2935W        W22469   0.988   9.483  16.300 -0.1332 -0.0839 -0.0847
 2936W        W22470   4.481   5.124   4.963  0.1281 -0.0639  0.2111
 2937W        W22471  11.114   4.938  14.213  0.1035 -0.0425  0.0579
 2938W        W22472   8.388  11.796  14.730 -0.2408 -0.0081  0.0402
 2939W        W22473   1.055   7.153  13.796  0.2048  0.0075  0.0055
 2940W        W22474  16.805   5.092  12.834  0.0668 -0.1226 -0.2000
 2941W        W22475   7.228   5.899  16.626 -0.1160 -0.0218 -0.1469
 2942W        W22476   8.052   2.258   1.969  0.0154 -0.3958 -0.1204
 2943W        W22477  13.219  15.972   0.914  0.2205  0.0536 -0.2393
 2944W        W22478   1.284   9.333   0.230  0.1092 -0.3690  0.0107
 2945W        W22479   3.044  13.378  12.947 -0.0297 -0.1301 -0.0062
 2946W        W22480  14.097  13.393  13.115 -0.3002  0.2731  0.1502
 2947W        W22481  12.455   7.273   3.394 -0.1201 -0.0075  0.0404
 2948W        W22482  15.407   1.918  15.643  0.1988 -0.0086 -0.0337
 2949W        W22483  15.583  13.191  17.286 -0.0127  0.0113  0.5385
 2950W        W22484   6.906  15.401  13.481  0.3147  0.2097  0.0572
 2951W        W22485   0.568   2.433   2.002  0.0298 -0.1185 -0.1053
 2952W        W22486   3.853  15.737   0.275 -0.0354 -0.0654  0.3315
 2953W        W22487   7.288  15.706  13.790  0.1118  0.1452 -0.0951
 2954W        W22488   4.859   7.504   2.975 -0.2596  0.0503  0.2278
 2955W        W22489  16.914  15.597  12.817 -0.2602 -0.2151  0.0706
 2956W        W22490   9.686   4.565  13.224 -0.0658 -0.2094  0.3116
 2957W        W22491   3.029   2.151  15.082 -0.0080  0.0086  0.0839
 2958W        W22492  12.204   0.466  14.619  0.2004  0.2103  0.1918
 2959W        W22493   7.030   3.784   4.164 -0.3533  0.0065 -0.2688
 2960W        W22494   7.221  14.185  12.699  0.0050 -0.2249 -0.0001
 2961W        W22495   7.710   4.779   1.859 -0.0012  0.2423 -0.1285
 2962W        W22496   8.906   3.849   1.002  0.1581 -0.0701 -0.1905
 2963W        W22497   9.237   0.321  14.563  0.2868 -0.5215 -0.2994
 2964W        W22498   0.053  15.759  12.170 -0.0850 -0.0244  0.1556
 2965W        W22499   9.098  10.800   1.830  0.0226  0.0255  0.0062
 2966W        W22500  11.776  17.194  14.039  0.3813  0.1281 -0.0048
 2967W        W22501   5.759  11.081   0.282 -0.0551  0.0625  0.1008
 2968W        W22502   3.627   1.191   3.121  0.0104 -0.1206 -0.1691
 2969W        W22503  16.709   3.615  14.700 -0.2435 -0.1433  0.0903
 2970W        W22504   4.887  10.275   2.844 -0.0916 -0.0895  0.0745
 2971W        W22505  12.244  12.821  12.378  0.0526  0.0776 -0.0204
 2972W        W22506  15.480  14.518  12.391  0.1984  0.2624 -0.1335
 2973W        W22507   3.941  16.363   4.706  0.0058  0.2032  0.2949
 2974W        W22508  13.163  15.773  12.466 -0.3018 -0.0680  0.2352
 2975W        W22509  12.727  14.904   1.817  0.1690  0.1342  0.2468
 2976W        W22510   9.707   4.413  16.717 -0.1374  0.0889  0.0629
 2977W        W22511  15.721  10.774   1.051 -0.1826  0.0779 -0.0891
 2978W        W22512  16.273  12.275   0.886 -0.2653  0.0263  0.0206
 2979W        W22513  10.578  10.815   4.859 -0.1013 -0.1513  0.2445
 2980W        W22514  10.261   9.299   3.852  0.0698 -0.3321  0.1226
 2981W        W22515   1.434  10.537   4.277  0.0828  0.2070 -0.0312
 2982W        W22516   9.881   7.834   3.856 -0.0150 -0.1722  0.2620
 2983W        W22517   6.161   8.887   2.970  0.1724  0.0817 -0.3281
 2984W        W22518   5.138  10.571   0.252 -0.3176  0.0694  0.1071
 2985W        W22519   7.083  13.094   4.836  0.0738 -0.0202  0.1440
 2986W        W22520   3.416   2.094   1.297 -0.1066 -0.1861  0.0357
 2987W        W22521  10.610  13.589   2.643  0.2173  0.4718 -0.0732
 2988W        W22522   4.715  17.090   3.175 -0.0419 -0.1266  0.0570
 2989W        W22523   5.340  16.298  12.453 -0.1212  0.3058  0.2488
 2990W        W22524  14.798   9.137  12.911  0.0407 -0.1327  0.0338
 2991W        W22525   5.135   6.958  12.802  0.1438  0.0249 -0.0634
 2992W        W22526   4.262   3.475  13.430 -0.1465 -0.0173  0.3529
 2993W        W22527  15.322   8.574  15.760  0.0725 -0.0039  0.2340
 2994W        W22528  13.687   2.670  13.343  0.1181  0.2549 -0.1513
 2995W        W22529   8.970   7.311   3.134 -0.0610  0.0223  0.0822
 2996W        W22530   3.870   9.129   1.807  0.0590 -0.2920  0.0000
 2997W        W22531   2.475  14.557   1.020 -0.2843  0.0229 -0.0635
 2998W        W22532   2.035  16.662  14.173 -0.0018 -0.1343 -0.0315
 2999W        W22533   0.679   0.205   2.186 -0.2527  0.0666  0.0575
 3000W        W22534   4.727  15.484   4.384 -0.0433 -0.0369 -0.0853
 3001W        W22535   6.383  16.233   0.751 -0.0787 -0.2476  0.1691
 3002W        W22536   5.067  17.388   3.462  0.2587  0.0824  0.2582
 3003W        W22537   5.598   0.352   0.511 -0.0540 -0.2078  0.0909
 3004W        W22538   8.489   4.215   5.132 -0.3211  0.2035  0.1146
 3005W        W22539  12.024   9.875   1.805 -0.2464  0.0971  0.0572
 3006W        W22540  15.627   0.361  13.573 -0.0327  0.2267  0.0912
 3007W        W22541  16.874  13.678  12.361  0.1338  0.0309 -0.2574
 3008W        W22542   7.440   8.575  14.475 -0.1698 -0.0461 -0.1093
 3009W        W22543   8.890   0.120  13.039 -0.0051  0.0580  0.1723
 3010W        W22544   9.414   9.032   4.516 -0.0169 -0.0055 -0.0500
 3011W        W22545   6.962  17.192   0.154  0.1921 -0.1948 -0.1805
 3012W        W22546   7.729  13.103   4.209 -0.0678  0.0221  0.1690
 3013W        W22547   8.991   5.485  14.048  0.3980  0.3134 -0.1975
 3014W        W22548   5.015   4.285  14.069  0.0771 -0.0925 -0.1492
 3015W        W22549  17.020   8.530   2.491 -0.0487 -0.2033 -0.1279
 3016W        W22550   8.853  17.220   3.904  0.0965 -0.0480 -0.2510
 3017W        W22551   8.269   8.478   0.423  0.0906  0.0561 -0.3177
 3018W        W22552   0.149   8.398  15.821  0.2760  0.2903 -0.2126
 3019W        W22553   3.190   8.268   2.203  0.1355 -0.1292  0.1241
 3020W        W22554  15.776   3.593   1.820  0.2800  0.0909 -0.4057
 3021W        W22555   2.796   9.708  16.269 -0.1220  0.3081 -0.1098
 3022W        W22556   4.102  10.288  14.256 -0.1230  0.1415 -0.0326
 3023W        W22557  15.359   8.823   1.337 -0.2937  0.1194  0.0128
 3024W        W22558   4.065   6.059  15.866  0.1216  0.0266 -0.0258
 3025W        W22559   4.581  12.324   2.841 -0.0448 -0.3334  0.1142
 3026W        W22560   5.656   3.648   1.169 -0.0023 -0.2068 -0.0508
 3027W        W22561   6.671   9.401   4.137 -0.1658 -0.0794 -0.3118
 3028W        W22562  17.384  14.395   1.119  0.1208 -0.0947  0.0728
 3029W        W22563  12.717  13.501  12.696 -0.2483 -0.1545  0.1696
 3030W        W22564  11.762  16.959  16.371  0.0660  0.0709  0.0988
 3031W        W22565  12.842  10.535   0.265  0.0071  0.1311 -0.1494
 3032W        W22566  11.779   4.195   1.284 -0.0821 -0.0332 -0.2123
 3033W        W22567   8.533  13.022  16.228  0.4886  0.0597  0.4851
 3034W        W22568  16.671  16.223  13.049  0.0415  0.2209 -0.0375
 3035W        W22569   3.626  15.291   2.614 -0.1193 -0.1704 -0.0133
 3036W        W22570  11.118   1.617   0.763 -0.1528  0.0887  0.0966
 3037W        W22571   1.210  11.006   1.761 -0.1011  0.0561  0.0917
 3038W        W22572  10.009   8.445  16.931  0.1252 -0.1726 -0.1456
 3039W        W22573  16.958  13.249  12.617 -0.0801 -0.1694 -0.0020
 3040W        W22574  15.570  10.487  14.205 -0.4702 -0.1719 -0.3240
 3041W        W22575   5.635   5.129  14.643 -0.0714 -0.2382 -0.2223
 3042W        W22576  16.410  10.622   2.562 -0.1597 -0.2332  0.1552
 3043W        W22577  14.469   5.203   4.186  0.2805 -0.0138  0.2029
 3044W        W22578   6.090   2.344   4.093 -0.1947  0.0738 -0.0774
 3045W        W22579  16.849   3.817  12.510 -0.0186  0.1037 -0.1336
 3046W        W22580  10.525   5.042   2.656 -0.2212  0.1270  0.1599
 3047W        W22581   7.699  12.610  14.335 -0.4462  0.2292 -0.2404
 3048W        W22582  11.274   5.741  14.514  0.1917 -0.0041 -0.0305
 3049W        W22583   0.500  12.924  14.752 -0.1896 -0.0698 -0.0575
 3050W        W22584  13.382  16.479   2.288  0.0642 -0.0183  0.1267
 3051W        W22585   3.232   9.643  14.602 -0.5152  0.1532 -0.0263
 3052W        W22586  15.745  12.046   0.012  0.1007 -0.2340 -0.4297
 3053W        W22587  14.499   9.035  14.102  0.1285  0.0053  0.0053
 3054W        W22588   8.201  10.626   3.998 -0.2933  0.2075  0.0255
 3055W        W22589  12.071   8.490  12.719 -0.4185 -0.0759 -0.2217
 3056W        W22590   2.672   1.397  12.293 -0.2611 -0.0787  0.1295
 3057W        W22591  15.880   3.835   1.174  0.3280  0.2958 -0.0061
 3058W        W22592  11.510   4.741   4.637  0.2414 -0.2118  0.1325
 3059W        W22593   2.556   1.749   5.301  0.0414  0.3395  0.1654
 3060W        W22594  10.954   0.416   3.212 -0.0386 -0.3041  0.3510
 3061W        W22595  14.139  15.083   0.581 -0.2154  0.1424  0.0341
 3062W        W22596   1.543   3.489   3.340  0.0901 -0.1617  0.2313
 3063W        W22597   8.970   9.448   3.421  0.0795  0.3304  0.0545
 3064W        W22598  11.571   3.865  14.593  0.2480  0.0877  0.2489
 3065W        W22599   3.825  11.787  16.675 -0.2129  0.0661 -0.1638
 3066W        W22600  11.940   0.262  16.109 -0.1552 -0.2326 -0.0858
 3067W        W22601  15.037   7.472   1.170 -0.1567  0.0996 -0.0006
 3068W        W22602   4.060   2.714   0.149  0.3189 -0.0778  0.0738
 3069W        W22603  14.750  15.603  15.987  0.0288 -0.0843  0.0884
 3070W        W22604   8.594   2.851   0.816 -0.3105  0.2757  0.0678
 3071W        W22605   4.622   2.881   2.563 -0.0362  0.0534  0.2574
 3072W        W22606   5.836   2.034   4.875 -0.0631 -0.0320  0.0488
 3073W        W22607   4.976   5.505  12.716 -0.3219 -0.1235  0.1605
 3074W        W22608   4.632   8.227  13.259  0.1819 -0.1634  0.1211
 3075W        W22609   9.705  11.398   3.283 -0.3701  0.0433  0.0272
 3076W        W22610   4.131   3.976   4.812  0.2092 -0.0537 -0.1957
 3077W        W22611  13.186   5.601   3.018  0.0035 -0.1071 -0.0765
 3078W        W22612  10.405  13.523  15.829  0.1744 -0.1639  0.1464
 3079W        W22613   1.201  12.738   1.007 -0.1847  0.0305 -0.1973
 3080W        W22614   2.990   8.518   0.912  0.0729 -0.2082  0.0260
 3081W        W22615  14.300   8.418   2.248 -0.1489  0.0352  0.0355
 3082W        W22616   6.212   7.915  15.256 -0.0309  0.0234 -0.2420
 3083W        W22617  14.401   6.216   4.219 -0.0214  0.1971  0.0576
 3084W        W22618  16.016   9.588   1.036 -0.1224  0.3750  0.0874
 3085W        W22619   9.117   4.355  12.692 -0.0958 -0.1701 -0.0335
 3086W        W22620   8.283  11.874   2.019 -0.0295 -0.1672  0.0913
 3087W        W22621  16.695   9.512  13.778  0.3268  0.0526 -0.0472
 3088W        W22622  12.868   0.452  13.266 -0.0945 -0.0536  0.0358
 3089W        W22623  14.244   2.466  15.807  0.0458  0.1638  0.2896
 3090W        W22624  10.185   7.769  13.118  0.2159  0.0548  0.0059
 3091W        W22625   8.875   0.470   1.108 -0.1730  0.2146 -0.3346
 3092W        W22626   5.068  14.115   3.081 -0.1189 -0.0881 -0.1316
 3093W        W22627   1.364   3.144  14.569  0.0536  0.1064  0.1587
 3094W        W22628  16.140   2.536   1.466 -0.0789 -0.1031  0.0605
 3095W        W22629  15.494  11.292   2.714  0.0109  0.1007 -0.0118
 3096W        W22630  16.234   3.402   0.301 -0.4670  0.0320  0.2666
 3097W        W22631  10.347   3.654  13.925 -0.0597 -0.2298  0.0258
 3098W        W22632   9.493   7.868   4.672 -0.2489  0.0438 -0.0618
 3099W        W22633  16.761  11.049  14.781  0.0911 -0.0976 -0.0267
 3100W        W22634  12.096  16.206   3.313 -0.0893  0.2599  0.0392
 3101W        W22635   6.831   9.524  16.667  0.1096  0.2766 -0.1664
 3102W        W22636   9.651   0.057   3.626  0.0340 -0.1619 -0.0004
 3103W        W22637  15.524   3.243   2.615  0.0381  0.0886  0.2536
 3104W        W22638   6.633  11.209  14.392  0.0147 -0.1213 -0.2585
 3105W        W22639   3.974  14.279  13.519 -0.1509  0.0248 -0.0384
 3106W        W22640   7.721  11.110  15.014  0.3118  0.3896 -0.2086
 3107W        W22641   9.051   2.902   1.092 -0.0580  0.2521 -0.3481
 3108W        W22642  10.755  15.916   1.459 -0.2562  0.1177  0.1448
 3109W        W22643   9.503  16.250   2.174  0.0021 -0.3406  0.0240
 3110W        W22644  16.634   4.047  15.040 -0.1614  0.0162 -0.2895
 3111W        W22645   7.302   1.434  16.996  0.0615 -0.0609  0.0388
 3112W        W22646   5.490   6.450   4.822  0.3159 -0.1623  0.1103
 3113W        W22647   7.435   4.256  16.003  0.3124  0.0821 -0.0954
 3114W        W22648   4.874   1.728  13.095  0.1577  0.4469  0.0766
 3115W        W22649   7.624   1.987   0.901  0.0285 -0.0412  0.3379
 3116W        W22650   2.689  10.518   3.482 -0.0555  0.0423  0.0909
 3117W        W22651   7.947  14.852  14.857  0.1532  0.1288  0.0337
 3118W        W22652   3.760   2.255  14.532  0.0001 -0.1601  0.3175
 3119W        W22653  16.232  10.737   1.109  0.2568 -0.3321 -0.1403
 3120W        W22654   9.474  16.670  16.652  0.3901 -0.0804  0.2420
 3121W        W22655  14.626  11.729   1.281 -0.0150  0.0429  0.0129
 3122W        W22656   1.239  14.885  13.253  0.1912 -0.3061  0.2511
 3123W        W22657   9.552   6.254   1.815 -0.2717 -0.0141  0.0258
 3124W        W22658   4.188   6.298   1.645 -0.0800  0.1612 -0.1413
 3125W        W22659   2.475   4.530  16.882 -0.4346  0.1030 -0.0500
 3126W        W22660   1.888   2.093   1.712  0.0287  0.0172  0.1494
 3127W        W22661  15.385  11.650  16.436 -0.1805 -0.0219  0.1226
 3128W        W22662   0.763   9.348  15.360 -0.1777 -0.3337  0.0141
 3129W        W22663   9.716  16.165  13.905  0.0566  0.1442  0.1049
 3130W        W22664   1.970  12.541   4.272 -0.1336  0.0917  0.1228
 3131W        W22665   0.469   4.592  15.815  0.0277 -0.0027  0.0022
 3132W        W22666   4.940  15.217  13.426 -0.0148  0.0399  0.0552
 3133W        W22667   0.099   6.293  15.184  0.1180  0.0036 -0.0029
 3134W        W22668  17.047   0.259  14.601 -0.0584  0.2983  0.1771
 3135W        W22669  17.222  15.018  14.203  0.1193 -0.1765 -0.0135
 3136W        W22670  16.716  11.616   0.972 -0.2219 -0.1818  0.1304
 3137W        W22671  12.410  11.028   2.548 -0.0355 -0.3511 -0.1132
 3138W        W22672   5.533  12.267  14.487 -0.0228 -0.2476  0.0295
 3139W        W22673  16.648  16.295   1.720 -0.1042  0.0380 -0.2141
 3140W        W22674   1.090  12.064   3.397  0.2424  0.0557 -0.2153
 3141W        W22675  12.896  13.689   0.830  0.2249 -0.1404  0.0208
 3142W        W22676  10.354   0.905  15.542 -0.1558 -0.0670 -0.1124
 3143W        W22677  14.927   5.543   4.892  0.1544  0.1185  0.0279
 3144W        W22678   9.944  12.901  16.940 -0.0653  0.0418 -0.2635
 3145W        W22679   3.461   4.197  16.717  0.0977 -0.1726  0.2068
 3146W        W22680  14.670   0.949   4.395 -0.1118 -0.1611  0.4693
 3147W        W22681  10.197  13.500   4.018  0.0625 -0.3138  0.0482
 3148W        W22682   5.997  14.961  13.167  0.0159  0.0710  0.1225
 3149W        W22683   8.949  14.746  14.254  0.0762 -0.1599 -0.2811
 3150W        W22684   4.401  17.393  15.357 -0.1360  0.2278 -0.0281
 3151W        W22685   5.324  13.056   2.188 -0.0240  0.2533 -0.2876
 3152W        W22686  16.999   3.571   1.146  0.1039  0.1687  0.3240
 3153W        W22687   3.549  12.083   4.892  0.3418  0.1153  0.0038
 3154W        W22688   6.355  10.336   1.943  0.1469 -0.0646  0.1965
 3155W        W22689   9.235   5.967  14.012 -0.3924  0.0363 -0.1619
 3156W        W22690  15.692   6.128  15.368  0.3654  0.0698 -0.1707
 3157W        W22691  11.530   2.827  15.742 -0.1576  0.0175 -0.1220
 3158W        W22692  12.510   3.222  16.774 -0.0728  0.0635 -0.0314
 3159W        W22693   9.994   8.318   0.582 -0.2169  0.0568  0.2532
 3160W        W22694   2.031  11.791   1.343 -0.0043  0.1177 -0.0959
 3161W        W22695   0.858   6.610   0.158  0.0796  0.2463  0.1138
 3162W        W22696   1.716   2.236  14.856  0.1289  0.2726  0.1085
 3163W        W22697  16.260   6.806   1.614 -0.1616 -0.0317 -0.1120
 3164W        W22698   3.096  11.113  12.729 -0.0486  0.1875  0.2714
 3165W        W22699   6.964   1.792   1.476  0.0682 -0.2278  0.1494
 3166W        W22700   9.682  15.070   2.429 -0.0498  0.0882  0.1092
 3167W        W22701  15.627   5.305  15.455 -0.2284 -0.1132  0.1553
 3168W        W22702  15.503  14.961   3.521 -0.3047  0.1699  0.0301
 3169W        W22703   5.635  15.136  15.626 -0.0082  0.0489  0.1366
 3170W        W22704   7.782   9.458   5.219  0.1727 -0.0186 -0.6156
 3171W        W22705  14.169   3.966  13.713 -0.0191  0.0110 -0.1697
 3172W        W22706   1.214   7.687  13.074  0.1358  0.1361  0.0516
 3173W        W22707   1.892  16.894   4.483 -0.2116 -0.2264 -0.1858
 3174W        W22708   2.987   9.795  12.117  0.0023 -0.1402 -0.0932
 3175W        W22709  11.495  13.385  12.998 -0.0563  0.2259  0.1756
 3176W        W22710   5.274  13.735  13.242 -0.3365 -0.2428 -0.1636
 3177W        W22711  15.989   7.752   3.923 -0.2644  0.0459  0.0379
 3178W        W22712  16.992   0.021  13.517 -0.1570 -0.0868  0.2072
 3179W        W22713   7.413   3.945  12.155 -0.1987 -0.0880 -0.0227
 3180W        W22714   6.185  17.387  14.504  0.3161 -0.0860 -0.1708
 3181W        W22715   7.036   6.514   1.051 -0.1681  0.2110  0.1595
 3182W        W22716   8.181   8.827  16.858 -0.1648 -0.0091  0.0362
 3183W        W22717   6.118   2.878  15.528 -0.1479  0.0742 -0.2290
 3184W        W22718   3.043   3.505   4.188  0.1599  0.0600 -0.1675
 3185W        W22719   5.426  10.604   4.618  0.1124  0.2998 -0.0891
 3186W        W22720   3.334  13.982  12.676 -0.0060  0.0609  0.1484
 3187W        W22721  15.858   1.933   2.718 -0.0259 -0.1410 -0.0695
 3188W        W22722  11.823  14.802  14.245 -0.3275 -0.1077 -0.1861
 3189W        W22723  17.143   5.882  12.402  0.0191  0.1218 -0.0218
 3190W        W22724   3.187   9.885  13.558  0.0682 -0.1812  0.0602
 3191W        W22725  14.436  11.078   3.508 -0.0046 -0.2080  0.0021
 3192W        W22726  14.924   2.540  12.531 -0.0993  0.1139  0.2428
 3193W        W22727   0.709  16.815  16.625 -0.2079 -0.0699  0.3172
 3194W        W22728  12.325   9.535   4.484 -0.0551  0.0840 -0.1344
 3195W        W22729   1.337  16.919   1.864  0.0436 -0.3198  0.0844
 3196W        W22730   7.860   8.631  14.708 -0.0547  0.0613 -0.1185
 3197W        W22731  10.254   2.734   5.335  0.0534 -0.4696  0.0486
 3198W        W22732   6.612  15.547   3.162 -0.2135 -0.0025  0.0548
 3199W        W22733   8.072  13.388   1.115 -0.3120  0.1618  0.1128
 3200W        W22734  13.508   5.855  14.018  0.2311 -0.0270  0.2342
 3201W        W22735   0.495   9.560  16.287 -0.1457 -0.0652 -0.2833
 3202W        W22736   9.725  16.333  17.005 -0.0577 -0.0947  0.2395
 3203W        W22737   6.714  14.999  13.990 -0.0730  0.2598  0.0431
 3204W        W22738   2.192   5.166   0.097  0.3430  0.1049  0.2058
 3205W        W22739  13.414  12.962   0.881 -0.1750  0.1076 -0.1459
 3206W        W22740  11.405  11.005   1.166  0.1436  0.0145  0.0191
 3207W        W22741   6.991   8.464  14.680 -0.1308 -0.0019  0.2334
 3208W        W22742   8.135   7.702  15.695  0.0934 -0.0959 -0.0879
 3209W        W22743  17.417  14.300  16.474 -0.0200 -0.0604  0.1287
 3210W        W22744  13.373   6.594  15.053  0.0657  0.0203 -0.1824
 3211W        W22745   8.078  12.512  15.378 -0.1449 -0.1368  0.0704
 3212W        W22746  10.147  14.577  13.414  0.1178  0.0809  0.2816
 3213W        W22747   5.432  10.176   0.547 -0.0280  0.2127 -0.0801
 3214W        W22748  16.624   2.395  15.782 -0.0608  0.1113 -0.0670
 3215W        W22749  11.869  13.307   1.666 -0.1233 -0.5140  0.0306
 3216W        W22750  16.630   8.622  13.964  0.0282  0.1845  0.1122
 3217W        W22751  10.555  15.742  12.884  0.4239  0.2392  0.0334
 3218W        W22752  14.997   8.655  12.893  0.0039 -0.2675  0.0495
 3219W        W22753  10.682  10.339  13.763 -0.0494 -0.1179  0.2285
 3220W        W22754  15.594  14.092  16.740 -0.0432 -0.0090 -0.0677
 3221W        W22755   0.824  11.786   2.114  0.1522  0.0670  0.0754
 3222W        W22756   3.409  14.123  13.144 -0.3704  0.1262  0.0702
 3223W        W22757  14.336   6.420   0.999 -0.1076 -0.0169 -0.0113
 3224W        W22758   0.513   5.250   1.724  0.0331  0.2467  0.1082
 3225W        W22759  12.930   8.032   1.516  0.1077 -0.0224  0.1535
 3226W        W22760  16.933   5.343   1.808  0.1832  0.2013  0.1374
 3227W        W22761   1.404  13.061  16.282  0.0051  0.2208 -0.1480
 3228W        W22762   9.831  13.749   3.796  0.2952  0.1120 -0.2160
 3229W        W22763  16.265  14.359  15.108 -0.0252  0.2053 -0.0569
 3230W        W22764  13.998  15.955  14.544 -0.0546 -0.2056  0.3811
 3231W        W22765   0.444  12.408  14.983 -0.2410 -0.0510 -0.4465
 3232W        W22766   0.310   2.643  12.223  0.0892 -0.0382 -0.1699
 3233W        W22767  16.368   6.612  14.496 -0.1204  0.0880  0.2062
 3234W        W22768   5.723  14.645   4.408  0.1606  0.0594 -0.1133
 3235W        W22769   1.475  12.341   1.848 -0.0240 -0.0097 -0.1698
 3236W        W22770  14.468  14.138   2.601  0.3002 -0.2176 -0.1647
 3237W        W22771   6.815  16.856  16.119 -0.0153  0.2430 -0.0987
 3238W        W22772  10.141   6.900   2.861 -0.3050  0.2137  0.2328
 3239W        W22773  14.875  16.094   2.597  0.2815  0.1486  0.2880
 3240W        W22774   7.348  11.861  12.546  0.0430  0.0058 -0.1497
 3241W        W22775  13.515   0.017   1.251  0.2836 -0.2904 -0.1151
 3242W        W22776   3.701  17.081  17.060  0.1802 -0.0645  0.1481
 3243W        W22777  10.634   1.455  16.346 -0.2324  0.0320 -0.0010
 3244W        W22778   1.652  12.209  12.253 -0.0957 -0.2088 -0.1578
 3245W        W22779   6.788   6.731   2.298 -0.1043  0.0688 -0.0578
 3246W        W22780   0.330  12.538  14.465 -0.0209  0.1986  0.2920
 3247W        W22781   1.758  16.624   2.943 -0.3269 -0.3156  0.0833
 3248W        W22782   2.516  11.297   4.631  0.0487 -0.1404  0.2443
 3249W        W22783  15.944  10.502  16.930 -0.0690 -0.1381 -0.0853
 3250W        W22784  15.644   4.702   3.072  0.1651  0.0681  0.2470
 3251W        W22785   5.865  17.200  13.537  0.1081 -0.0730  0.2155
 3252W        W22786   3.592  10.375  15.546 -0.1047 -0.2202 -0.4741
 3253W        W22787   2.109  12.425  13.759  0.2065  0.0773 -0.0832
 3254W        W22788   0.639  11.450   3.047  0.0600 -0.4788 -0.2713
 3255W        W22789  15.400  11.356  13.317  0.1966 -0.3838  0.2199
 3256W        W22790   4.356  10.354   2.385 -0.1818 -0.2629  0.1850
 3257W        W22791   4.564   2.083   0.129  0.2974  0.4286 -0.0564
 3258W        W22792  16.428  10.336  14.312 -0.0667 -0.2985 -0.0109
 3259W        W22793   8.230   9.504  16.186  0.0929  0.2634 -0.3973
 3260W        W22794  15.520  15.362  16.661  0.0531  0.0015 -0.0720
 3261W        W22795   7.554  15.610   4.789  0.0134 -0.1657 -0.1241
 3262W        W22796   1.458  15.983   3.635  0.4304  0.0764 -0.0521
 3263W        W22797  13.230  10.173   4.183  0.0797  0.2697  0.1903
 3264W        W22798   7.482  10.901  14.131 -0.1424  0.1020 -0.1877
 3265W        W22799  12.589  14.249  12.917 -0.0640  0.0251 -0.1035
 3266W        W22800   5.192   6.835   2.543  0.3147  0.0668  0.2288
 3267W        W22801   2.862  10.094   3.603 -0.4687  0.0245 -0.2461
 3268W        W22802  15.350  13.271   2.981 -0.1052 -0.2028 -0.1041
 3269W        W22803  13.855  16.246   3.346  0.0641  0.1663  0.2144
 3270W        W22804   0.498  12.214  16.697 -0.0129  0.0414 -0.0361
 3271W        W22805  10.719   3.418  16.089 -0.1014  0.0423  0.1380
 3272W        W22806  17.118  11.941  13.693  0.3299 -0.0309 -0.1739
 3273W        W22807  11.835   9.501  16.071 -0.0329  0.2265 -0.0265
 3274W        W22808  13.788  16.972  16.891  0.0159  0.1664 -0.2497
 3275W        W22809  17.173  10.144  16.310  0.1654 -0.1260  0.0435
 3276W        W22810  15.075  10.533   2.526  0.0526  0.1643 -0.0229
 3277W        W22811  12.884   9.873   2.571  0.0999  0.2640 -0.1407
 3278W        W22812   7.611  11.289  14.447  0.0692 -0.1556 -0.1465
 3279W        W22813  14.433  12.742   0.757  0.1655  0.0903  0.1382
 3280W        W22814  14.527  13.595  11.833 -0.3017  0.0310 -0.0552
 3281W        W22815   5.447   0.641   2.471 -0.0177 -0.1525  0.1197
 3282W        W22816   5.226   2.642  12.217  0.1513  0.1484 -0.1191
 3283W        W22817   7.652   6.811  16.252  0.1956  0.1014  0.1714
 3284W        W22818   8.978   3.538   4.045  0.1685 -0.2318 -0.0548
 3285W        W22819   1.420   7.499  13.569  0.1370  0.1166 -0.1055
 3286W        W22820   0.754  12.672   1.445  0.1027  0.1725 -0.1982
 3287W        W22821  14.909   9.835   2.254  0.4015  0.3077  0.2384
 3288W        W22822  12.673   7.299  14.364 -0.1596  0.0379 -0.0934
 3289W        W22823  12.323  16.678  14.544  0.0313 -0.0616  0.0945
 3290W        W22824   0.717   0.580   2.539  0.0042  0.1351 -0.1547
 3291W        W22825   8.528  10.332   2.729 -0.0565  0.3628  0.0347
 3292W        W22826   3.678  15.847   1.237 -0.0782 -0.1786  0.0076
 3293W        W22827   4.817  13.075  15.288 -0.0460 -0.0875  0.1969
 3294W        W22828   3.766   3.481   1.927 -0.0518  0.0728 -0.1364
 3295W        W22829  17.241  10.037   1.380  0.0518 -0.0254 -0.0772
 3296W        W22830  11.304  11.527  14.670 -0.4183  0.0334  0.0291
 3297W        W22831  13.030  14.930  15.113 -0.0248  0.1521 -0.0593
 3298W        W22832  13.167   7.324   2.898 -0.0219  0.0575  0.1525
 3299W        W22833  16.187   5.870  13.335  0.0937 -0.1687  0.2237
 3300W        W22834   6.156   3.368   0.017  0.0552  0.1595 -0.0022
 3301W        W22835  10.055  17.369  17.058 -0.1131  0.0755 -0.0914
 3302W        W22836  14.412  12.647  13.878  0.0665 -0.2236 -0.0742
 3303W        W22837  16.124   9.841   2.209 -0.0377 -0.1421 -0.1600
 3304W        W22838  15.191   5.388  15.113 -0.0979 -0.1275 -0.1645
 3305W        W22839   1.813   5.108  16.368  0.1458 -0.3387  0.2697
 3306W        W22840   3.585   1.678   1.587  0.2079  0.0576  0.2252
 3307W        W22841  13.519   7.507   3.288 -0.1295 -0.3163 -0.1547
 3308W        W22842   8.100   7.571  16.832 -0.0578 -0.1547 -0.1144
 3309W        W22843  11.881   5.542   2.898  0.1692 -0.1174 -0.0084
 3310W        W22844   5.262  17.463   4.823 -0.4024 -0.1463  0.2474
 3311W        W22845  14.825  12.939  13.840  0.0207 -0.1319 -0.0856
 3312W        W22846  12.343   2.882   4.121  0.0982 -0.0015 -0.1988
 3313W        W22847   7.234   0.110  15.861  0.2502  0.0294  0.0846
 3314W        W22848  14.904   6.453   3.814 -0.2588 -0.1658  0.0698
 3315W        W22849   6.918  15.313  15.375 -0.0438  0.4028 -0.0537
 3316W        W22850  16.478   9.581   1.300  0.3748 -0.1705  0.1389
 3317W        W22851  13.140  15.994  15.412 -0.2343  0.0280 -0.1022
 3318W        W22852   5.237  14.648   2.415 -0.6297 -0.1529 -0.0104
 3319W        W22853  11.140  14.906   1.656  0.4154 -0.2191 -0.0458
 3320W        W22854   8.307  15.475  17.306 -0.0628 -0.1399 -0.1977
 3321W        W22855  13.815   2.516   1.797 -0.0372 -0.0278 -0.1018
 3322W        W22856   1.229   2.272  12.371  0.0496 -0.0813  0.1105
 3323W        W22857   3.885  15.389   4.640 -0.4241 -0.1798  0.5609
 3324W        W22858   9.605   6.542   2.265 -0.0098 -0.1153  0.0200
 3325W        W22859   6.312   7.662   1.454 -0.2414 -0.0815  0.4794
 3326W        W22860   5.796  13.191  16.151 -0.0587 -0.0502  0.1464
 3327W        W22861   0.480  10.797  13.989  0.0637 -0.0098 -0.2372
 3328W        W22862   1.164   2.284   0.038 -0.1807  0.1973  0.0778
 3329W        W22863  12.650   2.889   2.929 -0.1243 -0.2249 -0.2063
 3330W        W22864  11.130  12.329   1.384 -0.4679  0.1020  0.0086
 3331W        W22865   9.467  12.282   0.237  0.0150  0.3924 -0.0590
 3332W        W22866   5.118   2.409   3.796 -0.0021  0.0746 -0.1334
 3333W        W22867  17.241   6.321  14.410 -0.1115 -0.0528 -0.0959
 3334W        W22868   7.100   3.619  14.777 -0.0719 -0.2898 -0.1145
 3335W        W22869   3.465   4.276  16.064  0.1663 -0.0321  0.0381
 3336W        W22870   3.321   8.758  16.523 -0.0896  0.0928  0.4426
 3337W        W22871   2.578   1.792   2.886 -0.0449  0.1601 -0.1499
 3338W        W22872   2.796  10.162   0.592 -0.0779 -0.0933 -0.2256
 3339W        W22873   6.088   8.063   4.660  0.1003 -0.3251  0.1428
 3340W        W22874  16.104   9.474   3.470  0.0354  0.0450  0.1597
 3341W        W22875   6.334  16.598   3.333 -0.0346 -0.2136 -0.1251
 3342W        W22876   2.165  13.071   1.083 -0.0403 -0.0485  0.0685
 3343W        W22877   7.462   3.028   3.912  0.1192  0.1820 -0.4042
 3344W        W22878   5.040   5.603   1.643 -0.0917 -0.2907 -0.1546
 3345W        W22879  11.455   4.700   1.650 -0.1835 -0.2351 -0.0866
 3346W        W22880   9.316   5.945  12.230 -0.0385 -0.1587 -0.0034
 3347W        W22881   2.829  11.432  13.179  0.2644  0.1027 -0.0402
 3348W        W22882  14.634   2.355   1.144 -0.0276  0.1617  0.3364
 3349W        W22883   2.680   5.268  12.226 -0.2848  0.1277  0.2803
 3350W        W22884   9.417   0.185   2.018  0.0892 -0.0053  0.2401
 3351W        W22885   5.469  17.195   0.814 -0.0638  0.3295  0.1079
 3352W        W22886  12.665  10.821  14.399 -0.0179  0.3695 -0.1305
 3353W        W22887  12.078  14.224  12.768  0.4053 -0.0648  0.0524
 3354W        W22888  11.132  11.099  14.493  0.0416  0.2110 -0.0009
 3355W        W22889  14.813   0.836   3.934 -0.0838  0.2966  0.1687
 3356W        W22890   0.062  13.385  16.017  0.3319 -0.3396  0.1960
 3357W        W22891  15.253   8.558   3.274  0.0531 -0.3015  0.2464
 3358W        W22892   7.931   6.898   0.091  0.2272  0.1024  0.1906
 3359W        W22893  14.860   6.943  13.714  0.0331 -0.1415 -0.0977
 3360W        W22894   6.897   7.262   2.184 -0.2731 -0.0952 -0.0109
 3361W        W22895   6.235  11.644   2.812  0.1530 -0.0841 -0.1284
 3362W        W22896   9.383   3.316   1.545  0.1286  0.2693  0.1179
 3363W        W22897   6.533   5.941  12.395  0.1194  0.2049  0.0218
 3364W        W22898   3.167  15.408  17.034 -0.0452  0.0353  0.2948
 3365W        W22899   1.750   6.293  15.428  0.0560  0.2593 -0.1514
 3366W        W22900  16.022   4.819   0.277  0.3237 -0.0057 -0.1203
 3367W        W22901   5.496   1.214  13.530  0.1372 -0.0941  0.1317
 3368W        W22902  13.482   1.179   1.554 -0.0856  0.1291  0.1532
 3369W        W22903   8.228   6.934  13.365  0.2432 -0.1527 -0.2318
 3370W        W22904   1.957   9.759   3.171 -0.0258  0.3549 -0.3410
 3371W        W22905  12.038  15.878  15.197 -0.1540  0.1818 -0.0443
 3372W        W22906  16.723  13.505   4.660 -0.1612 -0.1698 -0.0731
 3373W        W22907   1.340   5.595   1.663 -0.2127 -0.0020 -0.1307
 3374W        W22908  12.314   2.023  14.706  0.0226  0.2492  0.0787
 3375W        W22909  10.353   4.512   2.507 -0.3105  0.0963  0.1404
 3376W        W22910   7.101   7.571   0.496 -0.3411  0.0915 -0.0276
 3377W        W22911   4.539   6.783  13.181 -0.3051  0.2057 -0.0477
 3378W        W22912  15.870  15.483   0.151 -0.4066 -0.0929 -0.2048
 3379W        W22913   9.632  14.467   4.214  0.1483  0.0324  0.0791
 3380W        W22914   8.097  13.640  16.716 -0.2266 -0.2435  0.0186
 3381W        W22915   2.691   4.339   5.131  0.0581  0.0658 -0.2369
 3382W        W22916  11.254  11.207   4.665 -0.0779 -0.0641 -0.3991
 3383W        W22917   1.572   7.174   5.126 -0.0479 -0.3107  0.1260
 3384W        W22918  10.495   3.866   0.497  0.1207 -0.2380  0.0007
 3385W        W22919   4.845  10.658  14.601  0.0438  0.2329 -0.0167
 3386W        W22920   7.426   1.929   4.511 -0.0974 -0.2629  0.2450
 3387W        W22921  13.553  12.312  14.364 -0.2519  0.0134 -0.0597
 3388W        W22922   0.546   5.894  17.106  0.2584 -0.0835 -0.1351
 3389W        W22923   6.817   4.351  14.949 -0.1578 -0.1014 -0.1255
 3390W        W22924  13.464  16.509   4.598  0.0967 -0.1765  0.0682
 3391W        W22925   4.016  15.710   0.899 -0.1073  0.0667 -0.1895
 3392W        W22926  15.293   1.034  17.081  0.1894  0.0777 -0.0774
 3393W        W22927  13.193   0.567   2.555  0.0341  0.0062  0.0554
 3394W        W22928   1.135   9.323  17.017  0.3765  0.2116  0.1071
 3395W        W22929   4.495   2.613  11.829 -0.1531 -0.1409 -0.1670
 3396W        W22930  10.687  12.783   1.611  0.0021  0.1900  0.0749
 3397W        W22931  11.472  15.832   5.296  0.2946  0.0065  0.2045
 3398W        W22932   7.085   2.196   4.239 -0.1990 -0.0323  0.1940
 3399W        W22933  10.153  10.863   5.094 -0.2299  0.0551  0.0804
 3400W        W22934  15.761  16.149   1.488 -0.3780 -0.1682  0.0504
 3401W        W22935  17.012  17.020  16.767  0.3181 -0.2142 -0.0136
 3402W        W22936   2.022   6.159  13.104 -0.2721 -0.0112  0.1180
 3403W        W22937  10.617   8.098   3.764  0.2701 -0.1402  0.2707
 3404W        W22938  11.426   5.595  16.713 -0.0633  0.1150  0.0206
 3405W        W22939   9.986   5.167  14.866 -0.0625  0.1977 -0.0521
 3406W        W22940   5.683  13.501  12.653 -0.0198  0.0285 -0.2691
 3407W        W22941   8.795   2.920   2.169  0.0887 -0.0737  0.1213
 3408W        W22942   6.325   8.365  12.912 -0.1222  0.3034  0.2336
 3409W        W22943   4.713  15.405   2.883 -0.3108  0.0901  0.1542
 3410W        W22944  11.185   2.844   0.542  0.0969  0.2838 -0.0180
 3411W        W22945  14.053   5.226  16.528  0.0609  0.0682 -0.1000
 3412W        W22946   9.056   0.308  13.883 -0.0908  0.1678 -0.0249
 3413W        W22947   7.707  10.563  13.151  0.0416 -0.2766  0.2272
 3414W        W22948  14.717   6.227  14.316  0.0136 -0.3542  0.1813
 3415W        W22949  14.706  14.381   2.258  0.0973 -0.0619  0.1664
 3416W        W22950  14.526   1.213  16.560 -0.1490  0.0155 -0.2168
 3417W        W22951   8.870   3.169   4.886  0.0761  0.0351 -0.1389
 3418W        W22952   4.341   9.735   3.516 -0.1654  0.0458 -0.0893
 3419W        W22953   9.564   5.502  14.776  0.0447 -0.0924  0.0692
 3420W        W22954  11.770   6.190   0.772  0.0845  0.1742  0.1150
 3421W        W22955   6.814  10.240   3.622  0.1252  0.0487 -0.0572
 3422W        W22956   6.353   7.364  12.637  0.1436 -0.1405 -0.1204
 3423W        W22957   6.163  13.118  13.388  0.0727 -0.1860  0.0803
 3424W        W22958   9.924   7.600   3.334  0.3111 -0.0236 -0.0063
 3425W        W22959  11.713   6.973  16.783 -0.1560  0.3248  0.0093
 3426W        W22960   3.603   7.558   4.554  0.0064 -0.0689 -0.0135
 3427W        W22961   4.395  11.794   3.775 -0.1076  0.2278  0.2188
 3428W        W22962   5.174   9.611  14.685 -0.1579  0.1593 -0.1167
 3429W        W22963   6.536   0.893  12.893  0.0716  0.1561 -0.0389
 3430W        W22964   3.153   7.035   4.174  0.1363 -0.0640 -0.1604
 3431W        W22965   4.609  14.458   0.404 -0.1762  0.2627 -0.2582
 3432W        W22966   0.513  14.221  14.409 -0.1472 -0.0088  0.1235
 3433W        W22967  16.065  16.166  16.366  0.0246  0.0773 -0.0759
 3434W        W22968   8.246  13.650  15.814  0.2190 -0.1742  0.0489
 3435W        W22969  16.090   0.801   2.072 -0.0243  0.1109 -0.0873
 3436W        W22970  16.126   6.226  15.135 -0.0595  0.0292  0.2752
 3437W        W22971  15.229   9.567   4.043 -0.0967 -0.2813  0.2408
 3438W        W22972  16.533  10.057   2.367  0.1292 -0.0256  0.2053
 3439W        W22973   9.073  14.798  12.932  0.1869  0.1557  0.0537
 3440W        W22974   5.845   0.736  15.314 -0.1570  0.2042 -0.1126
 3441W        W22975   0.590  16.087  16.146  0.2423  0.0944  0.0171
 3442W        W22976   4.060   2.032   3.680 -0.1120 -0.0626  0.0565
 3443W        W22977   9.308   8.365   1.628  0.1770  0.1887  0.1717
 3444W        W22978   9.647   8.727  15.721  0.4018  0.2827 -0.1073
 3445W        W22979   9.980   1.784   1.756  0.1456 -0.2985 -0.0929
 3446W        W22980  16.868   9.837  12.483 -0.4722  0.0523 -0.1098
 3447W        W22981   4.258   3.681  15.835  0.2702  0.1958  0.2686
 3448W        W22982  12.828  13.413   1.914  0.1331 -0.0587  0.0680
 3449W        W22983   6.555   7.635  16.541  0.1213  0.1143  0.0603
 3450W        W22984   8.871   1.885  14.144 -0.1893 -0.0202  0.0212
 3451W        W22985  11.859  14.693   4.156  0.0371 -0.0728  0.0424
 3452W        W22986  10.590   3.232  16.626 -0.1280  0.1725  0.1007
 3453W        W22987   7.399   7.610  14.645 -0.3847 -0.0750 -0.0223
 3454W        W22988   2.569   4.651   2.979  0.0247 -0.0062 -0.0081
 3455W        W22989  10.024  14.004   1.540  0.1373 -0.0716 -0.2041
 3456W        W22990  15.685   5.033   4.505  0.1771  0.1328  0.1020
 3457W        W22991  15.405  16.797  13.980 -0.0632 -0.2394 -0.2052
 3458W        W22992  12.196  14.542  13.989  0.1582  0.0145  0.1445
 3459W        W22993  16.746   2.747  15.465  0.1932 -0.1970 -0.0281
 3460W        W22994  12.372  16.765   1.412 -0.2177  0.0188 -0.2051
 3461W        W22995  14.018   6.721  16.470 -0.0522  0.0885  0.1623
 3462W        W22996   2.521   6.881   1.069 -0.1588  0.4572  0.0424
 3463W        W22997  13.308   3.256  15.617  0.1503 -0.0029 -0.2521
 3464W        W22998   4.705  14.805  13.833 -0.0863 -0.0810  0.2627
 3465W        W22999  14.261   3.900  16.315 -0.0247  0.1554  0.2698
 3466W        W23000  17.019   1.829  16.983 -0.1785  0.4191  0.1715
 3467W        W23001   5.154  12.804  12.734 -0.3224 -0.1051 -0.1640
 3468W        W23002   2.635   4.276   1.306  0.1651 -0.0214 -0.2005
 3469W        W23003   4.224  10.012  16.077 -0.2069  0.4441 -0.0489
 3470W        W23004   3.457   7.816  17.227 -0.1800  0.3021  0.2379
 3471W        W23005   1.853   8.794   3.448  0.0758 -0.0000  0.1123
 3472W        W23006   5.677   7.987  15.218  0.1564 -0.1525 -0.4829
 3473W        W23007  14.884   0.242  16.765  0.0736  0.0290 -0.4026
 3474W        W23008  16.976   1.965  12.796 -0.0015 -0.1029 -0.0993
 3475W        W23009   2.374   1.423   2.477  0.0484 -0.0326  0.1621
 3476W        W23010   5.128   4.215   4.777 -0.2687 -0.1076 -0.0030
 3477W        W23011  10.393   6.110   1.689 -0.0195  0.0209  0.1903
 3478W        W23012  15.112   8.077   1.040 -0.0535 -0.1593  0.0319
 3479W        W23013   2.557   6.401  15.159  0.0948 -0.2270  0.0546
 3480W        W23014   2.823  11.593   0.446  0.2364 -0.1956  0.0123
 3481W        W23015  17.054   0.471   3.138 -0.1102 -0.1503  0.0934
 3482W        W23016  15.829   8.496  14.526 -0.0320 -0.0136  0.1341
 3483W        W23017   0.307   0.253   4.813 -0.1901  0.0686 -0.1209
 3484W        W23018   6.449  11.550   2.257 -0.0296  0.2148  0.0039
 3485W        W23019   5.035  13.320  17.109 -0.1069  0.1446  0.4018
 3486W        W23020  15.444   3.052  15.027  0.4187 -0.0250  0.0284
 3487W        W23021   5.368   9.216  15.840  0.1061  0.1769  0.1003
 3488W        W23022   5.560   3.661  12.664 -0.0974  0.0213 -0.2844
 3489W        W23023  11.461   4.550  17.213  0.1189  0.4611  0.2402
 3490W        W23024  13.691  11.474   3.083 -0.1921  0.2486 -0.0528
 3491W        W23025   5.443   8.000   1.033  0.1762  0.0376 -0.0249
 3492W        W23026   2.862   3.675  12.972 -0.0706 -0.2952  0.1897
 3493W        W23027  14.278   4.229  12.397  0.0271  0.2707 -0.2474
 3494W        W23028   4.740  14.972  12.801  0.1083  0.2514  0.1008
 3495W        W23029   8.606   2.339   5.059 -0.3653 -0.1864 -0.2806
 3496W        W23030   0.246   6.377   1.282 -0.1392 -0.0685 -0.1454
 3497W        W23031   9.488   5.257   4.277  0.0966 -0.1200 -0.0785
 3498W        W23032   5.921  16.318  15.325  0.2247  0.1390  0.0102
 3499W        W23033  15.993  15.724  13.339 -0.0036  0.1688  0.1553
 3500W        W23034  16.795   3.110  14.611  0.1854 -0.1049  0.0040
 3501W        W23035   5.448   7.461  12.559  0.0519 -0.1914  0.3760
 3502W        W23036   6.118   1.680  13.518  0.2278 -0.1734 -0.2245
 3503W        W23037   8.419  13.508   1.842  0.0186 -0.2349  0.0971
 3504W        W23038  11.113   7.771  13.041 -0.1556  0.0923 -0.0829
 3505W        W23039   6.350  10.264   2.442  0.2406  0.1561  0.1973
 3506W        W23040  11.547   3.116  17.194 -0.1592 -0.2224  0.1428
 3507W        W23041   9.999  11.800  13.794 -0.2632 -0.2386 -0.1034
 3508W        W23042  11.457   3.606   0.166 -0.1773  0.0800 -0.2396
 3509W        W23043   2.859   6.523   2.615  0.1189  0.1442 -0.0802
 3510W        W23044  15.451   8.008  14.039  0.0424 -0.0038 -0.0320
 3511W        W23045   7.201   0.953   4.970  0.2042 -0.0985 -0.2893
 3512W        W23046  11.950  14.611  16.546 -0.3304 -0.2007  0.0657
 3513W        W23047   5.827   3.839  13.460 -0.1480  0.3536  0.2895
 3514W        W23048   7.584  13.061  14.706  0.0195 -0.1157 -0.1156
 3515W        W23049   6.860  11.831   3.253 -0.5857  0.0214  0.0844
 3516W        W23050  15.831   3.416  15.216  0.2435  0.1403  0.0114
 3517W        W23051   8.492   4.684  15.596 -0.1135  0.0298 -0.0264
 3518W        W23052   2.176  16.452   0.948 -0.0558  0.1818 -0.1165
 3519W        W23053  11.930   9.245  13.730 -0.2173 -0.1987  0.2705
 3520W        W23054  16.577  10.893  12.553  0.0696  0.2865 -0.3708
 3521W        W23055   9.791   4.100   0.552  0.1257 -0.2224 -0.1284
 3522W        W23056  13.949   0.022  15.341 -0.1611 -0.2181 -0.0053
 3523W        W23057  13.572  11.476   2.605  0.1841  0.0730  0.0094
 3524W        W23058  13.955   0.963   4.887 -0.0653  0.0574  0.1316
 3525W        W23059   1.998   0.250   3.844 -0.0300  0.1438 -0.2405
 3526W        W23060  13.002   7.798  15.576 -0.1667  0.2840  0.2243
 3527W        W23061   6.792   5.296   4.363 -0.0604 -0.0589  0.4706
 3528W        W23062  13.008   8.064  15.000 -0.0835  0.0890  0.1606
 3529W        W23063  13.912  10.293  15.785  0.0782 -0.1488  0.0890
 3530W        W23064  17.394   9.711  11.122 -0.3412  0.0890 -0.1435
 3531W        W23065  13.566   7.318  14.864 -0.0276 -0.2131 -0.1747
 3532W        W23066   1.921  10.269   4.394  0.2751  0.0669 -0.1880
 3533W        W23067   0.833   2.639   0.916  0.0671  0.0341  0.0003
 3534W        W23068   6.741   2.127   2.772  0.0905 -0.0174  0.1409
 3535W        W23069   6.314   3.604  15.228  0.1743 -0.1564 -0.0252
 3536W        W23070   0.425   2.835  15.973 -0.0337 -0.0642  0.2665
 3537W        W23071  13.894   8.167  14.990 -0.4093 -0.0105 -0.2487
 3538W        W23072  12.436  16.352   2.283 -0.1485 -0.2653 -0.0304
 3539W        W23073   7.839   2.191  15.449 -0.0081 -0.1358 -0.0676
 3540W        W23074  11.186   9.376   3.471 -0.0224  0.0728 -0.0119
 3541W        W23075  10.212   1.376   3.917 -0.1482  0.1944 -0.1662
 3542W        W23076  17.110  17.375   1.833  0.1909  0.0747  0.0378
 3543W        W23077  13.894   2.832  15.787  0.2535 -0.0173  0.0035
 3544W        W23078   7.423   1.816  12.726  0.0869 -0.0869  0.0035
 3545W        W23079  14.095  14.351   4.695 -0.0840 -0.2124  0.1728
 3546W        W23080  14.522  11.126  16.409 -0.2223 -0.0891  0.1362
 3547W        W23081   2.980  14.445   3.234 -0.0527 -0.3115 -0.4025
 3548W        W23082  11.415   1.099  12.886 -0.0832  0.0362  0.0381
 3549W        W23083   6.273   4.582  15.215  0.0027 -0.3125  0.0435
 3550W        W23084   3.592   7.713  15.346 -0.2254 -0.0317  0.1117
 3551W        W23085   2.659   7.641   2.089  0.3926 -0.4914 -0.2008
 3552W        W23086   0.193   6.224  15.998  0.1697 -0.3344 -0.1542
 3553W        W23087   3.471   6.303   3.986  0.0649  0.0125  0.0739
 3554W        W23088  11.615   7.756  12.854 -0.1501 -0.2364 -0.0644
 3555W        W23089   0.993   5.804  12.481 -0.1417  0.0004  0.1749
 3556W        W23090  15.596  12.327   4.155  0.1141  0.1850  0.1722
 3557W        W23091   1.433   5.377   4.267 -0.0320  0.4418  0.0629
 3558W        W23092   3.265  15.762  15.066  0.0672  0.0392  0.3524
 3559W        W23093  15.819   5.782  14.563  0.1034 -0.1018 -0.0036
 3560W        W23094   4.551   2.317  13.397 -0.1718  0.0346 -0.0812
 3561W        W23095  10.721  15.361  14.320 -0.0114 -0.0008  0.2586
 3562W        W23096   0.121  14.653  14.530 -0.0545 -0.0144  0.0740
 3563W        W23097   1.911   4.701  12.380 -0.0229  0.1291 -0.0122
 3564W        W23098   0.908   3.354  16.175 -0.4252  0.0213 -0.1144
 3565W        W23099  10.505   9.487  14.965 -0.0230 -0.2141 -0.1217
 3566W        W23100  10.231   0.739   0.283 -0.2448  0.1428  0.0532
 3567W        W23101   7.064   2.854   3.505 -0.0660 -0.1128 -0.0056
 3568W        W23102   7.535  13.513   5.086  0.0963  0.0620  0.1957
 3569W        W23103   0.240   9.898   3.574  0.0423 -0.2975 -0.0282
 3570W        W23104  15.314  12.930  12.749 -0.3097 -0.1505 -0.0149
 3571W        W23105   0.452   2.584  14.990  0.0788 -0.2682  0.0826
 3572W        W23106   2.741   6.499   0.795  0.1369 -0.1504 -0.4103
 3573W        W23107   7.579  11.095  15.937  0.1042 -0.1304  0.0869
 3574W        W23108  10.821  13.021  12.309  0.0800 -0.0177  0.3408
 3575W        W23109  17.112   3.920   0.589 -0.0959 -0.1781  0.0001
 3576W        W23110  15.311  11.600   4.609  0.0370  0.0757 -0.1676
 3577W        W23111  11.819  10.930  13.657 -0.0446 -0.2433  0.0241
 3578W        W23112   1.414   1.546  12.834 -0.1226 -0.0493 -0.1930
 3579W        W23113   9.433  15.231   0.655 -0.1147 -0.0245 -0.1128
 3580W        W23114  10.165  17.399   3.767  0.2587 -0.4312  0.3609
 3581W        W23115   7.224  13.855  16.583 -0.1476  0.0383 -0.0264
 3582W        W23116  10.290   6.658  16.538 -0.0189 -0.2595 -0.0533
 3583W        W23117  13.204  15.404  15.440  0.0847 -0.2017  0.1852
 3584W        W23118   3.024  13.107  17.147  0.2402  0.0672  0.2317
 3585W        W23119   2.601   5.034  13.149  0.0748 -0.4014  0.0645
 3586W        W23120  10.805   7.548  15.814  0.0731 -0.1632 -0.0556
 3587W        W23121  13.427   7.139   1.161 -0.0253  0.0986  0.2594
 3588W        W23122   0.282   8.271  13.821 -0.0822 -0.2620  0.2414
 3589W        W23123   7.789   4.695   1.327  0.1403 -0.1241  0.1292
 3590W        W23124   2.837  14.854   5.140  0.0162 -0.2457 -0.1092
 3591W        W23125   4.044  11.499   3.045 -0.0970 -0.2844 -0.3596
 3592W        W23126  14.132   5.427   1.253  0.0777 -0.2185 -0.1669
 3593W        W23127   0.400   0.811   1.069  0.0580 -0.0215 -0.0847
 3594W        W23128   6.052  14.533  16.638  0.2835  0.0958 -0.1860
 3595W        W23129   8.650   0.182   2.961  0.1406  0.0758  0.0602
 3596W        W23130   9.688  13.782  11.700  0.1916  0.0269 -0.0358
 3597W        W23131   6.195   8.032   1.875 -0.0209 -0.1915 -0.0488
 3598W        W23132  10.834   2.233   1.347  0.1566 -0.2989 -0.2797
 3599W        W23133   8.267   3.112   4.943  0.0154 -0.0235  0.0534
 3600W        W23134   4.065   9.322  12.487  0.3296 -0.2825  0.2624
 3601W        W23135   1.453   9.095   5.258  0.1430 -0.2249 -0.2384
 3602W        W23136  16.202  11.010  13.852 -0.0205  0.0655 -0.1325
 3603W        W23137   7.374   7.264   4.123 -0.2881  0.0126  0.1238
 3604W        W23138   3.889   6.078   2.590 -0.0254 -0.0881 -0.2243
 3605W        W23139  16.942   0.030   0.479  0.1670  0.2458 -0.0311
 3606W        W23140  14.386  14.606  15.948 -0.0007 -0.1778  0.3432
 3607W        W23141   2.309   2.418   0.008  0.0140  0.1041  0.4759
 3608W        W23142  13.789   4.440   3.558 -0.0979  0.1990 -0.2583
 3609W        W23143  10.285  12.617   2.609  0.2561 -0.0880 -0.3887
 3610W        W23144   2.845   5.074  14.482 -0.1327  0.1156 -0.2034
 3611W        W23145  15.222   8.377  17.093 -0.1925 -0.1556 -0.1502
 3612W        W23146  16.516   1.291   2.175 -0.1926  0.0604  0.1274
 3613W        W23147   1.637   6.154   1.673 -0.2118  0.0050 -0.1723
 3614W        W23148  11.324   3.249  15.526  0.0883  0.0445  0.0149
 3615W        W23149   0.874  14.441   1.285 -0.0172  0.0338  0.4048
 3616W        W23150  16.334   0.422   1.910 -0.0479  0.2048  0.1015
 3617W        W23151   4.314   0.255   1.509  0.2060 -0.2150 -0.2650
 3618W        W23152  17.356  17.155   0.293 -0.0892  0.1453 -0.0034
 3619W        W23153   7.374   9.792  16.174  0.0530  0.1214 -0.1172
 3620W        W23154   5.550   0.282   3.526 -0.0678  0.1851 -0.0995
 3621W        W23155  11.975   9.986  17.280  0.0406  0.1719 -0.1811
 3622W        W23156  12.343  11.555  12.947  0.1898  0.1228 -0.0651
 3623W        W23157   6.896  14.286   2.961 -0.0042 -0.0480  0.2926
 3624W        W23158   2.403   8.121  15.137 -0.2246 -0.2952  0.1313
 3625W        W23159   0.388  11.763  16.524 -0.0953 -0.0879  0.2479
 3626W        W23160  13.147  14.336  12.963 -0.0740  0.0342  0.1788
 3627W        W23161   4.362  12.878   1.513 -0.0961 -0.1132  0.1014
 3628W        W23162  14.697   4.009  13.652  0.1046 -0.0461 -0.1358
 3629W        W23163   2.446  17.349   0.553 -0.1102 -0.0494  0.0688
 3630W        W23164   4.401   0.158   1.977  0.5078  0.1026  0.0490
 3631W        W23165   9.483   4.640   3.541  0.3115  0.2379  0.1125
 3632W        W23166   5.499   9.109   2.415 -0.0263  0.3776 -0.2354
 3633W        W23167  14.714  12.066  14.048  0.0653  0.1927 -0.1171
 3634W        W23168   7.375   9.098   2.582 -0.2465  0.2044 -0.0730
 3635W        W23169   3.117   3.433  16.982  0.0443 -0.1622 -0.2255
 3636W        W23170   4.399   2.269  15.506 -0.1338  0.0697 -0.0164
 3637W        W23171  13.190  13.416   3.823 -0.1066 -0.2507  0.0133
 3638W        W23172   3.102   1.127  15.829  0.0672 -0.2512  0.0503
 3639W        W23173   0.798  13.262   3.763  0.0151  0.0435 -0.1794
 3640W        W23174  15.486  15.380   2.569 -0.1179  0.2090 -0.0124
 3641W        W23175   5.881   0.622   2.663 -0.1517  0.1064 -0.0893
 3642W        W23176  13.041   0.984   4.863 -0.2654  0.0446  0.0810
 3643W        W23177   4.056   3.945  12.757 -0.1755  0.2979 -0.4185
 3644W        W23178   3.763   3.752  16.000  0.2793  0.2178  0.4250
 3645W        W23179   2.315   1.945   4.818  0.2516  0.1718  0.3322
 3646W        W23180   1.003   6.851   0.570 -0.0661  0.1899  0.0773
 3647W        W23181  13.659  10.776   3.538 -0.2754  0.1877 -0.0572
 3648W        W23182  10.637  14.515   0.562  0.2654 -0.0071  0.1175
 3649W        W23183   1.261   5.826   2.121 -0.2623 -0.1370 -0.0163
 3650W        W23184   3.435   0.824  16.070  0.0795  0.0547  0.2652
 3651W        W23185  16.463  12.152   2.606 -0.0265  0.0382  0.1243
 3652W        W23186   3.313  14.059   2.506 -0.1469  0.0290  0.0744
 3653W        W23187  15.827   5.110   1.380  0.3788  0.1411 -0.0618
 3654W        W23188   3.292   4.032  15.087 -0.1542  0.0426 -0.2899
 3655W        W23189  17.445  12.942  14.690 -0.3415 -0.1582  0.0639
 3656W        W23190   4.410   5.235  13.322 -0.1817  0.2416  0.0264
 3657W        W23191   0.466  16.085   3.566 -0.1695 -0.2681 -0.2228
 3658W        W23192  15.865  15.984  14.153 -0.3069 -0.2476  0.0614
 3659W        W23193  14.356   4.172   0.224  0.0605  0.1270 -0.0127
 3660W        W23194  12.683   3.516   3.524  0.0831  0.0404  0.0979
 3661W        W23195   4.836   8.351  14.570 -0.2014  0.2082 -0.2718
 3662W        W23196   9.784  14.728  16.349  0.0758 -0.3875  0.0066
 3663W        W23197   1.817   6.844   3.360  0.0794 -0.0065  0.3720
 3664W        W23198  14.712   1.774   1.897 -0.2420  0.1703  0.3074
 3665W        W23199   7.609  10.159  16.622  0.2258  0.4369 -0.2185
 3666W        W23200  12.914   0.987   2.222 -0.0153 -0.1385 -0.2007
 3667W        W23201  11.399   2.420   4.773  0.0100 -0.1150  0.1816
 3668W        W23202   9.292   0.553  12.214 -0.0753 -0.2428  0.3153
 3669W        W23203  12.367   4.077  13.963 -0.0874  0.4284 -0.0703
 3670W        W23204   7.806   3.436   0.491 -0.0413  0.1861  0.1213
 3671W        W23205  14.570  11.905   5.100  0.2583  0.2452  0.0225
 3672W        W23206   7.395   8.127  16.919  0.2727  0.3590 -0.2230
 3673W        W23207  15.254  16.491   0.306  0.1286 -0.0995  0.1039
 3674W        W23208   1.653   0.681  16.644 -0.2357 -0.2910  0.1236
 3675W        W23209  17.293   8.003   1.292  0.1050 -0.3312 -0.1739
 3676W        W23210   8.165  10.539   1.144 -0.1944 -0.2418 -0.0904
 3677W        W23211   3.225  10.516  15.084 -0.0724 -0.1180 -0.3714
 3678W        W23212  16.776  14.104  14.578 -0.0555  0.0565  0.1178
 3679W        W23213   1.440   5.174   0.772 -0.2450 -0.2211  0.3384
 3680W        W23214   7.729   8.781   4.260  0.3081  0.0806 -0.0595
 3681W        W23215  10.960   3.107  14.696  0.2781 -0.1740 -0.0739
 3682W        W23216  14.795   2.874  16.292 -0.2082  0.0755 -0.0435
 3683W        W23217  12.630  17.470  15.650  0.1162 -0.0290 -0.2030
 3684W        W23218   7.474  13.642  14.289  0.0032 -0.0952 -0.0224
 3685W        W23219   4.832   4.916  14.119 -0.0914  0.2400  0.1873
 3686W        W23220   2.906   9.615   0.318 -0.0016  0.3389  0.1958
 3687W        W23221  13.735   0.135   3.464 -0.2017  0.1998  0.0591
 3688W        W23222   4.965  16.918  14.558  0.0477  0.2872 -0.0436
 3689W        W23223  13.138  17.172   1.434  0.0600  0.3243  0.3070
 3690W        W23224   7.653  13.405  15.734 -0.2465 -0.3321 -0.0915
 3691W        W23225   0.742  13.941   1.479  0.1843 -0.2872 -0.0223
 3692W        W23226   9.023   1.315  12.704 -0.1138  0.0334  0.0628
 3693W        W23227  13.934   3.685   4.594  0.1684  0.2570  0.0349
 3694W        W23228   9.586   6.036  12.975 -0.1307 -0.0409  0.0078
 3695W        W23229   3.129   8.260   3.197 -0.2933 -0.0373  0.1013
 3696W        W23230  13.337  15.620  14.672 -0.1754 -0.0763 -0.0566
 3697W        W23231   1.003  16.397   3.439  0.3587 -0.1566  0.4511
 3698W        W23232  16.569  10.840   3.564  0.3788  0.1097 -0.0665
 3699W        W23233   8.073   4.915  16.093  0.2211  0.0420  0.1133
 3700W        W23234  16.813  17.062  13.174  0.1423 -0.1433 -0.3358
 3701W        W23235  16.562   4.613   1.428 -0.0684 -0.0490 -0.1769
 3702W        W23236   7.731  10.679   1.370 -0.1604 -0.1911  0.1061
 3703W        W23237   1.538   9.508   2.460  0.2417 -0.0479 -0.1311
 3704W        W23238  14.924  14.174   4.530 -0.0139 -0.0692  0.1474
 3705W        W23239   2.922  12.172   1.593 -0.1335 -0.0660 -0.1647
 3706W        W23240  16.928  12.899   1.362 -0.1151  0.1875  0.0762
 3707W        W23241  11.014   0.082  14.233  0.1239  0.0334  0.1526
 3708W        W23242  17.264  14.977   5.853 -0.0454  0.2303 -0.0180
 3709W        W23243   4.240   4.903   3.511  0.2301  0.2514  0.1044
 3710W        W23244   5.431   2.760  13.384 -0.0704 -0.0076  0.0515
 3711W        W23245   7.661  10.116  13.475 -0.0497  0.2447 -0.1196
 3712W        W23246  15.177   5.023  17.224  0.1045 -0.2011 -0.0701
 3713W        W23247   2.599  12.434  15.855 -0.0665 -0.0856  0.1803
 3714W        W23248  16.682   7.282  16.100  0.2238  0.0426 -0.2115
 3715W        W23249   4.123   2.543  14.035 -0.1805  0.0813 -0.0689
 3716W        W23250  11.644   9.859  12.657  0.1609  0.0639  0.0741
 3717W        W23251  12.049  10.973  14.219 -0.2648 -0.1850 -0.0745
 3718W        W23252   4.221  13.072  14.486  0.4051  0.2657 -0.1277
 3719W        W23253   0.009  13.503   3.394  0.3317 -0.2175  0.0519
 3720W        W23254  12.799   0.994  14.134 -0.0942  0.0403  0.0529
 3721W        W23255  14.247   1.018   1.856 -0.0761 -0.1349 -0.0616
 3722W        W23256   1.293   5.421   2.487 -0.0335 -0.2851  0.2092
 3723W        W23257   6.262  12.087   4.199  0.3811 -0.2870  0.1555
 3724W        W23258  13.017  11.805   3.473  0.0606 -0.1631  0.0490
 3725W        W23259   4.139   2.635   2.429 -0.1141  0.1139  0.0990
 3726W        W23260   5.966   1.064  13.718  0.0080  0.2472  0.0896
 3727W        W23261   6.838   4.594   1.457  0.1695  0.1511  0.1763
 3728W        W23262  14.698   5.417  15.076 -0.1620 -0.0013 -0.2188
 3729W        W23263   4.201  16.033  15.621  0.0641  0.0009  0.0122
 3730W        W23264   3.746  16.156   0.517 -0.2909  0.1571  0.0734
 3731W        W23265   7.381  11.100   2.478 -0.0286 -0.1268 -0.1158
 3732W        W23266   4.039  17.327   4.837 -0.1533 -0.2362  0.0725
 3733W        W23267   1.122   8.827   5.027  0.2186  0.2714 -0.0584
 3734W        W23268   6.954  13.349   4.181  0.1685  0.0243  0.5587
 3735W        W23269   7.486   4.770  14.730  0.1842 -0.2022 -0.1916
 3736W        W23270   9.981   1.454   2.201  0.0564 -0.2991 -0.2031
 3737W        W23271   1.224   3.439   4.370  0.1014  0.0210  0.3933
 3738W        W23272   3.080  12.280   3.596  0.2568  0.0657  0.1212
 3739W        W23273   1.605   3.498   4.079  0.1250 -0.0127 -0.4890
 3740W        W23274  11.143   0.659  17.233 -0.0675  0.1065  0.1084
 3741W        W23275   7.481   9.295  15.178  0.0975  0.1939  0.1666
 3742W        W23276  10.849   3.944  15.072 -0.2534 -0.3663 -0.0733
 3743W        W23277  11.521   8.618  16.091 -0.1833  0.1528  0.0207
 3744W        W23278   1.235   9.010  14.975 -0.0562  0.3731 -0.2272
 3745W        W23279  10.829  12.386  17.031 -0.1252 -0.1531  0.1398
 3746W        W23280  15.356  14.026  13.259  0.0176  0.2561  0.0472
 3747W        W23281   3.917   7.604  13.212 -0.0729  0.1299 -0.0124
 3748W        W23282   9.859   6.666  16.345 -0.1362 -0.1098  0.1595
 3749W        W23283  13.153  17.315   3.940  0.1657  0.2045  0.1763
 3750W        W23284  13.674  14.157  14.755 -0.2194  0.1141 -0.0328
 3751W        W23285   6.667   4.772  13.757  0.1942 -0.0386 -0.0063
 3752W        W23286  11.033   5.945  13.044  0.0691  0.0769  0.2820
 3753W        W23287  11.582  15.449   2.436  0.0067  0.3290  0.1122
 3754W        W23288   1.171   6.688   4.544 -0.2207 -0.0553 -0.2331
 3755W        W23289   9.803  10.677   3.460  0.3879 -0.0126  0.3569
 3756W        W23290  13.393   4.169   0.122 -0.1782  0.1976 -0.0143
 3757W        W23291  16.022   4.147   0.310 -0.0715 -0.1346 -0.3496
 3758W        W23292   1.766   3.046   2.424  0.1556 -0.0074 -0.0403
 3759W        W23293   7.811  14.055  17.066  0.2363 -0.2887  0.0772
 3760W        W23294   7.559   2.006  16.153 -0.0862 -0.0043 -0.2501
 3761W        W23295   9.128  14.990   4.697  0.0584 -0.3525  0.3019
 3762W        W23296   7.088   5.599   0.766 -0.1480  0.3366 -0.2038
 3763W        W23297   1.581  14.688  15.728 -0.1802  0.0143  0.1455
 3764W        W23298  11.114   5.863  14.026  0.2403 -0.1031 -0.4831
 3765W        W23299   1.001  13.405  14.323  0.1658 -0.3756 -0.1263
 3766W        W23300   2.214  10.721   5.207  0.1753  0.0544 -0.1183
 3767W        W23301  12.432  16.168  15.421 -0.1541  0.1729  0.3352
 3768W        W23302   8.032   7.132   5.344 -0.2838  0.1050  0.1323
 3769W        W23303  16.083   4.670  12.972  0.0904 -0.0423  0.0255
 3770W        W23304   7.616  11.350  13.932 -0.1651  0.0467 -0.0927
 3771W        W23305   5.922   0.109  11.958  0.2707 -0.1820  0.1539
 3772W        W23306   1.739   2.400  15.832 -0.0168 -0.1910 -0.0159
 3773W        W23307   1.472   4.363  14.155 -0.2060  0.0348 -0.1061
 3774W        W23308  13.547   9.694   1.146 -0.1545 -0.1767  0.0145
 3775W        W23309  16.007  14.189   2.985  0.0933  0.0079  0.2940
 3776W        W23310   7.861  17.407  13.307  0.0303 -0.1414  0.0591
 3777W        W23311  13.111   1.503  13.316  0.2240 -0.1940 -0.1314
 3778W        W23312  13.824   8.963   2.512 -0.1865  0.3796  0.0659
 3779W        W23313   7.401   9.214   3.488  0.0173  0.1011  0.0507
 3780W        W23314  10.594   0.177   0.326  0.0688 -0.0330  0.1184
 3781W        W23315   0.975   1.502   4.561  0.0367  0.2382  0.1318
 3782W        W23316   1.728   3.080  14.887 -0.2696  0.2133  0.0620
 3783W        W23317  14.963   1.894  15.957 -0.1044 -0.0868 -0.3484
 3784W        W23318  16.373  11.829   2.954 -0.2289  0.0261  0.1914
 3785W        W23319   7.551   5.589   5.328  0.1194  0.0210 -0.1566
 3786W        W23320   8.222   5.363  13.037  0.0823 -0.2260 -0.1575
 3787W        W23321  16.759   4.677  16.157  0.2045  0.1174  0.0786
 3788W        W23322   0.379  16.569  16.283 -0.0015 -0.1589 -0.0497
 3789W        W23323   2.626  17.378  15.392  0.0016  0.0230  0.0520
 3790W        W23324   2.007   9.140  14.522 -0.3507 -0.2424  0.0508
 3791W        W23325   4.052   7.619  16.732 -0.1049  0.1017  0.0843
 3792W        W23326   8.016   3.567  15.889  0.0714  0.0630 -0.0496
 3793W        W23327   5.934   4.699  16.989 -0.0265  0.1306 -0.3992
 3794W        W23328   5.459   4.141  12.390  0.1915  0.0902 -0.0496
 3795W        W23329  10.300  12.418  14.173  0.0244  0.0603 -0.2393
 3796W        W23330  17.476  12.406   2.068 -0.2495  0.0773  0.0632
 3797W        W23331  10.740   3.133   2.066  0.1172 -0.1600  0.0428
 3798W        W23332   3.202   2.324  16.525 -0.1573  0.0689  0.0765
 3799W        W23333  12.836   2.364   0.362  0.0777 -0.3724 -0.2277
 3800W        W23334  16.269   9.722  13.226 -0.1410 -0.1474 -0.2571
 3801W        W23335  11.938  14.862   3.113 -0.1107 -0.0723 -0.0378
 3802W        W23336   3.351  11.290  14.868 -0.0644 -0.0353 -0.3122
 3803W        W23337   2.437   7.948  14.540  0.0183  0.0029  0.0871
 3804W        W23338   4.989   6.759  14.203  0.1563  0.3308  0.2898
 3805W        W23339   6.867  16.568   4.674  0.0174 -0.0948 -0.0048
 3806W        W23340   1.517  13.161  12.658  0.0081  0.0046 -0.1759
 3807W        W23341  14.854   5.536  14.322  0.0717  0.1722 -0.1863
 3808W        W23342   6.965  10.842   2.577  0.1239  0.0217  0.0575
 3809W        W23343   2.556   2.095   3.254  0.2960 -0.0600  0.0275
 3810W        W23344   4.217  12.666  13.170  0.0048 -0.1107 -0.0060
 3811W        W23345   2.882   4.618   0.995  0.1119 -0.0704 -0.0131
 3812W        W23346  11.587  13.295   2.500 -0.1738 -0.2587  0.1331
 3813W        W23347  10.167  12.982   3.394 -0.2908  0.0998  0.0567
 3814W        W23348  15.438  12.996   5.234 -0.0473 -0.1366 -0.0221
 3815W        W23349  14.707  12.815  16.629 -0.0501 -0.1942  0.0930
 3816W        W23350   4.815   7.505  17.060  0.0022  0.0433  0.0841
 3817W        W23351  14.890  11.384   3.026 -0.0006 -0.0998 -0.0197
 3818W        W23352   2.395   3.512  12.949  0.1837 -0.1153  0.0819
 3819W        W23353   2.185  13.052  16.894 -0.2415  0.1289 -0.3232
 3820W        W23354   8.048   9.680   1.133  0.1036 -0.0435  0.1611
 3821W        W23355   8.749   0.491   0.639  0.0280 -0.3721 -0.0179
 3822W        W23356   4.443   1.732   3.274  0.3582  0.1002  0.1429
 3823W        W23357   2.370   0.520   0.781 -0.0601 -0.0631  0.2042
 3824W        W23358   9.814   3.625  14.035 -0.0489  0.0976 -0.0070
 3825W        W23359   2.403   1.928  17.158 -0.1283 -0.1676  0.0527
 3826W        W23360   6.506   9.537  16.161 -0.1286  0.0989 -0.2640
 3827W        W23361  10.003  16.256   1.989 -0.1282 -0.2065 -0.0718
 3828W        W23362  10.441   5.569   0.770  0.3414  0.3669 -0.1405
 3829W        W23363   1.953   5.480   4.933 -0.1729 -0.0066  0.2167
 3830W        W23364   9.882   1.221  13.269 -0.0071 -0.0819 -0.3664
 3831W        W23365  11.872  16.292  12.601  0.0061  0.0228 -0.1247
 3832W        W23366   7.038   9.732  17.134 -0.0896  0.0092  0.0758
 3833W        W23367   5.070   5.431   3.291 -0.1761  0.0713 -0.0619
 3834W        W23368   8.517  13.158   0.987  0.1047 -0.2253  0.0169
 3835W        W23369   4.429   5.842  16.499  0.0975 -0.1475  0.3537
 3836W        W23370  12.648   4.759   3.255 -0.1271  0.0994  0.0114
 3837W        W23371   3.295  10.976  16.428  0.1113  0.1728  0.1237
 3838W        W23372  13.708   3.409   3.306  0.1092  0.1363  0.1099
 3839W        W23373   7.198   3.398   3.520  0.2105  0.0510 -0.2910
 3840W        W23374   3.569   8.343  13.751 -0.1761  0.0585  0.0602
 3841W        W23375  16.119   7.024  14.210 -0.0389  0.2713  0.0796
 3842W        W23376  14.295  14.328  15.515  0.0555 -0.1014  0.1566
 3843W        W23377   1.034  12.883  14.345 -0.1455 -0.0246  0.0977
 3844W        W23378   1.631   6.177   2.222 -0.0519 -0.0126  0.0026
 3845W        W23379   6.891  12.195  16.025 -0.0563  0.2701  0.1215
 3846W        W23380  14.159  11.476  12.292  0.0462  0.0829  0.0831
 3847W        W23381  13.855   2.615  14.561 -0.1726 -0.3271  0.1307
 3848W        W23382  14.682  13.777  14.326 -0.0084  0.1572 -0.0707
 3849W        W23383  16.306  15.075  15.601  0.2084 -0.1799 -0.3591
 3850W        W23384  13.895  12.056  13.449 -0.0461  0.1080  0.1283
 3851W        W23385  13.812  10.993  13.451 -0.2003  0.2806 -0.0679
 3852W        W23386   6.114   3.518  14.782  0.1604  0.0735  0.1070
 3853W        W23387  12.343  11.395   1.082 -0.4351  0.0715  0.4090
 3854W        W23388  17.193   6.014  16.136  0.1347  0.1509  0.1110
 3855W        W23389  16.156  13.014  12.479  0.1105  0.3176  0.1228
 3856W        W23390   9.781  16.463  12.809  0.0006  0.3038  0.0623
 3857W        W23391   5.671  11.946   4.399 -0.0828  0.2492 -0.5390
 3858W        W23392  13.017  15.269   5.089 -0.0889 -0.1180  0.0122
 3859W        W23393  14.499   9.960   3.663  0.0460 -0.0932 -0.1317
 3860W        W23394   9.873  12.155   2.352 -0.0191  0.0079  0.0269
 3861W        W23395  13.027   3.513   4.215 -0.0058  0.0481 -0.2304
 3862W        W23396  10.195  10.604   0.325  0.0293  0.0703  0.1879
 3863W        W23397   0.770   8.969   1.968  0.0074 -0.3553  0.0787
 3864W        W23398  17.385   6.034   1.606 -0.0837 -0.0815 -0.0028
 3865W        W23399  15.175  14.730   2.454 -0.0919  0.0502 -0.0138
 3866W        W23400  13.523   6.081   3.948 -0.3192 -0.0733  0.0433
 3867W        W23401  16.151  11.224   1.832 -0.0989 -0.0312 -0.1572
 3868W        W23402   0.944   1.705   2.390  0.0698 -0.0202 -0.1242
 3869W        W23403  13.423   3.548   1.572  0.0651 -0.3915  0.3177
 3870W        W23404   2.775  15.285   4.662 -0.0174  0.1813 -0.1722
 3871W        W23405  11.104   4.474   1.953  0.2476 -0.1776 -0.2482
 3872W        W23406  16.179   9.988  15.323  0.1183 -0.0661 -0.1829
 3873W        W23407  13.838   9.460  15.289 -0.0828 -0.0963 -0.2080
 3874W        W23408  16.976   8.360  12.396  0.0666  0.0674  0.1200
 3875W        W23409  15.452  12.926   2.616  0.0659 -0.0258 -0.1909
 3876W        W23410  11.716   2.348  14.472 -0.0754 -0.2315  0.0760
 3877W        W23411  10.377  14.289   1.309 -0.2309  0.1791 -0.2201
 3878W        W23412  17.150   5.322  13.185 -0.0149  0.0811 -0.1333
 3879W        W23413   6.216   8.175   4.109 -0.0536 -0.0890 -0.1956
 3880W        W23414  14.491   8.935   2.123 -0.1692  0.0603  0.0047
 3881W        W23415   4.555   4.700  13.440 -0.1955 -0.0757  0.0500
 3882W        W23416  11.259   6.514  16.692  0.2162 -0.0481  0.1679
 3883W        W23417  13.008  11.604  13.296 -0.0625 -0.2794 -0.1051
 3884W        W23418  13.815  14.961   4.092  0.1400  0.0497 -0.0202
 3885W        W23419   0.505   8.128   0.718 -0.3110  0.0468  0.1559
 3886W        W23420   7.504   0.089   1.520  0.0305 -0.2616 -0.0091
 3887W        W23421   7.903  13.924  13.470  0.1380  0.1061  0.2529
 3888W        W23422  10.755   6.773  11.834  0.2978  0.3453 -0.0306
 3889W        W23423   8.410   9.733  14.502 -0.0441  0.0198  0.0155
 3890W        W23424   5.668   8.551   2.643  0.1621  0.0429  0.1872
 3891W        W23425   2.715  14.156   3.640 -0.0569  0.0429 -0.0851
 3892W        W23426   1.048   1.965   5.182 -0.0061 -0.0432 -0.0965
 3893W        W23427  12.068   7.549  15.435 -0.0817 -0.1119  0.0006
 3894W        W23428  12.580  14.120  15.904 -0.0557 -0.0214  0.0431
 3895W        W23429   1.089  13.479   1.925 -0.1725  0.0621  0.0331
 3896W        W23430  13.800   6.534  16.014 -0.1620 -0.2187  0.0274
 3897W        W23431   8.143   6.891  15.575  0.0404  0.4128  0.1906
 3898W        W23432  11.048   4.649   4.628 -0.3199 -0.0508 -0.1636
 3899W        W23433   1.163   1.636   5.561  0.1854  0.1059  0.0465
 3900W        W23434   1.489  13.630   3.092 -0.0359 -0.2123 -0.1398
 3901W        W23435  16.175  15.266  13.677 -0.0239 -0.3306  0.0079
 3902W        W23436   6.075  12.659  13.015 -0.2004 -0.0791  0.1184
 3903W        W23437   4.951   0.591  15.718  0.5422  0.0360  0.0757
 3904W        W23438  11.346   9.289  16.886 -0.0627 -0.1010 -0.0911
 3905W        W23439   4.864  12.079  15.081 -0.0070  0.0338  0.2396
 3906W        W23440   1.727   1.251   3.297 -0.0618  0.1596  0.0256
 3907W        W23441  12.285   2.130  15.650 -0.1851 -0.1190  0.0907
 3908W        W23442   6.106   3.879  11.993 -0.1128  0.0064 -0.0952
 3909W        W23443   0.188   9.069   1.720 -0.2365  0.2233  0.0325
 3910W        W23444   3.954  13.584   1.378 -0.0948  0.1420 -0.1002
 3911W        W23445   2.285   6.972   0.174 -0.1379 -0.2738  0.3080
 3912W        W23446   1.239   4.388   0.423 -0.1380  0.0172  0.0397
 3913W        W23447  16.621   2.901   2.931  0.2267 -0.5655 -0.0503
 3914W        W23448   8.196   0.020   4.229  0.0992 -0.1283 -0.0228
 3915W        W23449  15.508   2.189  16.098  0.0890  0.0816  0.3171
 3916W        W23450  15.034   9.433   2.519 -0.1044 -0.3610 -0.0429
 3917W        W23451  15.796   7.797  12.984 -0.2783  0.0928 -0.1200
 3918W        W23452   0.981   6.801  15.345  0.2256  0.0739  0.1436
 3919W        W23453  17.372  16.948   1.548 -0.0569  0.0353 -0.3297
 3920W        W23454   2.750  15.365   1.562  0.0083  0.3046  0.3196
 3921W        W23455   6.967  16.840  14.103 -0.2236  0.3141 -0.0461
 3922W        W23456  15.278  14.330   0.586  0.0084 -0.3012 -0.0551
 3923W        W23457   6.362  15.402  16.710 -0.0660  0.0913 -0.1951
 3924W        W23458  10.174  16.785  14.591  0.0726 -0.1140  0.1785
 3925W        W23459  10.437   9.897  13.602 -0.2607 -0.1645 -0.1102
 3926W        W23460  16.279  15.776   4.130 -0.0643  0.0495  0.0244
 3927W        W23461   8.693   0.658  15.792 -0.2028  0.0629 -0.3013
 3928W        W23462  14.229   0.164  12.844 -0.0199 -0.2073 -0.1286
 3929W        W23463   3.144   2.794   1.952 -0.0805  0.2966 -0.1324
 3930W        W23464  16.026   7.514  14.351 -0.0304  0.2269 -0.2000
 3931W        W23465   5.885   1.889  15.919  0.0613 -0.0902 -0.1029
 3932W        W23466  10.809   3.625  13.572 -0.1722  0.1632  0.1508
 3933W        W23467   0.657   8.499   3.483  0.0164 -0.0125 -0.2441
 3934W        W23468   1.194   5.192  12.712  0.1331  0.2088 -0.1857
 3935W        W23469   1.036   3.582   2.534  0.1347 -0.0765  0.1493
 3936W        W23470   8.608  16.941  16.692 -0.1287 -0.1780 -0.0912
 3937W        W23471  12.647   0.677   2.837 -0.0790 -0.1587 -0.1243
 3938W        W23472   3.838  11.144   1.334  0.0790 -0.0184  0.1866
 3939W        W23473  11.965  15.156   2.739 -0.0167  0.1591 -0.0890
 3940W        W23474  13.879   6.780   0.938 -0.0085  0.0952 -0.1720
 3941W        W23475   8.843   6.741   3.100 -0.0683  0.0808 -0.0239
 3942W        W23476   2.495   9.961  15.960  0.3745 -0.1858  0.1803
 3943W        W23477   1.583   7.832  14.335  0.1088 -0.1104 -0.0743
 3944W        W23478   5.941   4.028   1.778 -0.0998  0.3388 -0.1728
 3945W        W23479   0.406  15.101   3.890 -0.1454 -0.2945  0.1377
 3946W        W23480  10.654  12.415   0.706  0.0615  0.1317  0.0445
 3947W        W23481  16.861   9.245   0.248  0.1170 -0.0317 -0.4178
 3948W        W23482   7.414   3.326  16.871  0.0335  0.2528  0.2553
 3949W        W23483  11.925  12.015   0.619 -0.0865 -0.0482 -0.2908
 3950W        W23484  11.417   2.635  14.117  0.1357 -0.2579 -0.0965
 3951W        W23485  14.686   5.790  12.446  0.0157  0.4242 -0.1441
 3952W        W23486   6.164   2.244   5.633 -0.1305 -0.2787 -0.1247
 3953W        W23487   9.482  15.262   4.320 -0.1926 -0.0974  0.1635
 3954W        W23488  14.515   4.759  15.416  0.2332 -0.0087  0.0248
 3955W        W23489  15.109   2.947  12.385  0.0187 -0.4008  0.0034
 3956W        W23490  17.301   7.623   2.243 -0.0371  0.0043 -0.0692
 3957W        W23491  11.314  16.480   3.690  0.0437 -0.2147 -0.2074
 3958W        W23492   8.461   0.461   2.097 -0.0535 -0.0989 -0.2055
 3959W        W23493  17.196   5.542   0.853  0.0707  0.1566 -0.1861
 3960W        W23494   3.542   6.768  12.940 -0.1153 -0.2756 -0.3171
 3961W        W23495  12.025   3.288   2.371  0.2345  0.0550  0.0330
 3962W        W23496   3.465   4.361   3.431  0.0207  0.1537  0.1435
 3963W        W23497  14.578   7.749   4.231 -0.1739  0.0239  0.1588
 3964W        W23498   2.779   4.457  17.255  0.0288  0.0182 -0.1896
 3965W        W23499  16.005   1.112  15.317  0.0826 -0.0554 -0.0758
 3966W        W23500  16.391  11.036  12.061  0.4446  0.1360  0.3055
 3967W        W23501  10.352   5.198   3.875  0.0425  0.0579  0.1707
 3968W        W23502   0.419  11.764   3.921 -0.1789  0.3490 -0.0532
 3969W        W23503   2.343   4.357  15.966  0.1256  0.0780 -0.0569
 3970W        W23504   0.229   5.565  14.723  0.1243  0.1838 -0.3682
 3971W        W23505   7.294  13.295   0.735 -0.1329 -0.0249 -0.0252
 3972W        W23506   3.416   1.724   0.837 -0.0263 -0.1741 -0.0534
 3973W        W23507   4.262  12.531   4.504 -0.1790  0.1026  0.0293
 3974W        W23508   6.495  11.829   0.363  0.0666 -0.1881  0.1349
 3975W        W23509   9.103  14.334   3.817 -0.2044  0.0645 -0.1136
 3976W        W23510  14.408   4.959   4.997  0.0278 -0.1268  0.3548
 3977W        W23511  10.157  15.013   2.173  0.0450 -0.2317 -0.1223
 3978W        W23512   6.691   1.832  16.291  0.0407  0.1418 -0.0341
 3979W        W23513   5.748  16.376  12.718 -0.3625 -0.3188  0.3319
 3980W        W23514   8.615  17.205  12.926  0.2381  0.0796 -0.0444
 3981W        W23515   9.805  12.589  13.652 -0.0934  0.1129  0.0114
 3982W        W23516  10.078  11.011   1.447  0.1914 -0.0309 -0.0255
 3983W        W23517  13.064   3.040  12.983 -0.0906 -0.0570  0.0512
 3984W        W23518   2.540  15.597  13.500 -0.3252  0.1042 -0.1566
 3985W        W23519   3.829  16.712   1.532 -0.3564  0.1023  0.1515
 3986W        W23520   8.866  10.413   3.131 -0.0036  0.1475  0.0795
 3987W        W23521   0.431   7.547   3.011 -0.1363 -0.0824 -0.0414
 3988W        W23522  16.883  16.810  15.933  0.0574  0.2627  0.0464
 3989W        W23523   5.592  17.129   0.060 -0.0977  0.0428  0.0028
 3990W        W23524   8.098  10.585   5.393 -0.0712  0.1746 -0.3542
 3991W        W23525   1.035   3.098   1.666 -0.0193  0.2659 -0.0951
 3992W        W23526   9.534  11.847  13.085 -0.0107  0.0133 -0.1611
 3993W        W23527   5.807   2.274   1.188 -0.2216  0.0338 -0.0699
 3994W        W23528   6.358  17.273  16.760 -0.0435 -0.2937 -0.0131
 3995W        W23529   5.163  13.635  16.705 -0.0142  0.2647  0.0199
 3996W        W23530  15.059   1.547  16.970 -0.1386  0.2928  0.0375
 3997W        W23531  15.198   0.306   0.306  0.3370  0.0709  0.0034
 3998W        W23532   6.709  15.386   3.680 -0.0801 -0.2959 -0.3664
 3999W        W23533  16.650   0.680   1.004 -0.0065  0.0940 -0.0987
 4000W        W23534   2.739   1.101   2.459  0.0617  0.0339 -0.4032
 4001W        W23535   2.423   0.402  14.687  0.0269 -0.0811 -0.1263
 4002W        W23536  15.074   3.422   1.868 -0.4712 -0.0023  0.2213
 4003W        W23537  15.011  10.642   4.606  0.0064  0.0024  0.1377
 4004W        W23538  12.623   2.195  13.352 -0.0656  0.0067  0.0925
 4005W        W23539  12.657   6.206  14.015 -0.0885 -0.1276  0.1326
 4006W        W23540  12.453  14.232   3.368 -0.0767  0.0423 -0.0356
 4007W        W23541   1.305  11.928  12.665 -0.0419 -0.0314 -0.1740
 4008W        W23542   6.428  13.393  15.676 -0.2421  0.3385 -0.2160
 4009W        W23543  14.159  12.022  16.575 -0.0657 -0.1575  0.0381
 4010W        W23544  10.459  11.067   4.327  0.0177  0.1115  0.0724
 4011W        W23545   0.292   0.331  15.524  0.0621 -0.0067  0.4442
 4012W        W23546   2.861   1.185  14.348  0.3493 -0.0619  0.2209
 4013W        W23547   7.302   6.412  15.521  0.1445  0.2181  0.1414
 4014W        W23548   7.534  15.332   0.723  0.0605 -0.0185  0.1392
 4015W        W23549  11.714  16.822  16.900  0.0110  0.3810 -0.2706
 4016W        W23550   3.466   5.019  14.264 -0.1090  0.0891 -0.1586
 4017W        W23551   3.141   2.745  12.433 -0.1696 -0.0875  0.2418
 4018W        W23552   2.968   9.919  17.012  0.1801  0.4802 -0.0243
 4019W        W23553  14.990   4.079   1.846  0.0532  0.1857 -0.4691
 4020W        W23554   6.377  17.106  16.268  0.1088  0.1567 -0.2747
 4021W        W23555   9.677   5.129   4.732  0.3679  0.1007 -0.2878
 4022W        W23556  12.363   3.252   3.164 -0.0592 -0.4669  0.0427
 4023W        W23557   6.831  11.912   2.312 -0.1358  0.0443  0.2243
 4024W        W23558   1.477   3.904  15.789 -0.0361  0.3311  0.0795
 4025W        W23559  11.254  15.383  17.030  0.1556 -0.0919  0.0009
 4026W        W23560  14.633   2.029  12.609  0.0480 -0.1369 -0.0123
 4027W        W23561   5.392   0.899   4.296 -0.1653  0.0224  0.2524
 4028W        W23562  16.240   1.608  15.449 -0.0188 -0.0034 -0.2221
 4029W        W23563   1.012   7.225  12.746  0.0970  0.0633 -0.0811
 4030W        W23564  13.391   4.766   1.254  0.1930  0.0473  0.2710
 4031W        W23565  13.192  15.696  12.954 -0.1153 -0.1071 -0.1490
 4032W        W23566   1.402  13.613  12.767 -0.1317 -0.0620  0.1697
 4033W        W23567  16.761  10.462  13.790 -0.2950 -0.0691 -0.0842
 4034W        W23568   1.399   3.330  16.483  0.1449 -0.1230 -0.2445
 4035W        W23569   7.886   0.368   3.487 -0.2700 -0.0056  0.0088
 4036W        W23570   1.276   5.706   0.882  0.0114  0.1837  0.0616
 4037W        W23571   4.524   7.960  14.813  0.1450  0.0094 -0.1626
 4038W        W23572   1.934   7.022   2.213  0.1526 -0.0761  0.3443
 4039W        W23573  16.659   2.574   0.264 -0.2532  0.0914  0.0224
 4040W        W23574   8.385   0.516   4.403 -0.3113 -0.0019 -0.1124
 4041W        W23575  11.940  16.870  13.209 -0.2857  0.2285  0.0249
 4042W        W23576   5.281  14.632   1.922  0.1207 -0.0384  0.2085
 4043W        W23577  17.264  16.402   4.692 -0.0365 -0.1929 -0.2703
 4044W        W23578   9.682   8.707   0.855  0.0051  0.0621  0.1820
 4045W        W23579  16.654  10.744  13.273 -0.2504 -0.3253 -0.1659
 4046W        W23580   8.564  16.874  15.857 -0.0792  0.1165 -0.0747
 4047W        W23581  13.207  17.318  16.605  0.1311 -0.2141 -0.1273
 4048W        W23582  14.632   8.420   0.965 -0.0420 -0.0312  0.0853
 4049W        W23583  10.509   5.914   3.236  0.1463 -0.0739  0.0133
 4050W        W23584  11.592  13.587   1.297  0.0543  0.0805  0.0014
 4051W        W23585   4.020   0.495   2.125  0.2278  0.2003 -0.3958
 4052W        W23586  15.811   5.980   2.791 -0.0696 -0.0636 -0.0372
 4053W        W23587  14.839  10.922   3.250  0.1519  0.0236  0.0198
 4054W        W23588  16.529   5.049   0.495 -0.0753 -0.2659  0.1117
 4055W        W23589  13.056  14.577   0.508  0.1432  0.0108 -0.1610
 4056W        W23590   2.546   0.739  13.897 -0.2440  0.2933 -0.0548
 4057W        W23591   3.672   4.994  13.012  0.2159  0.1416 -0.0343
 4058W        W23592   3.674   8.004  13.019  0.1443 -0.0342  0.1448
 4059W        W23593  13.259   0.689  16.529 -0.4358 -0.0835  0.1613
 4060W        W23594  10.857  15.564   0.525 -0.2377 -0.0604 -0.0152
 4061W        W23595  17.073   2.331  15.610  0.0094 -0.0829 -0.2601
 4062W        W23596   6.542   7.028  15.539 -0.1808  0.0806 -0.1182
 4063W        W23597   2.786   7.053   4.573  0.1570  0.1787  0.0558
 4064W        W23598   9.488   0.022   0.399  0.0123 -0.2738  0.1710
 4065W        W23599  16.219  13.980   0.219 -0.3310 -0.0048 -0.3126
 4066W        W23600   5.773   9.053   4.415  0.0314 -0.2474  0.0413
 4067W        W23601  11.270  16.889  16.202 -0.0827  0.0165 -0.1283
 4068W        W23602   1.120   3.650   5.566  0.1431  0.1149  0.4157
 4069W        W23603  17.150  12.629  16.933 -0.6344  0.0819  0.0114
 4070W        W23604   6.733   3.483   0.620 -0.0470 -0.0291  0.0921
 4071W        W23605   4.516   0.252  13.443  0.1270 -0.0803 -0.0952
 4072W        W23606   9.121   8.255  16.104  0.2003 -0.1594 -0.0027
 4073W        W23607   3.111   6.948   5.069 -0.1029 -0.0142  0.0743
 4074W        W23608  15.974  15.637   3.202 -0.1483  0.0915  0.0479
 4075W        W23609  16.507  15.433  16.717  0.0869  0.0141 -0.0187
 4076W        W23610   9.473   7.546   3.031 -0.3239 -0.0407 -0.0387
 4077W        W23611   7.110   5.235  15.841 -0.1246  0.0787 -0.0974
 4078W        W23612  14.820   5.810  15.452  0.4861  0.1335 -0.1705
 4079W        W23613   1.969  10.827  17.049 -0.2059 -0.1430 -0.0560
 4080W        W23614  11.219   4.455  14.031  0.1433  0.0899 -0.2147
 4081W        W23615   3.450   6.625   4.808 -0.0398 -0.2941 -0.1439
 4082W        W23616  16.732  16.054   0.611  0.0117  0.0090  0.1036
 4083W        W23617  12.635  13.772   6.259  0.0331  0.1269 -0.2073
 4084W        W23618   5.946  16.830  12.839 -0.0827  0.2096 -0.1402
 4085W        W23619  15.071   9.980   4.361 -0.3751 -0.0051 -0.0256
 4086W        W23620   2.572   6.590   3.690  0.1874 -0.0934  0.1329
 4087W        W23621  13.748  15.795   1.894 -0.1576 -0.0723 -0.2392
 4088W        W23622  13.162   2.248  16.221 -0.0353  0.1730 -0.0232
 4089W        W23623  11.233   0.297   4.135  0.2088 -0.1923  0.0576
 4090W        W23624  16.820   6.604   2.173  0.0215  0.0835  0.1033
 4091W        W23625  12.038  15.855  16.119  0.2859 -0.1377  0.0175
 4092W        W23626   7.117  14.160   0.737  0.0082  0.2011  0.0036
 4093W        W23627  10.430   7.836  14.725  0.0937  0.0471 -0.2118
 4094W        W23628  14.454  11.327  14.505  0.1319 -0.0903 -0.1767
 4095W        W23629   3.267   2.263   2.858 -0.0265 -0.0633  0.2403
 4096W        W23630   6.062   1.719  17.251 -0.2884  0.0288 -0.1732
 4097W        W23631  16.802   5.411   3.553  0.1466 -0.0094  0.0927
 4098W        W23632  12.965   2.841   2.368  0.2853  0.1245 -0.1184
 4099W        W23633   9.805  10.749  15.301  0.1038 -0.1031  0.0920
 4100W        W23634  14.647   0.066  13.086  0.0656 -0.1448  0.1437
 4101W        W23635   7.856  11.629  17.212 -0.0672  0.1686  0.1237
 4102W        W23636   1.008   7.850  13.500 -0.0504 -0.1532 -0.0517
 4103W        W23637   1.773  11.808  16.908 -0.0200  0.3803  0.1223
 4104W        W23638  15.722  11.868   3.642  0.0594  0.1637 -0.0422
 4105W        W23639   7.013   4.147   2.901 -0.2866 -0.0178 -0.2949
 4106W        W23640  14.936   0.809   2.844 -0.0951 -0.0691 -0.0295
 4107W        W23641   5.557  10.092  16.159  0.2508  0.0085  0.1096
 4108W        W23642  16.528  15.754  13.170  0.1153  0.3656  0.1514
 4109W        W23643   1.551  14.238  16.574  0.4317  0.1419 -0.0171
 4110W        W23644  13.477  14.694   0.113  0.0028 -0.1367 -0.2783
 4111W        W23645  14.810  15.182  12.887  0.0073  0.1461 -0.0210
 4112W        W23646   9.191  12.084  17.225  0.0101 -0.0108  0.2248
 4113W        W23647  15.411  11.805   0.400  0.0536  0.2116  0.2442
 4114W        W23648   2.103   3.707  14.626  0.2336 -0.0039  0.1274
 4115W        W23649   6.732  12.730   4.885 -0.1817  0.1774  0.0248
 4116W        W23650   9.842   0.935  16.719 -0.2229  0.3605  0.3868
 4117W        W23651   1.827   7.662   1.147  0.1293 -0.0721  0.2709
 4118W        W23652  15.351  15.645  14.085 -0.0353 -0.1948 -0.3017
 4119W        W23653   3.652   2.265  16.297 -0.1461 -0.0245 -0.1038
 4120W        W23654  15.439  11.746   4.134 -0.1050  0.0091 -0.3168
 4121W        W23655  11.645  10.396  13.160 -0.0041 -0.1409 -0.1661
 4122W        W23656  10.741   6.666   1.023 -0.0313  0.0768 -0.1254
 4123W        W23657  11.148   3.559  15.942  0.0696 -0.0972 -0.1523
 4124W        W23658  10.399  15.550  16.936 -0.0419  0.1419  0.1759
 4125W        W23659  10.985  12.520   3.509 -0.0619  0.0562 -0.1382
 4126W        W23660   9.453   6.003  14.504  0.3106 -0.0259 -0.0087
 4127W        W23661  14.877  17.322   4.833  0.2667  0.2540  0.0776
 4128W        W23662   9.937  12.020  11.387 -0.1252 -0.0726 -0.0964
 4129W        W23663   2.802   6.062   2.862  0.3107  0.2080  0.2005
 4130W        W23664  16.284   2.973  13.714 -0.3910 -0.0452 -0.0246
 4131W        W23665   4.390   6.048  13.849 -0.3025 -0.3429 -0.1620
 4132W        W23666  13.644  11.189   0.468 -0.0433  0.1747 -0.0363
 4133W        W23667   7.400   9.520   2.306  0.1924  0.1984 -0.0015
 4134W        W23668   7.459   2.455   4.499  0.0087 -0.0587 -0.2474
 4135W        W23669   9.139  16.815   5.165  0.2496 -0.1128 -0.0149
 4136W        W23670   5.993   6.150   3.124 -0.0185  0.0104 -0.1758
 4137W        W23671  15.094   2.408   4.349 -0.1393  0.0275 -0.1103
 4138W        W23672  14.264   8.007   2.737 -0.0397  0.1934 -0.1480
 4139W        W23673   1.996   1.791   2.694 -0.2435  0.0127 -0.2831
 4140W        W23674   0.589   3.130  13.564 -0.0774  0.1711  0.0381
 4141W        W23675  14.420   4.207  17.011 -0.2282  0.0345  0.1699
 4142W        W23676   4.586   0.939   4.301 -0.2173 -0.0017 -0.1463
 4143W        W23677   6.314  10.695   4.387 -0.0109  0.3507 -0.2024
 4144W        W23678  12.861  15.999   3.072 -0.1412 -0.3019  0.1142
 4145W        W23679   1.804   2.608   0.087 -0.0389  0.3056  0.0879
 4146W        W23680  11.231   3.584   0.979 -0.0390  0.0914 -0.0694
 4147W        W23681   5.887   7.971   3.700  0.1461  0.0861 -0.2605
 4148W        W23682  15.562  12.941  14.207  0.0782 -0.0169 -0.0954
 4149W        W23683  15.220   2.582   2.855  0.1945 -0.0272  0.1350
 4150W        W23684   1.756   6.778   0.160 -0.0974  0.0941 -0.0145
 4151W        W23685   6.099   6.291  13.581 -0.0405 -0.0305 -0.0587
 4152W        W23686  17.233  16.323   2.674  0.0251  0.1764 -0.1315
 4153W        W23687  15.622  12.959  15.170  0.1135 -0.1754 -0.0075
 4154W        W23688   3.840   7.909  14.019 -0.2572 -0.0830 -0.0842
 4155W        W23689   5.675   5.043  12.892 -0.0677  0.2595  0.2168
 4156W        W23690   4.637   0.880  13.428 -0.1270 -0.0779  0.4407
 4157W        W23691   4.518   1.955  12.712  0.1085  0.1855  0.1738
 4158W        W23692   1.372  17.186   3.550 -0.1533 -0.3863 -0.1139
 4159W        W23693   8.921   3.538  15.800  0.1727 -0.0195  0.0409
 4160W        W23694   4.305   4.526   3.056  0.0538  0.2450 -0.1259
 4161W        W23695   6.930   8.451  15.682 -0.0480 -0.0744  0.0576
 4162W        W23696   5.155   4.732  16.456 -0.1365  0.2938  0.0670
 4163W        W23697   1.910   5.002   3.337  0.3179 -0.1690 -0.1441
 4164W        W23698   3.700  13.733   4.137 -0.1833  0.0002 -0.1329
 4165W        W23699  14.398   7.142   2.344  0.3501  0.1218 -0.0331
 4166W        W23700  16.067  17.136   5.105  0.1359  0.2280 -0.0259
 4167W        W23701  14.125  12.535  15.215 -0.0808  0.0378 -0.2595
 4168W        W23702   9.717   2.850   0.411 -0.2242 -0.1436 -0.0687
 4169W        W23703   4.371  16.616  14.523  0.0992  0.0774 -0.1509
 4170W        W23704   2.784  17.242   3.786  0.2678 -0.1453 -0.1953
 4171W        W23705   0.601   2.847  12.639 -0.0531 -0.3569 -0.1582
 4172W        W23706  13.557   2.214  13.535 -0.1299 -0.0582 -0.1345
 4173W        W23707   8.817  16.428   3.283  0.2715 -0.2190 -0.2693
 4174W        W23708  16.750  12.346  16.264  0.2636  0.1578  0.3316
 4175W        W23709   7.326  14.808  12.724 -0.2275 -0.1130 -0.2288
 4176W        W23710   0.503   0.807   3.968 -0.2016 -0.3928 -0.1676
 4177W        W23711  12.281  17.010   0.699  0.0604  0.1477 -0.0405
 4178W        W23712   4.959   2.730  15.138  0.2481 -0.2025  0.1777
 4179W        W23713   8.199  12.373  12.608 -0.0238 -0.3893  0.3783
 4180W        W23714  15.433   6.817  14.825 -0.0443  0.1632  0.0137
 4181W        W23715   3.214   6.787   2.408 -0.1105  0.0328  0.0534
 4182W        W23716  13.642  12.315  13.757 -0.0923 -0.0851 -0.0339
 4183W        W23717   7.772   7.613  12.346  0.0685 -0.1673  0.0895
 4184W        W23718   1.757  12.808   1.545 -0.2312  0.0986 -0.2752
 4185W        W23719  12.529  16.618   0.901  0.2313  0.0523  0.0262
 4186W        W23720  13.779  13.672  17.044  0.0155 -0.0021 -0.1272
 4187W        W23721   3.914   8.577   1.823  0.2304  0.1455  0.0593
 4188W        W23722   2.194  11.674   4.420 -0.4446 -0.1731 -0.1598
 4189W        W23723   7.576   9.739  16.932 -0.1898  0.0689  0.0208
 4190W        W23724   6.155   8.664   1.998 -0.0328 -0.0516  0.0485
 4191W        W23725   6.080   8.470   1.062 -0.0707 -0.2678 -0.0861
 4192W        W23726  17.324  16.222  12.175 -0.1280 -0.0469 -0.0100
 4193W        W23727  16.893   3.019   0.851  0.0069 -0.0279 -0.0826
 4194W        W23728   6.085  15.280   0.948  0.0506  0.0397  0.1794
 4195W        W23729  12.051   8.414  15.999 -0.1392  0.2608  0.2734
 4196W        W23730   9.483   5.130   0.987  0.0731  0.1529  0.1755
 4197W        W23731  15.533   9.664  15.076  0.3479  0.1223  0.2509
 4198W        W23732   0.898   4.803  16.059 -0.1746 -0.3453  0.0360
 4199W        W23733   0.637  10.483   2.128  0.2024  0.2386  0.1109
 4200W        W23734   0.825   3.189   1.174 -0.1368 -0.1235 -0.0228
 4201W        W23735   6.398  12.578  14.730  0.1228 -0.2158  0.0534
 4202W        W23736  15.606   2.169  14.784 -0.0166 -0.0162 -0.4276
 4203W        W23737   1.819   2.704  14.533  0.0474  0.1431  0.1727
 4204W        W23738   3.307   7.209  14.974 -0.0989 -0.0322  0.2567
 4205W        W23739   9.888  15.031  14.305 -0.1949  0.1798  0.1665
 4206W        W23740   7.990  17.429   1.631  0.1068  0.3210 -0.0816
 4207W        W23741  10.164   4.335   3.841 -0.1528  0.0197  0.0610
 4208W        W23742   9.090   4.197   5.184 -0.0024 -0.1522 -0.2150
 4209W        W23743   8.094   2.799  12.565 -0.2498 -0.0580 -0.2262
 4210W        W23744  10.262  11.834  17.312 -0.3025  0.0784  0.4010
 4211W        W23745   2.992   3.862   2.860  0.1056  0.1241 -0.1451
 4212W        W23746  11.172   9.876  15.403  0.2009  0.0590  0.2505
 4213W        W23747  12.310  17.145   1.689 -0.0806 -0.1338  0.0709
 4214W        W23748   6.182   1.462  15.768 -0.0237 -0.2959 -0.1097
 4215W        W23749  12.478  14.590  17.067  0.1919 -0.2763 -0.0368
 4216W        W23750   9.158   4.362   4.498 -0.3424  0.0765  0.0001
 4217W        W23751   3.595   4.423  14.855  0.5301 -0.2505 -0.0271
 4218W        W23752   2.132  10.412   0.077 -0.0501 -0.0919 -0.3797
 4219W        W23753  16.366   4.858   1.025 -0.1147 -0.2184  0.1359
 4220W        W23754  15.253  11.978  14.182  0.3449  0.3189 -0.0971
 4221W        W23755  15.853   5.792   0.319  0.0463 -0.0708  0.0439
 4222W        W23756   2.959   3.500   0.243 -0.0015 -0.1406  0.4637
 4223W        W23757  15.324   7.289   0.723  0.2348  0.0556  0.1302
 4224W        W23758  11.036   6.929   4.148 -0.0010 -0.3835 -0.1527
 4225W        W23759   7.121   5.104  16.311  0.0739 -0.0765 -0.1755
 4226W        W23760   3.919  12.274  13.330 -0.1531 -0.3853 -0.0170
 4227W        W23761  15.222  13.847   5.453  0.1061  0.0414 -0.2514
 4228W        W23762   2.698   8.765   3.962 -0.2840 -0.0183  0.5308
 4229W        W23763   1.981   9.215   3.173  0.0278 -0.3220  0.0673
 4230W        W23764  12.577   1.521  16.394 -0.2230 -0.1048 -0.0538
 4231W        W23765  14.588  16.491  17.199 -0.1279 -0.0445  0.0090
 4232W        W23766   9.462  11.734  16.088  0.0877  0.0034 -0.0272
 4233W        W23767   2.444  10.203   3.888 -0.0725 -0.0923  0.3605
 4234W        W23768  13.606   1.307   0.165 -0.0499 -0.1689 -0.1378
 4235W        W23769  13.714  10.389   0.055  0.0389  0.1390 -0.0126
 4236W        W23770   7.451  12.823  12.608 -0.0569 -0.1020  0.4100
 4237W        W23771   4.499   8.232   2.639 -0.0606 -0.1124 -0.0568
 4238W        W23772  12.941   4.214  15.967 -0.0626  0.0504  0.0849
 4239W        W23773   4.345  10.910  17.219 -0.3277 -0.0665 -0.2166
 4240W        W23774  16.666   4.943   4.156  0.1982 -0.0449  0.0655
 4241W        W23775  10.866  14.155   1.389 -0.2983 -0.1693  0.3237
 4242W        W23776   4.543  16.946  12.307  0.0141  0.1003  0.1263
 4243W        W23777  11.455   8.116  15.867 -0.0865  0.2546  0.2016
 4244W        W23778   4.240  13.453   0.074  0.0199 -0.1632  0.1079
 4245W        W23779   7.216   3.209  12.563  0.3808  0.2231 -0.0604
 4246W        W23780   9.132   9.195   1.139  0.2752 -0.1523  0.1346
 4247W        W23781   5.970   6.693   2.972 -0.0225  0.0493 -0.1841
 4248W        W23782   1.143   9.503  12.914  0.0230 -0.0829  0.1787
 4249W        W23783  13.235  10.549  14.206 -0.0941  0.0319 -0.1419
 4250W        W23784   6.273   6.824  16.014  0.0041 -0.2496  0.1813
 4251W        W23785   8.177   8.385  17.251 -0.2643 -0.0880 -0.0296
 4252W        W23786   7.404   6.053   2.684  0.4256 -0.0865 -0.1902
 4253W        W23787   8.434   6.735  12.859  0.1276 -0.0024  0.3516
 4254W        W23788   6.096   6.152  16.515 -0.1591  0.2512 -0.1468
 4255W        W23789   8.687   4.826  16.811 -0.0435 -0.1322 -0.1770
 4256W        W23790   3.389  11.435  13.031  0.3284 -0.1810  0.2214
 4257W        W23791   3.343  10.603   4.708  0.0127  0.0650 -0.1331
 4258W        W23792   0.184   5.076  16.767  0.2138  0.1816  0.2935
 4259W        W23793   5.885   1.915  16.802  0.3041 -0.1589 -0.1300
 4260W        W23794   8.025  12.145   3.079  0.0474  0.1226 -0.0396
 4261W        W23795   0.833   2.235  11.219 -0.5185  0.0082  0.1684
 4262W        W23796   5.167  15.757  17.102  0.0661  0.2968 -0.1725
 4263W        W23797   1.532   5.068  15.898  0.3119 -0.0380 -0.0298
 4264W        W23798  12.596  12.395   0.735 -0.0278  0.2020  0.0204
 4265W        W23799  13.790  10.540  16.444  0.0790  0.1235  0.2631
 4266W        W23800  12.450   6.308   4.915 -0.4024  0.2386 -0.0028
 4267W        W23801  16.771  12.150   1.018 -0.0188  0.3802  0.2033
 4268W        W23802   6.887  12.458   3.719 -0.3212  0.4026 -0.1789
 4269W        W23803  14.229   0.751  14.393 -0.1171  0.4629  0.2208
 4270W        W23804   2.593   9.413  15.574  0.1772  0.0072  0.0778
 4271W        W23805   8.675  11.385  12.979 -0.2406 -0.2375 -0.0846
 4272W        W23806  10.257   1.865   4.318 -0.0615 -0.2709 -0.0122
 4273W        W23807  13.467   8.201   3.782 -0.2420  0.1883 -0.0293
 4274W        W23808   5.749  14.036   3.920 -0.4332 -0.4184  0.1597
 4275W        W23809  14.956   8.783  13.999  0.1081  0.2683 -0.2086
 4276W        W23810  13.251   7.268  16.959 -0.3074 -0.3536  0.1289
 4277W        W23811   2.362  12.195  13.362  0.2374  0.1987  0.0102
 4278W        W23812   4.470   5.546   2.454 -0.0106 -0.1830 -0.2447
 4279W        W23813   2.250  10.807  13.517 -0.0232  0.0764 -0.2263
 4280W        W23814   1.633   9.795  12.352  0.0384 -0.5131  0.3826
 4281W        W23815  10.379   0.022  15.608  0.2579  0.0497 -0.0228
 4282W        W23816  16.706   3.727   5.852 -0.0461 -0.0577 -0.3920
 4283W        W23817  10.558  10.799   0.056 -0.1748 -0.0269  0.5399
 4284W        W23818   3.377   7.781   0.407  0.0838 -0.0787 -0.2041
 4285W        W23819   9.128   8.049   1.991 -0.1424  0.2557  0.0432
 4286W        W23820  13.987  10.649  17.088 -0.3329 -0.0935 -0.2903
 4287W        W23821  10.288   1.450   3.034 -0.1343 -0.1628  0.0297
 4288W        W23822   7.013  14.848  15.291  0.2563  0.2009 -0.1544
 4289W        W23823   9.890  15.328   1.932 -0.1993 -0.1360  0.2934
 4290W        W23824   9.771  16.552   3.645 -0.1168  0.2045  0.0839
 4291W        W23825   8.159   7.632  16.325  0.2444 -0.2390  0.1216
 4292W        W23826   9.392   5.829   2.050  0.0067  0.0864  0.0036
 4293W        W23827  15.485  10.029   4.049  0.1075  0.0200 -0.0875
 4294W        W23828  12.616  17.131   2.732  0.1655  0.1855 -0.2810
 4295W        W23829   2.833  11.749   1.867 -0.1356  0.1597 -0.0350
 4296W        W23830  13.610  11.512   1.720 -0.1271  0.2984 -0.1273
 4297W        W23831   6.916  13.982   4.627 -0.4974 -0.1518  0.3055
 4298W        W23832  13.065  15.954   3.508 -0.0168  0.4866  0.3517
 4299W        W23833   8.801  13.979  15.938  0.0549 -0.0120  0.2475
 4300W        W23834   3.229  16.356  17.031 -0.1198 -0.1361 -0.1175
 4301W        W23835   5.370  16.533   0.842 -0.0260  0.3145  0.0898
 4302W        W23836   3.632   1.455   2.042 -0.0862  0.0787  0.1498
 4303W        W23837  12.411  10.130  17.024 -0.1541 -0.0575  0.0530
 4304W        W23838   9.094  11.927  13.334 -0.0194 -0.0438 -0.2262
 4305W        W23839  13.544  15.997  14.255  0.1930  0.4556 -0.3635
 4306W        W23840   3.106  16.622   2.523  0.0099 -0.1433 -0.0052
 4307W        W23841   0.531  12.872   4.729  0.1542  0.1023  0.1141
 4308W        W23842  16.269  10.412   3.220 -0.0775 -0.2828 -0.1196
 4309W        W23843  13.711   4.700   2.159  0.2756  0.0573  0.1359
 4310W        W23844   1.617   2.087   0.349 -0.0088  0.1698  0.0908
 4311W        W23845   7.747   5.171  14.512  0.3425 -0.0886 -0.0353
 4312W        W23846   4.629   8.884  15.710 -0.0613  0.1087 -0.0753
 4313W        W23847   9.665   5.573   3.298  0.1999  0.0030  0.0643
 4314W        W23848  17.098   0.720  16.188 -0.3494  0.0846  0.0707
 4315W        W23849   2.109  10.246   3.056  0.0095 -0.3072  0.3041
 4316W        W23850  10.086  12.893   5.614  0.2045  0.0134  0.1613
 4317W        W23851   7.584   2.381  16.482  0.2132 -0.2185 -0.0823
 4318W        W23852  10.134   8.457   3.071 -0.1416  0.1604  0.2257
 4319W        W23853   5.032   8.850  15.417  0.2098 -0.2170 -0.0938
 4320W        W23854   3.962   3.252   1.448  0.1291  0.0710 -0.0882
 4321W        W23855  11.054  15.806  12.705  0.2464  0.0871 -0.2175
 4322W        W23856   8.416   1.764   2.523 -0.1812  0.1222 -0.0831
 4323W        W23857   0.601   4.968  17.169  0.0030  0.0454 -0.0212
 4324W        W23858  17.436  17.005   2.047 -0.1232  0.0843  0.1367
 4325W        W23859   5.775  15.966   1.501 -0.1175  0.4987 -0.0660
 4326W        W23860  15.543   5.688   3.716  0.1815 -0.3489  0.0471
 4327W        W23861   1.843   0.706   1.367 -0.2211 -0.4141  0.0258
 4328W        W23862   4.257  16.985   3.395 -0.4521  0.0195  0.0428
 4329W        W23863   4.615  10.737   1.428 -0.0646  0.0745 -0.4086
 4330W        W23864  11.583  11.571  15.098  0.3314  0.0734  0.2394
 4331W        W23865  14.546  12.883  15.334  0.0413  0.0664  0.2818
 4332W        W23866  10.607  15.996   0.514  0.0135  0.0808 -0.0319
 4333W        W23867  13.289   6.806  13.995  0.2432 -0.0043  0.1425
 4334W        W23868  12.843   2.687  13.860 -0.1258  0.2118  0.4633
 4335W        W23869  11.892  14.276   3.248  0.3033 -0.0479 -0.0919
 4336W        W23870   4.355   5.755  17.058 -0.0143  0.2195  0.1996
 4337W        W23871  16.698   5.018  14.926  0.0792 -0.1842 -0.1113
 4338W        W23872  15.486   4.190   3.504  0.2695  0.0286 -0.0732
 4339W        W23873   4.585  16.781   4.083 -0.0758  0.3439 -0.0043
 4340W        W23874   4.029  10.226  12.363  0.1956  0.1144 -0.1417
 4341W        W23875  12.076   1.487   2.787  0.1013  0.2596  0.0413
 4342W        W23876  12.531  10.470  14.799 -0.1631 -0.1020 -0.0404
 4343W        W23877  11.608   9.843   0.287  0.2315 -0.0530 -0.1782
 4344W        W23878  10.564  14.864   3.018  0.0012  0.0842 -0.0753
 4345W        W23879   3.895   8.746  17.089 -0.2663  0.1972  0.0694
 4346W        W23880  13.001   6.004   0.461  0.0148  0.1337  0.1664
 4347W        W23881  10.027   9.565  13.757 -0.0349 -0.1051 -0.1826
 4348W        W23882   8.128  13.014   2.822  0.1392  0.1531  0.0368
 4349W        W23883   5.841   5.679   2.991 -0.0153  0.1769 -0.3679
 4350W        W23884  15.957   4.623  13.423  0.1210 -0.3205 -0.1529
 4351W        W23885   2.639  16.482   3.332  0.0582  0.3309  0.0270
 4352W        W23886  12.734  11.283  15.785  0.0852  0.2402 -0.0153
 4353W        W23887   8.558  12.223   0.758 -0.0782  0.0576 -0.0940
 4354W        W23888   8.671  12.627   3.450 -0.0937 -0.0253 -0.1709
 4355W        W23889   2.439   5.227   2.036 -0.1809 -0.1026 -0.2084
 4356W        W23890   3.662   5.610   2.737 -0.0871 -0.1765 -0.0767
 4357W        W23891  16.840   6.048  14.025  0.0256  0.4447  0.2956
 4358W        W23892   7.231  14.408   4.477  0.0460 -0.2141  0.4131
 4359W        W23893  11.717   0.962   4.752 -0.1183  0.0284 -0.1296
 4360W        W23894   2.421  16.975   4.394 -0.2134  0.1817 -0.2627
 4361W        W23895   2.452  11.960  15.977 -0.2095 -0.2161  0.1128
 4362W        W23896  14.966  14.087  16.438  0.0227  0.3327 -0.1200
 4363W        W23897   3.132  16.660   0.996  0.0358 -0.0729  0.2023
 4364W        W23898  13.968   8.782   0.417  0.1969 -0.0231 -0.2082
 4365W        W23899   5.590   2.898  14.737 -0.1961  0.0866 -0.1276
 4366W        W23900  10.092   9.994  14.091  0.1729  0.2725  0.0014
 4367W        W23901  13.581   1.648   0.561  0.1557  0.0846  0.0614
 4368W        W23902   9.252  14.093   2.915 -0.1180  0.0787  0.2457
 4369W        W23903  16.764   4.136   3.544 -0.1335  0.0522  0.0038
 4370W        W23904  15.269   8.004  15.685  0.4350 -0.0158 -0.2462
 4371W        W23905   5.504  17.171  14.299  0.1414 -0.2147  0.0903
 4372W        W23906   2.813   6.955  16.495  0.1251 -0.0043  0.1632
 4373W        W23907   0.204   3.179   0.359 -0.0196 -0.0548  0.0302
 4374W        W23908  15.316   4.871  15.733  0.0502 -0.0773  0.0033
 4375W        W23909   2.018   4.222   3.575 -0.2188 -0.1339 -0.1782
 4376W        W23910   3.598  13.615   2.186  0.0715 -0.0186  0.0569
 4377W        W23911  15.764  12.133  14.181 -0.3346  0.2173  0.0461
 4378W        W23912  13.458  10.258  14.597 -0.1769 -0.1745  0.0495
 4379W        W23913   7.957   8.390  16.723  0.1837 -0.0252 -0.1764
 4380W        W23914   6.085  13.212  12.820 -0.1093 -0.2880 -0.1373
 4381W        W23915   3.016   0.280   3.817  0.0684 -0.0022  0.2100
 4382W        W23916   2.784  14.799  16.257  0.1363  0.0347  0.1498
 4383W        W23917  11.788   2.687  17.052 -0.1316  0.0261 -0.0980
 4384W        W23918   0.217   0.163  12.623  0.1438 -0.0528 -0.5222
 4385W        W23919  15.730   7.244  13.917 -0.1400 -0.1563 -0.0083
 4386W        W23920  11.884   5.469  16.739 -0.0854 -0.3031 -0.0560
 4387W        W23921   1.142  14.556   4.216  0.0092  0.1681 -0.1554
 4388W        W23922  12.251  17.168   2.234  0.1785 -0.1527 -0.3160
 4389W        W23923  13.951   7.998  15.447 -0.2856  0.2625 -0.0430
 4390W        W23924   8.441   2.437   1.208 -0.0157  0.2378 -0.4662
 4391W        W23925   8.062  14.239   4.041 -0.1387  0.2191 -0.1623
 4392W        W23926  11.297   2.728   0.038  0.1460  0.0682 -0.1332
 4393W        W23927  13.651   4.494  14.917  0.2382  0.1717  0.1300
 4394W        W23928   4.157   3.857  13.743 -0.1144 -0.0165 -0.2505
 4395W        W23929   7.495   0.514   1.857 -0.0701 -0.0418  0.1822
 4396W        W23930   4.130  12.569  14.702  0.2447 -0.2761 -0.0729
 4397W        W23931   3.716   4.786  12.480 -0.1737  0.0351 -0.0887
 4398W        W23932   5.705   8.160   4.137  0.0271  0.1313  0.2452
 4399W        W23933   4.412   5.512   4.624 -0.1577 -0.1462  0.0294
 4400W        W23934   4.291  10.678   4.077  0.3250 -0.5469  0.0448
 4401W        W23935  13.119  14.403  12.255  0.2065  0.3065  0.0952
 4402W        W23936   4.917   2.180  15.822  0.0932 -0.0939 -0.2558
 4403W        W23937  15.254  12.123   2.282  0.0326  0.1327  0.0737
 4404W        W23938   2.214  12.579   2.383 -0.1466 -0.3142 -0.0546
 4405W        W23939   2.957   5.392   6.211  0.1030 -0.2354 -0.1455
 4406W        W23940  13.244   1.710  13.980 -0.1147  0.1061  0.1266
 4407W        W23941  14.198   2.552   4.244  0.1396  0.0123  0.0198
 4408W        W23942   2.871  10.956   3.595  0.5543  0.0754  0.0307
 4409W        W23943   9.484   7.302  14.566 -0.0493  0.1278 -0.0988
 4410W        W23944   3.387  14.937  15.331  0.1596  0.0741 -0.0463
 4411W        W23945  10.437   3.504   2.392 -0.0390  0.0367  0.2607
 4412W        W23946   3.177   4.377  15.564 -0.0760 -0.2954 -0.2106
 4413W        W23947  17.117   8.677  13.777  0.0545  0.1157 -0.1611
 4414W        W23948  11.783   4.684  14.064  0.2376  0.0019 -0.0504
 4415W        W23949   3.786  10.838  15.602 -0.2436 -0.1623  0.1354
 4416W        W23950   2.432  11.995   0.444 -0.3565 -0.2591  0.1268
 4417W        W23951   3.702  12.714   2.635 -0.1353  0.2685  0.3887
 4418W        W23952  10.611  14.197  16.050  0.2233  0.2112  0.0108
 4419W        W23953   6.030  14.090   2.105 -0.0089  0.1289 -0.2279
 4420W        W23954   6.721   6.131   1.185  0.3099  0.0011 -0.3463
 4421W        W23955  11.650   8.527  15.586 -0.1594  0.1930 -0.4539
 4422W        W23956  17.048   7.981  13.287  0.2152 -0.3112 -0.0876
 4423W        W23957  11.210  11.873   4.089  0.0058  0.1889  0.0199
 4424W        W23958   5.916   2.189   1.964  0.0783 -0.0034  0.0370
 4425W        W23959  15.383  16.320  12.968 -0.3191 -0.3078 -0.3666
 4426W        W23960   3.505   2.701   4.924 -0.1228  0.0764 -0.0578
 4427W        W23961   9.450  16.962   2.738  0.0374 -0.2650 -0.2163
 4428W        W23962   2.227  16.360   4.489  0.0316 -0.1037 -0.2088
 4429W        W23963  15.375   2.701  13.704  0.1532 -0.1608 -0.3340
 4430W        W23964  15.092  10.020  12.536  0.0958 -0.1323  0.0709
 4431W        W23965  10.104  13.827   2.994  0.1910 -0.1832  0.3736
 4432W        W23966  13.178  12.777  15.054  0.0500  0.0336  0.2827
 4433W        W23967   8.964   0.221   3.751  0.0052 -0.0734 -0.1831
 4434W        W23968   7.663  12.151  14.112  0.0260  0.2856 -0.1733
 4435W        W23969  16.166   6.690  13.304 -0.0515 -0.2593 -0.1801
 4436W        W23970   7.841  11.998  16.882 -0.0038 -0.1033 -0.1040
 4437W        W23971   4.172  15.157   4.977  0.1378 -0.2611  0.1231
 4438W        W23972  13.948   9.355   3.159  0.0576  0.1629 -0.1019
 4439W        W23973   5.728  14.622   3.416 -0.1951 -0.2730  0.0742
 4440W        W23974  16.062  14.224   4.473  0.3798  0.1603  0.2144
 4441W        W23975   9.789   8.326   6.385  0.2923  0.1975 -0.0645
 4442W        W23976   9.115   9.856  12.885  0.1970  0.0248  0.2490
 4443W        W23977  14.393   3.548  15.964  0.0664 -0.5680 -0.0144
 4444W        W23978   9.039   4.248  14.532  0.1934  0.0872  0.1776
 4445W        W23979  10.319  10.965  15.486 -0.1411 -0.0246  0.1618
 4446W        W23980  10.854  13.478  15.614 -0.1675 -0.0769 -0.0120
 4447W        W23981  10.908  10.544   2.431  0.2160 -0.1767  0.1780
 4448W        W23982  17.424   6.538  17.031  0.1828  0.0449 -0.1385
 4449W        W23983   4.159   0.493  14.904 -0.0260  0.0888 -0.0566
 4450W        W23984  15.272   6.399  16.062  0.0681 -0.0556  0.1283
 4451W        W23985  14.584   5.087   1.168  0.1003 -0.3577  0.0194
 4452W        W23986  10.336  14.685  15.197 -0.0203  0.0101  0.0272
 4453W        W23987  16.377   3.193  15.444 -0.0990 -0.2615  0.0289
 4454W        W23988   7.940   3.197   1.416  0.1532 -0.0539 -0.0545
 4455W        W23989  11.624  14.875   0.937 -0.1206 -0.2589 -0.0062
 4456W        W23990  14.221  15.265   2.249  0.0601 -0.0917 -0.0521
 4457W        W23991  15.371   5.236   4.993 -0.1825 -0.1450 -0.3272
 4458W        W23992   7.131  16.772   5.100 -0.1924 -0.0444 -0.2158
 4459W        W23993   7.967   3.567   4.940 -0.0638 -0.0425 -0.2978
 4460W        W23994  10.648   9.379   2.199  0.2856  0.0660  0.0505
 4461W        W23995  10.661   0.420   0.750  0.1196  0.1165  0.2220
 4462W        W23996   3.251   1.759  16.644 -0.1298 -0.0640 -0.0794
 4463W        W23997   5.289  11.342  14.388  0.0816  0.0960 -0.1621
 4464W        W23998   2.432   5.601   3.907  0.1665 -0.2775 -0.0362
 4465W        W23999   2.804   8.946  13.079  0.2879 -0.0243 -0.0965
 4466W        W24000   0.420   7.343  14.473  0.0954 -0.0276  0.1430
 4467W        W24001   8.322   9.676  17.109 -0.2466  0.1074  0.0660
 4468W        W24002   4.109  15.609  13.918 -0.0466  0.0490  0.0619
 4469W        W24003  17.390   9.724  15.429 -0.3061  0.1579  0.0038
 4470W        W24004  13.317   1.746   3.871 -0.2498 -0.0743 -0.4916
 4471W        W24005  10.618  12.991  12.780  0.1610  0.0015  0.1444
 4472W        W24006   3.672   0.670  14.035  0.2853 -0.3116 -0.0983
 4473W        W24007   9.498   6.676  13.778  0.2213 -0.1517  0.2575
 4474W        W24008  14.433   1.467   2.652  0.1222 -0.2063 -0.2026
 4475W        W24009   7.349  11.752  13.503  0.1104  0.0028 -0.1135
 4476W        W24010  13.884   2.869   1.250 -0.0019 -0.0703 -0.0876
 4477W        W24011   1.018  10.929   4.894 -0.1342  0.0063 -0.0430
 4478W        W24012   7.579  14.784   4.540  0.2196 -0.0003  0.2151
 4479W        W24013   4.651   4.897   0.372  0.1653  0.1714 -0.2547
 4480W        W24014  16.237  12.937  15.910  0.1035  0.1166  0.2229
 4481W        W24015   5.074   1.544  17.114  0.0032 -0.1946  0.1237
 4482W        W24016  13.884   6.530   1.906 -0.0519 -0.2267 -0.2669
 4483W        W24017  14.560   9.595   0.925 -0.2020 -0.2382 -0.2772
 4484W        W24018   2.572  15.125   0.185 -0.1070 -0.0923 -0.0853
 4485W        W24019   8.745   2.948  17.242  0.1103  0.1664  0.1715
 4486W        W24020   8.243   5.808  14.042  0.1721  0.1772 -0.0150
 4487W        W24021   4.382   2.899   1.600 -0.1238  0.0218  0.1258
 4488W        W24022  11.751  11.425  14.469  0.1045  0.0409 -0.1654
 4489W        W24023   4.045   4.386   3.408  0.4565 -0.2055 -0.0187
 4490W        W24024   6.580   7.308  13.566  0.0536  0.0367 -0.0583
 4491W        W24025   5.319  15.690   3.958 -0.0342  0.1674  0.4042
 4492W        W24026  13.245  13.302   4.451 -0.0279 -0.2769 -0.1773
 4493W        W24027   4.938  10.877  17.217  0.2144 -0.0262 -0.0447
 4494W        W24028  11.045   4.749  16.677 -0.2025  0.3118 -0.1892
 4495W        W24029   6.401  16.216  13.845  0.1448  0.2547 -0.0507
 4496W        W24030   5.219   2.072   0.688  0.1070  0.1474 -0.3090
 4497W        W24031  14.058  13.328  12.615  0.0044  0.2773 -0.2758
 4498W        W24032  11.357  13.264  15.812 -0.1205 -0.1982  0.3080
 4499W        W24033  16.748   2.948  17.251  0.3997 -0.1967 -0.2652
 4500W        W24034   6.303  14.960   1.318  0.1318  0.2768  0.2359
 4501W        W24035   7.458   4.732  15.803 -0.2009 -0.4281  0.0642
 4502W        W24036  10.324  16.801  14.066  0.1157  0.0451  0.0815
 4503W        W24037   2.450   3.104   2.980 -0.0273  0.1687 -0.1620
 4504W        W24038  12.223  11.746  16.686  0.1090 -0.0369  0.0211
 4505W        W24039   8.410   8.965   0.627 -0.0371  0.0102 -0.0489
 4506W        W24040   5.341  11.490   5.192 -0.0246  0.2245  0.1453
 4507W        W24041   4.403   2.444   5.161 -0.0579  0.0721  0.0007
 4508W        W24042   5.448   0.065  16.433 -0.0756  0.1668  0.1770
 4509W        W24043   8.879  14.754   3.939  0.1930  0.2346  0.0423
 4510W        W24044   8.738  12.199   0.143  0.1492  0.1627 -0.2611
 4511W        W24045   5.276  10.064  12.690  0.0157  0.3128  0.0274
 4512W        W24046   4.927  11.876   2.685 -0.0467  0.1120  0.0182
 4513W        W24047  12.012  11.366   2.573 -0.1252  0.3439 -0.2250
 4514W        W24048   8.520   0.579  17.228 -0.4529  0.1079 -0.1631
 4515W        W24049  13.343  16.848   0.484  0.1181 -0.4292  0.0476
 4516W        W24050  15.569   9.102   2.245  0.1452  0.0970  0.3943
 4517W        W24051   4.501   7.852   1.495 -0.2184 -0.1889  0.1590
 4518W        W24052   1.027   2.076  15.410 -0.3609  0.0935  0.2381
 4519W        W24053   2.957   0.973   1.982 -0.2179 -0.0673 -0.0164
 4520W        W24054   8.452   6.688  16.748 -0.0023 -0.2045 -0.2188
 4521W        W24055  12.044  16.706   1.040 -0.0225  0.2330  0.0851
 4522W        W24056   5.603   8.257  16.339 -0.5752  0.2852 -0.0774
 4523W        W24057   3.200   5.757  16.948 -0.1715  0.2606  0.0229
 4524W        W24058  11.114   1.129   2.431 -0.0769 -0.1521  0.1013
 4525W        W24059  15.051  12.838  16.179 -0.1641 -0.1336 -0.0462
 4526W        W24060   9.765   5.560   2.262  0.3147  0.1517  0.2104
 4527W        W24061   4.026   4.905   5.164  0.0972 -0.1231 -0.0620
 4528W        W24062   1.392   3.437  13.664  0.2267 -0.1983  0.4902
 4529W        W24063  16.259  10.383   0.073 -0.0670 -0.1964 -0.0165
 4530W        W24064   1.753  11.726  16.386  0.0117 -0.2120  0.0380
 4531W        W24065   7.749   5.977   1.047  0.0329  0.0339 -0.1521
 4532W        W24066   5.863  12.760   4.633  0.0633 -0.1342 -0.0232
 4533W        W24067   0.458  16.432  12.863 -0.2191  0.1809  0.0772
 4534W        W24068  15.096   4.233  14.402 -0.2582 -0.0838 -0.4858
 4535W        W24069   7.985   5.544   1.830  0.0625 -0.1446  0.0792
 4536W        W24070   0.747  10.471   1.584 -0.0160  0.0832 -0.2790
 4537W        W24071   0.468   4.000   0.812 -0.0341 -0.2228 -0.5269
 4538W        W24072   1.977  12.397  15.367  0.0975  0.1735  0.0246
 4539W        W24073  17.123   4.074  13.522  0.0754  0.0296  0.0544
 4540W        W24074  13.517   3.354  14.102  0.3164  0.0159 -0.0742
 4541W        W24075  11.753   6.927   2.141  0.0398  0.2554 -0.1240
 4542W        W24076  14.047  15.645   0.272 -0.0608 -0.2280 -0.3438
 4543W        W24077   1.516   1.797   4.369 -0.0021 -0.2503 -0.1587
 4544W        W24078   4.185   4.391   0.980  0.0188 -0.0108 -0.1037
 4545W        W24079  14.650   3.473  17.020  0.0101 -0.1517 -0.0076
 4546W        W24080   6.549  11.306   5.134 -0.1348 -0.1489 -0.0386
 4547W        W24081   8.675  15.558  16.873 -0.1134  0.1312  0.0355
 4548W        W24082   2.874   9.572   3.410 -0.1084 -0.1924  0.2524
 4549W        W24083  12.705   6.239  17.202 -0.2169  0.1021  0.1553
 4550W        W24084  11.256  13.506  17.149 -0.0626  0.0323 -0.1958
 4551W        W24085   4.667   9.277  16.654  0.0221  0.2298 -0.3285
 4552W        W24086   0.946   4.057  16.626 -0.0072  0.1632  0.2156
 4553W        W24087   2.401  16.831   1.772 -0.2838  0.0402  0.0889
 4554W        W24088  16.773   8.552   2.014  0.0997 -0.3346 -0.1414
 4555W        W24089   9.046   5.765   2.812 -0.2077  0.1550 -0.0767
 4556W        W24090  14.953  12.466   3.499 -0.2725 -0.0900  0.1770
 4557W        W24091  15.297  10.428  13.799  0.2163  0.1283  0.0152
 4558W        W24092   1.175   7.910  17.219  0.1071 -0.0860  0.0930
 4559W        W24093  15.835   8.988  16.409 -0.2626 -0.2752  0.0375
 4560W        W24094  14.567   5.331  12.614  0.2631  0.2406  0.3547
 4561W        W24095  12.592   7.842   4.340  0.1744  0.0627 -0.1065
 4562W        W24096   7.770  12.071   2.078 -0.3892 -0.0509  0.0035
 4563W        W24097   0.188   8.072   3.944  0.1245  0.1119 -0.0793
 4564W        W24098   2.326  12.403   3.411  0.0575 -0.1114  0.1805
 4565W        W24099   2.949  11.071   1.824  0.0171  0.1620 -0.1239
 4566W        W24100   3.137  15.625   1.458 -0.2669  0.3085  0.0950
 4567W        W24101  17.396  15.734  12.739  0.0126  0.0981 -0.1859
 4568W        W24102   2.368   0.706  15.104  0.3235  0.3686 -0.1235
 4569W        W24103   7.886   9.291  17.243  0.0711 -0.0267 -0.0848
 4570W        W24104   8.555  12.884   2.132  0.4673 -0.4552 -0.1234
 4571W        W24105  13.686  17.452   2.094  0.3976 -0.3119  0.3049
 4572W        W24106  17.190   1.816  15.431 -0.2188 -0.0277 -0.2655
 4573W        W24107   9.717   5.627  12.733  0.2092  0.2312  0.1402
 4574W        W24108   2.055   4.763  16.083  0.0601  0.0150  0.0349
 4575W        W24109   6.729  11.673   2.739 -0.3054 -0.1005 -0.1153
 4576W        W24110  17.333  13.699   4.696  0.2397  0.0892  0.1634
 4577W        W24111   7.461   5.453   4.687  0.0188 -0.1312  0.2377
 4578W        W24112  15.288   1.309  12.349  0.0324 -0.1285  0.2105
 4579W        W24113   7.514  10.048   0.232  0.2303 -0.0446 -0.4037
 4580W        W24114   9.586   0.291  12.559  0.0799  0.0538 -0.3759
 4581W        W24115   1.180   0.704  15.646  0.4482  0.2465  0.1685
 4582W        W24116   7.613   6.091   5.432 -0.0642 -0.0286 -0.0484
 4583W        W24117   8.838  16.692  16.260  0.2918  0.1461  0.0286
 4584W        W24118   3.966   0.926   3.731  0.0164 -0.1426  0.1507
 4585W        W24119   5.529   7.977  12.588 -0.0719  0.1321 -0.2540
 4586W        W24120   3.509  14.457  13.497 -0.0093  0.2710  0.2243
 4587W        W24121   3.137   9.457  15.275 -0.1892 -0.2214 -0.0580
 4588W        W24122   1.352  15.468   3.499  0.0414  0.0481  0.0335
 4589W        W24123   2.293   8.963  14.967 -0.0732  0.0077  0.0187
 4590W        W24124  16.779  10.917   2.667 -0.0382 -0.1912  0.1050
 4591W        W24125  11.328  10.416   3.495  0.2209  0.0526  0.1734
 4592W        W24126  15.848   9.601   3.092  0.5328  0.0946 -0.2099
 4593W        W24127  12.933   3.397  16.567 -0.0004 -0.0766  0.0530
 4594W        W24128  16.431   4.550   3.444 -0.1615 -0.0419  0.1647
 4595W        W24129   0.679   4.974  15.567 -0.2050  0.1207  0.1113
 4596W        W24130  11.774  11.847  14.746  0.2290  0.1393  0.1605
 4597W        W24131   4.527   6.630  14.525  0.1580  0.5361 -0.3793
 4598W        W24132   4.938   0.789   1.737 -0.0029  0.0251  0.3532
 4599W        W24133   0.866   3.819   4.219  0.2112 -0.2124 -0.0941
 4600W        W24134  15.877   4.515   2.090  0.0234 -0.0616  0.2788
 4601W        W24135   9.367  14.768   0.886 -0.0793  0.1189  0.3313
 4602W        W24136   6.342   9.686   5.150  0.2465  0.1240  0.0042
 4603W        W24137  14.308  10.792  13.535  0.0764 -0.1131 -0.0695
 4604W        W24138   7.795  14.377   1.469 -0.0724 -0.0430  0.2467
 4605W        W24139  12.480  13.892   0.427 -0.2873  0.1184  0.2104
 4606W        W24140   5.228   3.765  14.981 -0.0314  0.4088 -0.1838
 4607W        W24141  10.478   7.339  15.387  0.0439  0.0765  0.0174
 4608W        W24142  14.858   8.007  14.043 -0.0313 -0.0008 -0.1607
 4609W        W24143   3.819   3.192  14.709  0.0768 -0.0113  0.0793
 4610W        W24144  11.632   3.404   1.719 -0.2089  0.0212  0.0069
 4611W        W24145  14.428  15.345  13.559 -0.0488  0.0632 -0.0503
 4612W        W24146   7.478  15.432  16.941  0.2010  0.2669 -0.1946
 4613W        W24147   6.348   4.379   1.588 -0.2751 -0.0467 -0.0003
 4614W        W24148  11.562  16.173   1.641  0.0428 -0.1537 -0.1823
 4615W        W24149  11.731   9.334   1.143  0.1543  0.0243  0.0266
 4616W        W24150   4.119   1.036  12.957  0.0092 -0.1392  0.4298
 4617W        W24151   7.706   3.071  13.873 -0.2080 -0.2924 -0.0784
 4618W        W24152   4.456   1.706   3.825 -0.0839  0.0698  0.1838
 4619W        W24153  14.142  17.026  15.189  0.1843  0.0255  0.4329
 4620W        W24154   8.808   8.178  14.048 -0.0470 -0.0973 -0.1364
 4621W        W24155   2.275   7.239   2.549  0.1386 -0.2380 -0.2236
 4622W        W24156   3.877   2.235   4.089  0.2550 -0.0290  0.3235
 4623W        W24157   1.083   0.886   2.719 -0.0531  0.1269 -0.3687
 4624W        W24158  14.140  16.920   0.907  0.2644 -0.2289 -0.0600
 4625W        W24159   5.452   9.810  16.999 -0.2977 -0.2796 -0.0015
 4626W        W24160   8.861  10.447   4.876  0.1619  0.1361 -0.3040
 4627W        W24161  16.100   1.417   3.038 -0.3007 -0.0923 -0.0005
 4628W        W24162  16.628   0.091  16.035 -0.0148  0.2063  0.2077
 4629W        W24163  12.712   3.239  14.876 -0.0855 -0.0950 -0.0899
 4630W        W24164   3.886   3.620   3.926  0.0087  0.0553 -0.0790
 4631W        W24165   1.798   3.995   4.121  0.0583 -0.1607  0.1083
 4632W        W24166  10.898   7.655  12.421 -0.0012  0.3470 -0.0802
 4633W        W24167  16.962   2.795   3.278 -0.1500 -0.1108 -0.2298
 4634W        W24168  11.813  16.781  12.754 -0.0160  0.1167  0.0638
 4635W        W24169  15.828   7.392  15.869 -0.0576 -0.2998  0.0633
 4636W        W24170   7.262   4.987   4.773  0.0878  0.0428 -0.1165
 4637W        W24171   5.726   4.368  13.430 -0.5145  0.0384 -0.0079
 4638W        W24172  16.102   1.561   4.797  0.0727 -0.0912 -0.0757
 4639W        W24173  16.106  10.506  15.464  0.1880 -0.4001  0.0288
 4640W        W24174   4.988  10.265  15.749 -0.3133 -0.0213 -0.0990
 4641W        W24175  16.505  11.697  15.541 -0.3596  0.0149  0.0213
 4642W        W24176   9.319  10.488  15.371  0.2333 -0.3532  0.1531
 4643W        W24177  10.686   1.372   2.694  0.3294 -0.0455  0.0849
 4644W        W24178  11.331  10.282   5.373  0.3798 -0.2209 -0.0397
 4645W        W24179  16.184  17.167  14.551 -0.0494 -0.1176  0.0384
 4646W        W24180   6.200   7.131   4.740  0.0341 -0.0249 -0.3130
 4647W        W24181   5.639  14.111   0.534 -0.2602 -0.1428  0.1206
 4648W        W24182   6.267   5.731   0.330  0.3838 -0.2710  0.2144
 4649W        W24183  13.168   0.762   3.054  0.3591 -0.1775 -0.2670
 4650W        W24184   1.536   3.647  13.247  0.1617 -0.0001  0.1830
 4651W        W24185   3.279  14.155   4.390 -0.3285  0.2665 -0.5011
 4652W        W24186   0.007  13.133   0.278  0.0727  0.1947  0.1797
 4653W        W24187  13.227  14.059  16.484  0.0366 -0.0459  0.0028
 4654W        W24188   3.332  10.531  13.390 -0.3849 -0.1250  0.0296
 4655W        W24189  10.865   8.904   4.288 -0.2638 -0.1120  0.1486
 4656W        W24190  17.264   2.192  16.678  0.1547 -0.2699  0.1137
 4657W        W24191   9.530  15.176   2.885  0.1440  0.2380 -0.1345
 4658W        W24192  15.457   8.136   5.322  0.0208 -0.2497 -0.1159
 4659W        W24193   7.200  13.866  15.225 -0.0421  0.0943  0.0173
 4660W        W24194   0.765  10.006  15.443  0.0612 -0.0444 -0.1318
 4661W        W24195   3.410  14.712  12.113 -0.2566 -0.0992 -0.0865
 4662W        W24196  10.780   7.320  16.411 -0.1457  0.0730  0.0105
 4663W        W24197   0.337   2.268   2.895 -0.2827 -0.0224 -0.0362
 4664W        W24198  12.088   1.086   2.416 -0.0645  0.2267 -0.0836
 4665W        W24199   0.883   2.545   3.988  0.1209  0.0975  0.2211
 4666W        W24200  16.207   0.189   4.667  0.0264 -0.0474  0.0272
 4667W        W24201   5.835   4.784   0.183 -0.0480  0.0178 -0.1773
 4668W        W24202   8.571   7.668  15.850  0.3478  0.2241  0.0534
 4669W        W24203  15.539  14.734  15.076  0.0212  0.4819  0.0612
 4670W        W24204  13.402  16.115  12.793  0.0630  0.3309 -0.0350
 4671W        W24205   8.040   7.577   0.839 -0.1954 -0.2131 -0.0799
 4672W        W24206  14.341  14.983  14.501 -0.0250  0.0673 -0.2053
 4673W        W24207   8.588  14.955  13.062 -0.2444  0.0232 -0.1737
 4674W        W24208   8.730  10.830   3.978 -0.4181  0.1273  0.2623
 4675W        W24209   7.977   6.547   3.250 -0.6092 -0.1683  0.1188
 4676W        W24210   4.035  13.102  13.497 -0.3467  0.0768 -0.1366
 4677W        W24211   4.086   7.443   3.852 -0.0073  0.0681  0.3151
 4678W        W24212   1.115  16.326  11.700 -0.1317 -0.1347  0.0304
 4679W        W24213  14.711  10.679   0.169 -0.0094  0.2247  0.1755
 4680W        W24214   0.792   1.865  15.875 -0.0335 -0.3291 -0.1777
 4681W        W24215  11.691  11.892   4.002  0.4174 -0.0712 -0.0360
 4682W        W24216  10.817   9.951  14.986  0.3167  0.0180 -0.3338
 4683W        W24217   8.252   4.108   3.235 -0.1593 -0.0700 -0.0476
 4684W        W24218   7.978  14.376  13.149 -0.0520  0.0515 -0.0177
 4685W        W24219  15.165  12.825  15.019  0.1920  0.2113 -0.0935
 4686W        W24220   9.439  11.675  13.864 -0.2110 -0.2662  0.4647
 4687W        W24221   4.273   1.072  15.925 -0.3235 -0.0454  0.0742
 4688W        W24222   2.343  11.139  13.122  0.0493  0.3600 -0.0937
 4689W        W24223  10.907  10.201   3.013  0.0615 -0.0966 -0.0423
 4690W        W24224  16.778  15.248   3.916  0.1623 -0.0117  0.3411
 4691W        W24225   0.748   8.972  14.478 -0.0838 -0.2991 -0.1975
 4692W        W24226   7.042  10.491  15.021 -0.1199 -0.2289 -0.0604
 4693W        W24227  14.389   2.883  14.439  0.2300  0.0267  0.1021
 4694W        W24228   5.944  15.893  13.000 -0.3116  0.3196 -0.0615
 4695W        W24229  14.954   4.713   1.322 -0.1653 -0.0086  0.0399
 4696W        W24230   0.777   2.959   3.727  0.0973 -0.0500 -0.0863
 4697W        W24231   1.167  17.024   2.353  0.3268  0.1342  0.2686
 4698W        W24232  16.521  16.419   3.070  0.3409  0.0467  0.1457
 4699W        W24233   0.586   8.496   1.516  0.0513 -0.1357  0.1902
 4700W        W24234  11.483   4.619   5.129 -0.0442 -0.0860 -0.2571
 4701W        W24235   3.781   1.013  15.692  0.1871  0.1104  0.0521
 4702W        W24236   6.497  17.050  17.277  0.5304  0.1893 -0.0667
 4703W        W24237   8.560  13.937   5.092  0.1122  0.3233  0.2074
 4704W        W24238   2.268   4.767  13.886 -0.0326 -0.2973  0.4276
 4705W        W24239  14.650  12.402   4.258  0.0151 -0.0269  0.2344
 4706W        W24240  13.224   7.961   4.293  0.1384  0.0546  0.0661
 4707W        W24241   4.904  16.066  14.838  0.1067  0.0957  0.0758
 4708W        W24242   0.533   5.880  13.402 -0.2311 -0.1927  0.0875
 4709W        W24243  13.231   4.962   0.804  0.3987 -0.1083  0.0240
 4710W        W24244  12.068   4.337  13.201 -0.2094 -0.0978 -0.2053
 4711W        W24245  15.410  11.320  12.390  0.1966  0.1188 -0.1655
 4712W        W24246   9.713   8.310   4.857 -0.2750  0.0875 -0.1353
 4713W        W24247  14.709   3.017  14.086 -0.0006 -0.0679 -0.3827
 4714W        W24248   1.771  10.022  13.440  0.1866  0.1461  0.0038
 4715W        W24249   3.298   6.473  16.892  0.0913  0.1023  0.2863
 4716W        W24250   8.015   8.920  12.303 -0.2030 -0.2529 -0.2114
 4717W        W24251   4.855  15.006   4.505 -0.3663 -0.3264  0.3126
 4718W        W24252  17.109   9.866  12.944 -0.1709  0.0450 -0.2223
 4719W        W24253   4.636  10.995  16.816  0.2336 -0.1303  0.2683
 4720W        W24254  11.053  15.296   3.444  0.2013 -0.1811 -0.0609
 4721W        W24255  16.073   7.712   0.113 -0.0747 -0.0773 -0.0744
 4722W        W24256  10.183   5.842  16.021  0.1334  0.1487 -0.1565
 4723W        W24257  10.148  16.140   0.250 -0.0493  0.0367  0.2450
 4724W        W24258   8.480  11.373   4.672 -0.2339  0.1602  0.2052
 4725W        W24259  13.991  15.687   2.413  0.1783 -0.1523 -0.3323
 4726W        W24260  14.692   7.017   1.890 -0.5432 -0.0396  0.1199
 4727W        W24261   5.375   9.897  13.496  0.0215 -0.2133 -0.1494
 4728W        W24262   9.174   1.821  13.339 -0.1361  0.4051 -0.0075
 4729W        W24263  12.059  13.618  14.990  0.0574 -0.1826 -0.0023
 4730W        W24264   8.155  12.012  16.493  0.1672  0.1515 -0.2104
 4731W        W24265  16.928   1.213   0.521 -0.0176  0.0646  0.1227
 4732W        W24266   1.480   5.716   4.761 -0.0737  0.0888 -0.0210
 4733W        W24267  14.769   8.048  14.536 -0.0216  0.1765  0.2640
 4734W        W24268   7.145   0.901  13.066 -0.0522  0.2342  0.0292
 4735W        W24269   8.181  10.011  15.996  0.1943 -0.0358 -0.0313
 4736W        W24270   0.658   5.065   3.968  0.0389  0.0190 -0.0114
 4737W        W24271   0.681  15.393   4.193  0.0321 -0.1386 -0.2921
 4738W        W24272   7.680   4.219   0.722  0.3753 -0.0618  0.4352
 4739W        W24273   2.665  11.640  15.535  0.0030 -0.0959  0.0441
 4740W        W24274  17.432   7.391  16.724  0.0298  0.3334 -0.3019
 4741W        W24275   2.781  13.718   4.265 -0.3433  0.2922  0.1602
 4742W        W24276  16.805  10.208   1.823  0.1532 -0.1363 -0.1456
 4743W        W24277  13.031   7.351  13.985  0.2478 -0.1954 -0.0233
 4744W        W24278   6.491   8.722  14.272 -0.0644 -0.2772 -0.1058
 4745W        W24279   5.036  10.375   0.734  0.2210  0.0363  0.0771
 4746W        W24280  14.122   6.988   4.111 -0.1022  0.2938  0.3630
 4747W        W24281  16.620   8.810   4.275  0.1634  0.1343  0.1025
 4748W        W24282   5.868   8.962   0.013 -0.0500  0.1409 -0.0120
 4749W        W24283   9.272   1.583   0.922  0.0417  0.1753 -0.2235
 4750W        W24284  13.843   1.701  14.775  0.2258  0.1450  0.1280
 4751W        W24285  10.166   2.007   2.229  0.1819 -0.0525 -0.0486
 4752W        W24286  10.915  16.969  16.605 -0.1501 -0.0126  0.2849
 4753W        W24287  12.597  11.669   4.772  0.1859 -0.2823  0.2081
 4754W        W24288  16.575   2.622  14.182 -0.1132  0.0284 -0.4018
 4755W        W24289  10.124  13.884   4.927  0.0963  0.2826 -0.1434
 4756W        W24290  12.419   9.879  13.575 -0.1190  0.1615  0.0807
 4757W        W24291   6.546   9.903  12.846 -0.2054 -0.0550 -0.0456
 4758W        W24292  12.614   6.469  15.412  0.2258  0.0513  0.1684
 4759W        W24293  10.732   1.640  12.160  0.1040  0.0504 -0.0266
 4760W        W24294   2.056  14.372  12.195  0.1176 -0.2658 -0.2763
 4761W        W24295   5.157  14.339   3.720  0.1645  0.2367 -0.1833
 4762W        W24296   6.700  15.914   0.350  0.1261  0.1379 -0.0661
 4763W        W24297   8.124   2.511   0.789  0.1950  0.1975  0.0496
 4764W        W24298  10.097  11.711   4.855  0.0526  0.2662 -0.1500
 4765W        W24299  15.446  14.485  12.944 -0.0216 -0.0287  0.0393
 4766W        W24300   1.710   9.263   3.725 -0.1495  0.0300  0.1864
 4767W        W24301  13.534   9.268   1.924  0.0223 -0.1711 -0.0579
 4768W        W24302   5.736   7.005  16.150  0.1883  0.3050  0.0182
 4769W        W24303  11.282  15.724   1.592  0.1095 -0.0901 -0.1580
 4770W        W24304   2.309   7.552  13.695 -0.2443  0.3277  0.0016
 4771W        W24305   1.089   4.921  14.979 -0.0952  0.2199  0.0163
 4772W        W24306  16.881  15.088  16.956 -0.1133 -0.3013  0.0313
 4773W        W24307   8.975   4.371   0.977 -0.1338 -0.0104 -0.1481
 4774W        W24308   9.830   8.726  16.468 -0.3951 -0.2776 -0.0621
 4775W        W24309  14.108   7.672   0.067  0.0780 -0.0187  0.3107
 4776W        W24310   8.445   3.659  16.124 -0.2218 -0.1251 -0.1265
 4777W        W24311   0.955   1.364  15.818 -0.0944  0.1707 -0.0883
 4778W        W24312   0.606  11.055   4.018  0.3368 -0.2980  0.0325
 4779W        W24313   0.744   7.620  16.792 -0.1878  0.0213 -0.1304
 4780W        W24314  12.368  14.710  13.486 -0.2380 -0.0571 -0.1089
 4781W        W24315   7.946  15.427   3.474 -0.1124 -0.6084  0.0422
 4782W        W24316   7.031  10.785  12.092 -0.0176 -0.2612  0.0848
 4783W        W24317  10.039   1.477   4.575 -0.2594  0.0102 -0.2533
 4784W        W24318   2.678  16.596   4.629 -0.1867 -0.0959  0.0860
 4785W        W24319   0.848   2.885  16.259 -0.0878  0.0315  0.2129
 4786W        W24320   9.933  10.959   4.301  0.1604 -0.0293 -0.1996
 4787W        W24321  11.597   1.856  14.886  0.2291  0.1068  0.2519
 4788W        W24322  16.867   8.044   0.590  0.3006  0.1161  0.1098
 4789W        W24323   2.421   3.732   0.312 -0.0186 -0.0923 -0.0105
 4790W        W24324  12.486  15.018  12.545  0.0365  0.1371 -0.4195
 4791W        W24325  16.420   3.326   3.841 -0.0378 -0.4097 -0.0099
 4792W        W24326   7.943  13.364   4.750  0.1647 -0.1157  0.0526
 4793W        W24327   9.052  12.603  13.005  0.3754  0.0181  0.3220
 4794W        W24328  13.397   3.311   0.037 -0.1251 -0.2070 -0.0355
 4795W        W24329  13.726   2.151  14.471  0.1606  0.0517  0.0091
 4796W        W24330  13.768   2.653  16.788  0.0382  0.4009 -0.1338
 4797W        W24331   0.099   3.573  13.752  0.3454 -0.3333 -0.0852
 4798W        W24332   3.360  12.910  14.984 -0.3417  0.3584 -0.0353
 4799W        W24333   7.071   4.194  16.498  0.0753 -0.2810 -0.0204
 4800W        W24334   5.855  12.676  16.201 -0.1021 -0.0007  0.1544
 4801W        W24335   3.932   2.869   1.796  0.0716  0.2445 -0.0595
 4802W        W24336  12.265   1.907   4.410 -0.0243  0.0862 -0.1625
 4803W        W24337   5.563   7.512  16.337 -0.0423  0.1801  0.1133
 4804W        W24338  10.118  12.993   2.401 -0.3081  0.1299  0.1763
 4805W        W24339   4.311  14.822  15.849 -0.2275  0.0017 -0.0565
 4806W        W24340   4.883  11.173  13.322 -0.0985  0.2255  0.4630
 4807W        W24341   8.890   5.007  14.185 -0.2005 -0.0433 -0.2692
 4808W        W24342   7.088   1.685  16.007 -0.1125 -0.0033 -0.1551
 4809W        W24343   7.683   7.918   3.749  0.1649  0.1234 -0.0869
 4810W        W24344  15.976  10.150   1.892 -0.2098  0.0448  0.2870
 4811W        W24345  16.961   8.900  17.064  0.3424  0.0098 -0.2760
 4812W        W24346  17.111  15.086  13.719  0.0469  0.0805 -0.2097
 4813W        W24347   6.569   5.368   5.313 -0.3059  0.0051 -0.0894
 4814W        W24348   8.308   2.656   2.153  0.0518 -0.1188 -0.0655
 4815W        W24349  14.156  11.156   4.696 -0.0874  0.1668 -0.0599
 4816W        W24350   7.819  14.926   0.922  0.2040 -0.1837 -0.0412
 4817W        W24351  11.841   0.660   1.368  0.0480  0.0105  0.2064
 4818W        W24352  13.548  10.212   4.516 -0.4149  0.1270  0.2754
 4819W        W24353   5.626   7.568  13.956 -0.1006 -0.2766  0.1556
 4820W        W24354   7.624   6.530   2.735 -0.1206 -0.0897  0.0948
 4821W        W24355   9.657  15.674   4.792  0.1478  0.0048 -0.0493
 4822W        W24356   4.824   0.249   1.724 -0.0616 -0.0956 -0.0258
 4823W        W24357  13.783   3.823  16.395  0.2731  0.1506  0.3162
 4824W        W24358   6.004   1.531   3.167 -0.3117 -0.1750 -0.1218
 4825W        W24359  10.893   0.086   2.820  0.0419  0.2322  0.0809
 4826W        W24360   6.941  15.717  17.149  0.1720  0.0697 -0.4872
 4827W        W24361  15.976  14.688   4.114  0.1377  0.3236  0.1580
 4828W        W24362   4.875  13.963   1.750  0.2748 -0.0535  0.3354
 4829W        W24363  16.002  13.405   3.937  0.0418  0.2853 -0.1195
 4830W        W24364   9.992   5.927   3.254 -0.2316  0.0782  0.0607
 4831W        W24365  14.801  10.213  13.668  0.1825 -0.4072  0.1211
 4832W        W24366  17.326   6.727   2.229 -0.1226 -0.1529  0.3967
 4833W        W24367   1.599  10.113  16.389 -0.1224  0.1523 -0.0537
 4834W        W24368   3.480   8.960  15.579 -0.0710  0.0971 -0.0361
 4835W        W24369  15.583  15.158   3.014 -0.3357 -0.2448  0.1137
 4836W        W24370   9.579  10.717  12.460 -0.0643  0.4134  0.0067
 4837W        W24371   3.594   4.295  13.816  0.1014  0.0168 -0.4911
 4838W        W24372   9.452  17.366   0.970  0.0984 -0.0416 -0.1165
 4839W        W24373   5.137  12.163  12.475 -0.1582 -0.1559  0.0124
 4840W        W24374  10.813  11.064   0.378  0.0656 -0.1000 -0.0018
 4841W        W24375  13.744   2.196  12.168  0.0553  0.0237  0.3752
 4842W        W24376   8.959   2.463   4.742 -0.0680  0.3456 -0.1508
 4843W        W24377   7.602   3.453   3.153 -0.1289 -0.0742  0.0557
 4844W        W24378   3.826   6.943   2.174 -0.1436  0.1606 -0.2530
 4845W        W24379  11.447   8.852   4.421  0.3667  0.1543 -0.0838
 4846W        W24380   2.821   7.837   3.318  0.0162  0.0962 -0.0336
 4847W        W24381   3.383  13.645   4.530 -0.3639 -0.1335  0.1595
 4848W        W24382   1.791   0.284  14.522  0.2598  0.0927  0.0059
 4849W        W24383  16.466  14.159   3.617 -0.1028 -0.0235  0.0730
 4850W        W24384   0.249  16.324  15.306  0.0006 -0.0911 -0.0389
 4851W        W24385  12.651  11.197  14.101  0.0535 -0.0663  0.4419
 4852W        W24386  11.329   5.582  13.228  0.1763 -0.2250  0.1828
 4853W        W24387  13.837   6.447   4.119  0.0447 -0.1258 -0.1833
 4854W        W24388   3.652  11.415  11.986 -0.1859 -0.0046  0.0585
 4855W        W24389   4.326   9.083   0.634 -0.1000  0.2177  0.0360
 4856W        W24390  13.991   9.868   2.466  0.1269 -0.2359  0.3786
 4857W        W24391   9.553   8.090   1.286  0.0423  0.2318  0.1805
 4858W        W24392   9.318  11.102  13.812 -0.0937 -0.1466 -0.1596
 4859W        W24393   0.597   2.189  13.714  0.0914 -0.2015  0.0614
 4860W        W24394   3.583  16.871   1.934  0.0722 -0.0557 -0.2335
 4861W        W24395   3.377   2.822  15.499 -0.1427  0.0900  0.0537
 4862W        W24396   7.287  10.902   0.234  0.2918 -0.0341  0.3201
 4863W        W24397  17.207  10.929   0.515  0.2503 -0.0885 -0.0435
 4864W        W24398  14.317   0.705  15.908  0.1140  0.1493 -0.0358
 4865W        W24399  16.316  14.768  14.788 -0.1586 -0.1137 -0.0968
 4866W        W24400   9.579  11.375   0.332 -0.1794 -0.0064 -0.0681
 4867W        W24401   5.310  16.051   2.515 -0.1136  0.1113  0.0906
 4868W        W24402   0.130   3.721  15.690  0.0641  0.1454  0.0698
 4869W        W24403   9.254   2.704   0.689 -0.2725 -0.0179 -0.0868
 4870W        W24404   0.471   6.413  16.820  0.1753  0.0038  0.1807
 4871W        W24405   2.247  16.924   1.027  0.1090  0.1469 -0.1408
 4872W        W24406  12.357  17.106  14.315  0.0930  0.3973 -0.1056
 4873W        W24407   0.038   8.603  12.915  0.0402 -0.1387 -0.1198
 4874W        W24408   7.764   4.384  13.909 -0.0620 -0.0249  0.1441
 4875W        W24409   0.031  13.111  15.521  0.0824  0.2437  0.3157
 4876W        W24410  15.841  12.964  11.798 -0.1131 -0.0847 -0.1094
 4877W        W24411   2.040  12.079   2.227 -0.3339  0.0016  0.0532
 4878W        W24412   0.892   2.054  16.881 -0.1255  0.1592  0.1192
 4879W        W24413  16.701  15.822   0.162  0.0747  0.2749 -0.1084
 4880W        W24414   6.243   6.609  14.613 -0.0513 -0.3336  0.1948
 4881W        W24415   6.291   6.180   4.243  0.3233 -0.1611  0.0829
 4882W        W24416   2.207  16.569   2.187  0.2776 -0.1779 -0.2887
 4883W        W24417   5.610   4.602  14.668  0.0569  0.0925  0.0501
 4884W        W24418   3.731  17.270  12.563 -0.2161  0.1818  0.0598
 4885W        W24419  11.108  13.656  15.137 -0.2225  0.2814 -0.0625
 4886W        W24420   4.085   1.646   4.180 -0.0576 -0.1359 -0.0496
 4887W        W24421   8.082  15.289   2.182 -0.0635  0.0579  0.0760
 4888W        W24422  14.454  14.328  12.353 -0.1192  0.4615 -0.0273
 4889W        W24423   3.208   6.018  16.413  0.0960  0.0624 -0.1874
 4890W        W24424   2.716   4.315   2.621  0.0054  0.0275 -0.0931
 4891W        W24425  10.545  15.054  16.956  0.2221 -0.0624 -0.1799
 4892W        W24426  10.369   8.158  16.717  0.0511  0.1221  0.0508
 4893W        W24427   0.932   7.234  16.477 -0.2749  0.0387  0.1533
 4894W        W24428  14.792  12.392   3.009  0.2415  0.2547  0.0904
 4895W        W24429  13.953  16.846   1.844  0.4660 -0.2734 -0.1805
 4896W        W24430   3.961   6.201   2.087  0.0915  0.2201 -0.0539
 4897W        W24431   9.836  10.105   3.329 -0.1329 -0.2875 -0.5340
 4898W        W24432   6.845   8.118   4.094  0.0517  0.0222 -0.1494
 4899W        W24433  17.310   2.244   2.937 -0.1367 -0.1806  0.2375
 4900W        W24434   7.887  15.494  15.257 -0.2642 -0.1202 -0.0686
 4901W        W24435  12.549   9.146  12.936 -0.4828  0.0768  0.0203
 4902W        W24436  14.144  13.008  14.240  0.1328  0.1449  0.0496
 4903W        W24437  12.693  14.809   5.212 -0.1232 -0.1508  0.0596
 4904W        W24438   3.201   3.529   2.485 -0.2274  0.2081 -0.1743
 4905W        W24439   4.231   4.295  17.077 -0.0229  0.1408 -0.0913
 4906W        W24440  12.676   5.578   0.563 -0.3769  0.0510  0.1564
 4907W        W24441   3.465  15.705  12.716  0.2068 -0.0433 -0.0686
 4908W        W24442  13.346  13.906  13.385 -0.0189 -0.2044 -0.1326
 4909W        W24443   7.589   5.944   4.960 -0.0243 -0.3015  0.0943
 4910W        W24444  13.693  10.306   2.206  0.3590  0.1018  0.1839
 4911W        W24445   9.812   3.657   4.974 -0.0502 -0.0083  0.1522
 4912W        W24446   3.785   9.287  15.952 -0.0229  0.4200 -0.1208
 4913W        W24447   6.129   9.202   0.397  0.0340 -0.0706  0.0092
 4914W        W24448  10.701   9.971  15.577 -0.4161 -0.0471 -0.1305
 4915W        W24449  17.088   4.141   2.643  0.0028 -0.2197 -0.0044
 4916W        W24450   1.299  13.627   2.464 -0.2319  0.4302 -0.0639
 4917W        W24451   0.242   9.672   2.870  0.2619 -0.0096 -0.0416
 4918W        W24452   0.379   2.758   1.053  0.0365  0.0629 -0.1286
 4919W        W24453  14.319   8.087   3.294 -0.3734  0.0463  0.0628
 4920W        W24454   2.682  13.706   1.924  0.2072 -0.0409  0.0727
 4921W        W24455   0.223   0.581   2.608 -0.1120 -0.2590  0.0306
 4922W        W24456  15.839   7.652  16.615 -0.0422 -0.0832  0.1211
 4923W        W24457  11.511   7.326   2.804  0.0029 -0.3203 -0.5114
 4924W        W24458   9.255   8.457   2.422 -0.0923 -0.3335  0.1122
 4925W        W24459   2.023  16.535   0.466  0.0396  0.1393 -0.0639
 4926W        W24460   3.295   2.357  14.714  0.1490 -0.0416 -0.1829
 4927W        W24461   6.605   8.393  13.809 -0.2748 -0.0097  0.0903
 4928W        W24462   3.299   8.660  15.081  0.2081 -0.0504  0.0702
 4929W        W24463  14.940   4.382  14.977  0.1093  0.1160  0.0013
 4930W        W24464  11.305   2.851   1.868 -0.3637  0.0984  0.0725
 4931W        W24465  11.582   9.393  14.085  0.1747 -0.0321  0.1571
 4932W        W24466   0.439  11.845   4.746 -0.0929  0.2015  0.0141
 4933W        W24467   9.169  15.082   2.173 -0.4610 -0.3084 -0.1316
 4934W        W24468   0.900  16.185  13.605 -0.1193  0.2527 -0.0528
 4935W        W24469   4.309   8.149   5.117  0.2212  0.0571  0.1699
 4936W        W24470   0.003   3.091  13.398  0.0795 -0.1586  0.0419
 4937W        W24471   1.057   6.256   0.795 -0.3798  0.2912 -0.1996
 4938W        W24472  17.140   2.637  17.299 -0.0379  0.0286 -0.1945
 4939W        W24473   8.590  13.177  15.191 -0.3642 -0.1826  0.2624
 4940W        W24474  14.834   5.777   2.578  0.2500 -0.2028  0.1008
 4941W        W24475   9.805  14.296   0.335  0.0345  0.0045  0.0996
 4942W        W24476  14.073   6.947   4.810  0.2133 -0.3516  0.0015
 4943W        W24477   3.807   6.810  16.163 -0.0322  0.0019  0.1614
 4944W        W24478   4.098   8.890  14.822  0.0383  0.1135  0.1243
 4945W        W24479   6.043  10.748  15.000 -0.1768 -0.1376  0.2313
 4946W        W24480  16.798   5.312  17.199  0.0680  0.2207 -0.1450
 4947W        W24481  10.744   6.431   1.538  0.0271  0.1087 -0.0151
 4948W        W24482   4.058  15.182   1.774  0.0179  0.3172 -0.1873
 4949W        W24483   0.275  16.120   2.553  0.1254  0.0905 -0.1218
 4950W        W24484   2.501  10.101  12.284  0.0804  0.1975  0.1508
 4951W        W24485  17.222  10.564   0.856  0.0425 -0.2929 -0.0471
 4952W        W24486   7.424   2.570  15.223  0.0950 -0.0528  0.0357
 4953W        W24487   4.814  17.214   4.159  0.0198  0.2393  0.3604
 4954W        W24488  11.377  16.269  14.371  0.1654  0.2003 -0.1568
 4955W        W24489  17.123  15.150  15.983  0.0727 -0.1380  0.0377
 4956W        W24490   9.713   6.769   5.199  0.1367  0.1376 -0.0589
 4957W        W24491   8.785   5.061   5.562  0.0322 -0.1282 -0.2277
 4958W        W24492  12.356   1.962  13.743  0.0217  0.1004  0.0865
 4959W        W24493   4.447   3.064  12.248  0.0081  0.0853 -0.4787
 4960W        W24494   3.294  10.847   4.258  0.1121 -0.2995  0.0290
 4961W        W24495  16.507   2.920  15.982  0.0315 -0.1188  0.1273
 4962W        W24496   0.201  12.571  16.278  0.1173  0.0517 -0.1169
 4963W        W24497   3.302   4.519  12.450  0.1072  0.1983 -0.1544
 4964W        W24498   5.018  15.347   0.074  0.1639 -0.4181 -0.0099
 4965W        W24499  13.991  14.252  12.303  0.1833  0.1757 -0.1505
 4966W        W24500   9.863   9.921  17.241 -0.2087 -0.1042 -0.1061
 4967W        W24501   4.824   9.998   0.442 -0.0836  0.1859 -0.0906
 4968W        W24502   6.936   1.136  12.610 -0.0951 -0.0800  0.1594
 4969W        W24503  11.466   3.214   4.345  0.1444 -0.2463 -0.1428
 4970W        W24504   1.774   6.417   2.996 -0.1589  0.1397 -0.0364
 4971W        W24505  16.584   7.026   1.979 -0.2974 -0.0963 -0.0596
 4972W        W24506   5.119   3.953  12.777 -0.1437 -0.1550  0.0755
 4973W        W24507   2.668  10.067   4.705 -0.1499  0.5029 -0.1229
 4974W        W24508  10.695   4.563  15.001  0.2895  0.2105  0.1874
 4975W        W24509   4.044   1.137   0.367 -0.3709  0.0040 -0.1639
 4976W        W24510   6.606   3.338  16.014  0.0349  0.0030 -0.1275
 4977W        W24511   6.516   0.493   1.330 -0.1907 -0.0405 -0.1029
 4978W        W24512  11.341  12.864  13.473  0.1951 -0.1542 -0.0611
 4979W        W24513  14.140  12.209   6.042 -0.0125 -0.0009  0.4518
 4980W        W24514   6.553   1.706  15.252  0.2863 -0.1566  0.0508
 4981W        W24515   2.846   8.910   1.613  0.1544 -0.0681  0.0444
 4982W        W24516  13.353  11.463   2.153 -0.2373 -0.1472  0.0148
 4983W        W24517  16.717  11.370   4.176 -0.0384  0.4003  0.0835
 4984W        W24518  10.091   7.092  15.155  0.0633 -0.0385 -0.0981
 4985W        W24519  10.826   5.061   3.747 -0.0314 -0.1839  0.0582
 4986W        W24520   0.863  17.231  13.143 -0.1339 -0.0185 -0.1513
 4987W        W24521  14.467  13.639   2.643 -0.2783  0.1313  0.1631
 4988W        W24522   9.575  11.450   0.831 -0.3061 -0.2596  0.2311
 4989W        W24523  17.197  17.291   3.744 -0.4520  0.2285  0.1049
 4990W        W24524   2.876   8.015  13.508  0.2354 -0.1939 -0.1658
 4991W        W24525   1.193  16.586  13.633 -0.1474 -0.0269  0.1005
 4992W        W24526   7.401   9.040   5.176 -0.0508  0.1459  0.1858
 4993W        W24527   1.240   1.141  16.542  0.0632 -0.1455  0.0963
 4994W        W24528   6.876   6.302  15.837 -0.0269 -0.0393 -0.0359
 4995W        W24529  11.446  10.948   2.608  0.1480  0.2438  0.3103
 4996W        W24530  13.563  12.454  12.735  0.0552  0.1629  0.1740
 4997W        W24531   5.935   4.598   4.330  0.0284  0.0770  0.0424
 4998W        W24532  14.175   6.535  14.649 -0.2124 -0.0542 -0.0740
 4999W        W24533   6.224  17.295   4.847  0.0799 -0.1696  0.4330
 5000W        W24534   4.791   5.963   4.556  0.0495 -0.0440  0.2128
 5001W        W24535   8.206   9.079  12.773  0.3444  0.2607 -0.2020
 5002W        W24536   9.153  10.474   4.060 -0.2167  0.1598  0.1763
 5003W        W24537  16.606  12.529   4.937 -0.3533 -0.0248 -0.0436
 5004W        W24538   3.032   4.589  13.364 -0.3322 -0.1273  0.0198
 5005W        W24539   2.770  17.058   0.862 -0.0032  0.2400  0.0548
 5006W        W24540   8.347   6.632   2.305 -0.0697 -0.0188 -0.1894
 5007W        W24541  14.546   8.754  13.138  0.2618  0.2172  0.0757
 5008W        W24542  13.095   4.365  13.068  0.2595 -0.0375 -0.1737
 5009W        W24543   1.323  13.633  13.288 -0.1263 -0.2521  0.0704
 5010W        W24544  14.440   7.337   0.230  0.0144 -0.1724  0.0084
 5011W        W24545   8.501   2.107  12.574  0.1382 -0.0304 -0.2514
 5012W        W24546   9.715   0.032  15.683  0.1377  0.0318 -0.0925
 5013W        W24547  16.462   6.634  12.215 -0.0403  0.0718 -0.1296
 5014W        W24548   5.416  15.423  12.436  0.1111  0.1062 -0.1848
 5015W        W24549   2.604   3.640  17.170  0.0005 -0.2346 -0.3452
 5016W        W24550  10.080   3.724   0.409 -0.1175  0.1035 -0.2113
 5017W        W24551  13.674   8.010   3.318  0.3691 -0.2693  0.2530
 5018W        W24552  14.907  16.371   4.905 -0.0642 -0.0710  0.0107
 5019W        W24553   7.232  16.340   2.089 -0.3543  0.2595 -0.0313
 5020W        W24554   3.560  16.740  12.505 -0.0338  0.1927 -0.0892
 5021W        W24555   7.101  15.165  17.145 -0.1842 -0.2142  0.2247
 5022W        W24556  10.217   9.647   0.088 -0.2602 -0.0343  0.0076
 5023W        W24557   4.053  14.389  15.686  0.2192  0.1318 -0.2651
 5024W        W24558  11.255  11.002   3.165 -0.1694  0.2745  0.0556
 5025W        W24559   4.907  14.418  13.514  0.0673  0.0599 -0.1170
 5026W        W24560  12.392  15.378   3.610 -0.0683 -0.0861  0.1137
 5027W        W24561   5.965   3.173   1.513 -0.2620  0.1344 -0.0001
 5028W        W24562   7.127   2.218  13.705  0.3388 -0.0616 -0.0601
 5029W        W24563  16.731   8.255   0.175  0.2225 -0.0074  0.2220
 5030W        W24564   2.573   9.358   2.425  0.4601 -0.1887  0.1226
 5031W        W24565   3.138  15.713  12.317  0.2021 -0.1545  0.2935
 5032W        W24566   4.292   9.500  15.242  0.0872  0.3101 -0.1548
 5033W        W24567   8.974  15.639  14.621  0.0601  0.1511 -0.1203
 5034W        W24568  11.429   2.881   3.042 -0.2052 -0.1700  0.0253
 5035W        W24569  15.139   2.266   0.400 -0.0756  0.1918  0.0029
 5036W        W24570  17.298   7.927  16.850  0.1229  0.3744 -0.1569
 5037W        W24571  11.046   5.457   2.386  0.0291  0.2332 -0.1023
 5038W        W24572   8.915  14.612   0.783 -0.0996  0.0815  0.1951
 5039W        W24573  16.316   1.628  15.928 -0.1449 -0.2928 -0.0336
 5040W        W24574   1.171  14.040   1.158  0.1631  0.1441  0.1891
 5041W        W24575   6.425   0.421  12.480  0.1444  0.1091 -0.1752
 5042W        W24576   3.112  13.486   3.658  0.0001 -0.1084  0.0299
 5043W        W24577   7.881   7.843   2.472  0.0649 -0.0541  0.1916
 5044W        W24578  12.447   7.007   5.006  0.3319 -0.0372  0.1121
 5045W        W24579   6.661   3.281  15.510 -0.5112 -0.2870 -0.1822
 5046W        W24580   9.203  12.975   3.766 -0.2814  0.0129 -0.3625
 5047W        W24581   2.258   1.015   4.715  0.0660  0.0528  0.0138
 5048W        W24582   1.131  13.140  14.774  0.1670  0.0323 -0.1278
 5049W        W24583   8.689   5.782  15.311 -0.2924  0.0476  0.1287
 5050W        W24584  14.231   3.241  13.953  0.3697 -0.2617  0.1228
 5051W        W24585   8.061  10.445  14.669  0.4523  0.0151  0.1118
 5052W        W24586   3.070  16.270   2.871 -0.1209 -0.1368 -0.0491
 5053W        W24587  16.325   8.963  15.467 -0.0428 -0.0142 -0.1084
 5054W        W24588  14.253   8.913   4.410  0.1763  0.0648  0.1084
 5055W        W24589   3.983   7.359  13.640 -0.1185 -0.2983 -0.2182
 5056W        W24590   8.420   7.245  13.023 -0.1545 -0.3080  0.0748
 5057W        W24591  11.170   2.461   0.861 -0.2808 -0.0345 -0.1347
 5058W        W24592   1.562  17.347  12.544  0.1326  0.2138 -0.4465
 5059W        W24593   3.462  15.408   3.153 -0.0264  0.2277  0.1306
 5060W        W24594  15.627  13.025   3.873 -0.2350  0.3521  0.0210
 5061W        W24595   5.836  13.224   4.902 -0.0143 -0.2951 -0.1061
 5062W        W24596   1.889  10.805   0.258 -0.0497 -0.2695 -0.0877
 5063W        W24597  11.074  12.322   2.249 -0.1329 -0.0977 -0.0906
 5064W        W24598   4.175  13.710   4.345 -0.0659  0.3164 -0.2604
 5065W        W24599  13.479   0.743   3.908 -0.0608  0.1446 -0.1449
 5066W        W24600  16.758   2.215   2.865 -0.2996 -0.0036  0.2688
 5067W        W24601   2.317  13.742  17.190 -0.0742  0.0597 -0.3445
 5068W        W24602   3.757  10.661   4.980 -0.1003 -0.1877 -0.0958
 5069W        W24603  16.208   2.164  13.741  0.2771  0.0514  0.2944
 5070W        W24604   8.146   0.100  13.766  0.1044  0.2857 -0.2074
 5071W        W24605  12.423  13.481   0.125 -0.2147 -0.2529  0.4398
 5072W        W24606   2.934   5.731   3.816  0.2612 -0.0856 -0.0542
 5073W        W24607   1.699  15.991  17.208 -0.1107 -0.2170  0.3344
 5074W        W24608   7.149  13.873   4.198  0.0271 -0.0073  0.1265
 5075W        W24609   2.538   5.192  14.039  0.1837  0.3495  0.5167
 5076W        W24610   6.092   9.907   2.083  0.1426  0.1167  0.3267
 5077W        W24611  14.748   8.495  16.953 -0.0229  0.0963  0.1535
 5078W        W24612  14.468  16.695  13.411 -0.0309  0.1590 -0.1515
 5079W        W24613  13.730   6.573  14.440 -0.0535 -0.1586  0.1977
 5080W        W24614   2.516  12.692   4.217  0.0948 -0.2325  0.0225
 5081W        W24615  10.623   6.477   4.918 -0.1991 -0.0042 -0.0567
 5082W        W24616  14.886   5.812   0.441 -0.1104 -0.0147 -0.2122
 5083W        W24617   5.576   2.463  13.911 -0.0556  0.0158  0.4984
 5084W        W24618  14.933   6.053   2.031  0.3183  0.5168 -0.0175
 5085W        W24619   7.549   3.727  16.008  0.2568 -0.0435 -0.1594
 5086W        W24620   5.938   3.207  12.159 -0.1005  0.0412  0.0477
 5087W        W24621   1.694  10.052   5.006 -0.2866 -0.0151 -0.0162
 5088W        W24622  13.587   7.717   4.539 -0.2315  0.0755  0.0660
 5089W        W24623  10.156  16.372  15.292  0.1525 -0.1558  0.0622
 5090W        W24624  15.067   7.150  14.542 -0.3084 -0.0256 -0.0959
 5091W        W24625   1.951  17.391  12.876  0.0548  0.2506 -0.0680
 5092W        W24626  10.664  16.861   2.284 -0.3180 -0.2163  0.1172
 5093W        W24627  13.555   1.726  12.254  0.0724  0.0431 -0.4306
 5094W        W24628   7.687  10.444  14.306  0.1677 -0.1088 -0.1631
 5095W        W24629   3.747   5.357   4.953  0.0843 -0.0224 -0.1974
 5096W        W24630   0.888  10.736  13.082  0.0032  0.0389 -0.0058
 5097W        W24631  13.313  16.010   2.114  0.0043  0.1640 -0.0538
 5098W        W24632   9.791   4.860  13.689  0.0638 -0.2372  0.0716
 5099W        W24633  10.155   9.453   2.355  0.1320  0.0004 -0.2391
 5100W        W24634   1.666  11.762   4.278  0.3454 -0.2217 -0.3050
 5101W        W24635  15.104  13.123   1.905  0.2937  0.2187 -0.1098
 5102W        W24636   5.222   4.272  16.125 -0.0161 -0.1905  0.1275
 5103W        W24637   7.763   4.064  15.513 -0.1924  0.3322 -0.0473
 5104W        W24638  10.912  10.887   1.546 -0.0425  0.1046 -0.2854
 5105W        W24639   7.943  14.569  17.227  0.2076  0.2574  0.1105
 5106W        W24640  11.954  15.338   3.317  0.1043  0.3513  0.4304
 5107W        W24641  11.586  16.815  15.809  0.2128  0.1707  0.2068
 5108W        W24642  16.258   7.926  12.861  0.3205 -0.0380 -0.0331
 5109W        W24643  15.642  10.555   6.023 -0.3492 -0.1918  0.0835
 5110W        W24644  11.436   6.162  13.345 -0.1711  0.0324 -0.0868
 5111W        W24645  16.003  12.512  17.221 -0.4877  0.1431 -0.1198
 5112W        W24646   1.663   5.424  12.914  0.3743  0.4781 -0.0721
 5113W        W24647   2.133   6.083   1.531 -0.3131  0.1104  0.0510
 5114W        W24648  14.132  13.258   4.268 -0.0009  0.1692 -0.1235
 5115W        W24649   7.554  13.011   4.934  0.5096 -0.1467 -0.0654
 5116W        W24650   0.365   9.101  17.093 -0.0346 -0.0363 -0.3280
 5117W        W24651  11.864   2.620   4.154 -0.2467  0.1677 -0.0481
 5118W        W24652   6.225  16.607   0.531  0.1289  0.1018 -0.0248
 5119W        W24653   8.630   9.917   1.734 -0.2035  0.1981 -0.0797
 5120W        W24654  13.683  11.221   5.591  0.2663 -0.1903 -0.0989
 5121W        W24655   0.098  11.810   4.349  0.3064 -0.1562  0.1477
 5122W        W24656   2.682  11.951  14.117  0.0535 -0.0138 -0.1647
 5123W        W24657   9.532  13.301  15.030 -0.1595  0.4538 -0.0148
 5124W        W24658  15.774   7.544   3.525  0.1797 -0.0446 -0.0224
 5125W        W24659   7.119   0.493   2.544  0.0362  0.1224 -0.0244
 5126W        W24660   4.371  16.828  13.040  0.0787 -0.0802 -0.3011
 5127W        W24661   9.864  14.956  12.559 -0.1480  0.3102 -0.0342
 5128W        W24662   5.752   7.049  15.665 -0.1351 -0.0230 -0.0928
 5129W        W24663  13.325   8.129   2.177 -0.2486 -0.0957  0.0446
 5130W        W24664   5.517  16.098  16.181  0.0424  0.2820  0.2404
 5131W        W24665   2.480   9.322  13.667 -0.1662 -0.0710  0.0901
 5132W        W24666   8.811   8.714   0.385  0.3325  0.2525 -0.1099
 5133W        W24667   1.562   6.569  17.060 -0.2020 -0.0485 -0.1859
 5134W        W24668   8.146   7.854   1.272 -0.0983  0.0431 -0.2012
 5135W        W24669  12.185   0.626  16.382 -0.1053 -0.1742  0.1103
 5136W        W24670   6.603  13.317  12.620  0.2475  0.1658  0.0458
 5137W        W24671  17.456   5.751   2.330 -0.2110 -0.0580 -0.2003
 5138W        W24672   4.999   3.315  13.938  0.1514  0.0744 -0.0927
 5139W        W24673   7.409  11.261  15.509 -0.2057 -0.1678  0.2893
 5140W        W24674  15.433   2.109   3.024 -0.1616  0.3707 -0.2994
 5141W        W24675  11.714   0.971  16.396 -0.1473  0.1444  0.1175
 5142W        W24676   3.145   4.069  12.703 -0.0338 -0.0626 -0.1305
 5143W        W24677   8.835   2.537  15.329  0.2609  0.0284  0.0788
 5144W        W24678   1.157   8.836  13.699 -0.3555  0.0865 -0.1945
 5145W        W24679  15.184   6.696  13.471 -0.0427 -0.1957 -0.0318
 5146W        W24680   8.839  15.280  17.293  0.1740 -0.1165 -0.0818
 5147W        W24681   7.167  13.309  16.559  0.0250 -0.3276  0.0167
 5148W        W24682   6.860  12.460   4.471  0.0751 -0.1396  0.4456
 5149W        W24683  10.863   5.461  13.337 -0.2410  0.1530 -0.0705
 5150W        W24684   9.369  10.072   1.026 -0.4260 -0.2226  0.2388
 5151W        W24685   7.067  14.116  13.565  0.2402 -0.4696 -0.0366
 5152W        W24686   9.523  10.966  13.357  0.1181  0.2482  0.1370
 5153W        W24687   3.523   5.709   4.580  0.0606 -0.1747  0.0644
 5154W        W24688  15.713  10.836   2.459 -0.1009  0.0941 -0.0578
 5155W        W24689   9.877   2.547   0.091  0.0502 -0.0659  0.0507
 5156W        W24690   6.022   1.067   4.821 -0.0818 -0.0284 -0.0744
 5157W        W24691  15.589   7.711   4.209  0.0733 -0.2011  0.1898
 5158W        W24692   3.778  13.536   0.232  0.1573  0.1509  0.0568
 5159W        W24693   8.562   9.461  14.079 -0.3170  0.0908  0.1020
 5160W        W24694  12.900   4.039  13.892  0.0508  0.1211 -0.0710
 5161W        W24695   6.059   8.379   5.081 -0.1358 -0.2940  0.0638
 5162W        W24696  16.055  13.487  13.728  0.0357 -0.0706  0.0009
 5163W        W24697  13.799  13.223   2.041 -0.0146 -0.0062  0.1077
 5164W        W24698  14.231   7.522   2.012  0.0815 -0.2147  0.2265
 5165W        W24699   4.198   7.717   0.324 -0.2292  0.2263  0.1669
 5166W        W24700  13.284  16.054   4.847 -0.1256  0.3126 -0.0631
 5167W        W24701   0.322  10.145   0.242  0.0857  0.2412 -0.1326
 5168W        W24702  10.287   3.819  14.395  0.0659 -0.2852  0.0647
 5169W        W24703  13.437   4.296  15.793  0.0174  0.1839  0.0795
 5170W        W24704   4.917   1.790   4.490 -0.0521  0.0039  0.0573
 5171W        W24705  13.299   6.102  15.254  0.2855  0.2897 -0.0677
 5172W        W24706   6.417  15.543   1.970  0.0235  0.0118  0.2647
 5173W        W24707  15.587  10.335  15.813 -0.1536 -0.1482  0.2284
 5174W        W24708  15.569   8.150   0.091 -0.0978  0.1968  0.0229
 5175W        W24709   3.154   8.045   1.717  0.0664  0.0053 -0.0530
 5176W        W24710  15.809   0.502   2.949  0.1631 -0.2015 -0.2606
 5177W        W24711   6.952  14.502  17.139  0.1592  0.0883 -0.3811
 5178W        W24712  12.676   6.944   2.073  0.2717  0.0983  0.0033
 5179W        W24713   2.915  16.693   0.517 -0.0540 -0.0808 -0.0270
 5180W        W24714   5.264   9.641   4.495  0.1410  0.0252 -0.0934
 5181W        W24715  11.705  17.276  15.505 -0.0114  0.0148  0.0870
 5182W        W24716   7.286  10.851   2.961 -0.0253 -0.1429 -0.1255
 5183W        W24717  12.804  12.835   0.694 -0.0231  0.1100 -0.1262
 5184W        W24718   3.936  13.891  13.994 -0.2389 -0.0293 -0.1617
 5185W        W24719  16.242   1.231  12.745  0.0744  0.1279 -0.1227
 5186W        W24720  10.509  13.256   4.440  0.0850  0.3045 -0.1058
 5187W        W24721   0.473   3.569  14.476 -0.1501 -0.3128 -0.0358
 5188W        W24722   8.205   4.360  12.568  0.2148 -0.1078  0.1997
 5189W        W24723   9.204   9.897   2.186  0.1427  0.0250  0.1536
 5190W        W24724   8.195  12.575  14.098  0.0771 -0.1081  0.4169
 5191W        W24725  15.393   5.955  16.314  0.0194 -0.1381 -0.0801
 5192W        W24726  17.286   3.946   5.028 -0.2290 -0.0222 -0.0141
 5193W        W24727   6.782   6.548   1.492 -0.2099 -0.1592 -0.3546
 5194W        W24728  11.402  10.859  13.180  0.0696  0.2115  0.2188
 5195W        W24729   5.540   6.423  13.535  0.2754  0.0853  0.0680
 5196W        W24730   2.188   9.202   0.430  0.0388  0.0978 -0.0142
 5197W        W24731   2.801  12.751   1.544  0.1799  0.0351  0.1633
 5198W        W24732  17.039  16.594  13.890 -0.2276  0.0637 -0.1823
 5199W        W24733  15.805  16.287   3.634  0.1595 -0.0906 -0.1770
 5200W        W24734   1.547   2.924  14.155 -0.0212  0.2736  0.0212
 5201W        W24735   7.361  16.575   4.711  0.2384 -0.2683 -0.1263
 5202W        W24736  12.122  16.694   3.020  0.0818  0.2132  0.0031
 5203W        W24737   2.166   8.137  15.560  0.3530 -0.2256 -0.1221
 5204W        W24738  15.495   6.469   2.366  0.2081  0.0238  0.0190
 5205W        W24739   5.687   8.579  17.092  0.0285 -0.2521  0.2493
 5206W        W24740   7.063   7.349   1.001 -0.1867 -0.1469  0.4591
 5207W        W24741   2.514   1.128  16.639 -0.0163  0.1093  0.1583
 5208W        W24742   5.004   2.965   4.526  0.0530 -0.0807 -0.1248
 5209W        W24743  13.469   8.257   2.796  0.0958  0.2599  0.1499
 5210W        W24744  12.120  13.911  16.795 -0.1950 -0.1695 -0.2777
 5211W        W24745   6.349  10.718   2.698 -0.1291 -0.1173 -0.6329
 5212W        W24746  11.720  16.857   2.725  0.2933 -0.1021  0.2190
 5213W        W24747  13.695   9.558   4.971 -0.2934 -0.0331 -0.1715
 5214W        W24748   1.785   8.237  14.121  0.2640  0.1931 -0.2706
 5215W        W24749   0.719  11.813   1.126  0.1003 -0.2862  0.1381
 5216W        W24750   5.411   4.494   3.209 -0.0962 -0.1562 -0.2168
 5217W        W24751   1.210  10.139  14.267 -0.0709  0.1472 -0.1622
 5218W        W24752   3.538   6.708   4.330 -0.0768 -0.1949  0.0402
 5219W        W24753  10.855   2.996  17.074 -0.1004  0.3346 -0.0683
 5220W        W24754   4.654   8.473  15.423  0.2512  0.0885 -0.0576
 5221W        W24755  14.593  13.726  14.822 -0.0446  0.3245  0.1389
 5222W        W24756  16.543   7.065  13.104 -0.0316  0.0698  0.1662
 5223W        W24757  17.414   2.987   1.842  0.1662 -0.0718  0.4064
 5224W        W24758   3.979   8.846  13.740  0.1637 -0.2778  0.1800
 5225W        W24759  14.716   0.753   1.629 -0.0529 -0.0491 -0.3470
 5226W        W24760  10.620   0.946   1.906 -0.0622 -0.0705 -0.2262
 5227W        W24761   0.810  14.634  15.474  0.0494 -0.1414 -0.0399
 5228W        W24762  12.089   9.099   1.978 -0.1135  0.2771  0.1745
 5229W        W24763  15.024   9.325  16.058  0.0578 -0.1552 -0.1590
 5230W        W24764   8.886  10.288  16.445 -0.0393  0.1595  0.3765
 5231W        W24765   6.236  10.903   3.700 -0.0902  0.0337 -0.0911
 5232W        W24766   8.855   8.448   5.241  0.2930 -0.0618  0.1817
 5233W        W24767  12.444  10.933  13.409  0.2214  0.0961  0.0225
 5234W        W24768   8.535  13.135   3.646  0.1636 -0.2013 -0.1917
 5235W        W24769  10.715  11.464   4.182 -0.1345  0.1925 -0.2274
 5236W        W24770   6.981  14.503  11.369  0.0035 -0.1614 -0.0465
 5237W        W24771   4.318   5.638   4.132  0.0357 -0.0253  0.0523
 5238W        W24772   7.327   7.823  12.477  0.0112 -0.0698 -0.2404
 5239W        W24773   5.724   5.646  14.672 -0.2806  0.0186 -0.1095
 5240W        W24774   1.706   5.503   3.350  0.0018  0.1503  0.1734
 5241W        W24775  13.044   4.251  17.129 -0.1553 -0.2810  0.2155
 5242W        W24776  12.321  12.804  13.120  0.0094 -0.2114  0.0829
 5243W        W24777   7.858   7.884  13.398  0.1164  0.0383 -0.1429
 5244W        W24778  13.209   2.682  12.579  0.0318 -0.0573  0.0810
 5245W        W24779  15.623  11.829  13.803 -0.2109  0.3110 -0.0768
 5246W        W24780   9.279   3.531   1.978 -0.2770  0.2572 -0.1161
 5247W        W24781  11.645  15.077  13.511  0.1225  0.1460 -0.2520
 5248W        W24782   4.110   5.234   2.562  0.0530 -0.2872  0.1333
 5249W        W24783   6.103   9.092  14.407  0.1601  0.1205  0.2940
 5250W        W24784  13.506   8.489   3.278 -0.0428  0.1083 -0.0191
 5251W        W24785   8.762  17.049  14.293  0.0465  0.2753  0.2912
 5252W        W24786   6.955   2.101   0.126 -0.0629 -0.1339 -0.2134
 5253W        W24787   0.883   2.663   1.442 -0.1904  0.0325  0.2107
 5254W        W24788  15.438  12.177   3.170 -0.1355  0.2470  0.0852
 5255W        W24789  16.927  10.114  14.215  0.1956  0.0534 -0.0538
 5256W        W24790  11.492   2.773   4.405 -0.1308  0.1735 -0.0739
 5257W        W24791   2.661  12.958  15.734 -0.2216 -0.0922 -0.2091
 5258W        W24792   6.234   5.856   1.195  0.0541  0.1469  0.3640
 5259W        W24793  12.289  15.322   5.719 -0.2357 -0.1759  0.1666
 5260W        W24794  11.783   6.995  14.332  0.2374  0.1989  0.1769
 5261W        W24795   1.704   4.904  13.742  0.0216  0.0160  0.0897
 5262W        W24796   2.327  13.702  15.460  0.0535  0.0335  0.0126
 5263W        W24797   3.401   4.340   4.161  0.0263  0.1990  0.2674
 5264W        W24798   1.681   9.983  14.381 -0.3355  0.0832  0.1600
 5265W        W24799   8.330   0.994   4.072 -0.0800  0.0797 -0.0545
 5266W        W24800   6.702  10.671  13.463  0.1701  0.2679  0.2159
 5267W        W24801   7.595   0.792   3.987  0.0748  0.2218 -0.3163
 5268W        W24802   7.635  15.857  15.559 -0.0812  0.1459  0.1194
 5269W        W24803  14.871   4.271  15.807 -0.0107  0.0406  0.0780
 5270W        W24804  14.369   7.504   3.455  0.0044  0.0044 -0.0880
 5271W        W24805  10.833   9.840   0.413 -0.1101 -0.3113  0.0041
 5272W        W24806  12.743   2.597  12.876  0.0597 -0.2420 -0.1725
 5273W        W24807   8.963  12.737   4.819 -0.0440  0.0278 -0.1282
 5274W        W24808  15.770  17.312   4.326 -0.0769  0.0738 -0.2734
 5275W        W24809  14.414   5.533   3.122  0.2030 -0.2889  0.1657
 5276W        W24810  10.536   1.063  15.118  0.1624 -0.1017  0.0592
 5277W        W24811  16.242   2.252   1.984  0.1471 -0.2486  0.1302
 5278W        W24812   4.226  14.215  15.239 -0.0992  0.0194  0.0294
 5279W        W24813   1.491   2.798  12.188  0.1672  0.0633 -0.1339
 5280W        W24814   5.576  13.355   0.831 -0.2357  0.0760 -0.1994
 5281W        W24815  10.364  12.217   2.255  0.1550 -0.1843 -0.0431
 5282W        W24816   7.982   1.483   2.754  0.2444  0.1512  0.0687
 5283W        W24817   2.838   0.792  13.507 -0.0273  0.1134  0.0554
 5284W        W24818   3.884  13.167   4.019  0.1698  0.1806  0.4145
 5285W        W24819   8.956   0.593   1.964  0.3014 -0.0707  0.1125
 5286W        W24820  13.236   8.819  15.424 -0.0438  0.4673  0.3925
 5287W        W24821   4.042   3.087  14.252  0.3002  0.1732  0.1886
 5288W        W24822  16.666   2.708  14.907  0.2001 -0.2829 -0.0987
 5289W        W24823  15.330   9.048  16.425 -0.1133  0.2297  0.1276
 5290W        W24824   0.371   4.719   5.329  0.0299 -0.1424  0.0875
 5291W        W24825  11.148   9.680   2.232 -0.0908 -0.0110 -0.0047
 5292W        W24826  14.310   5.640   4.343  0.0983 -0.0312 -0.1016
 5293W        W24827   7.448   9.398   0.223  0.2216  0.1603 -0.0350
 5294W        W24828   6.593  16.028  16.298 -0.2679 -0.3475 -0.0932
 5295W        W24829  14.806  10.477   3.002 -0.0479 -0.0572  0.2061
 5296W        W24830  14.345  11.472   3.183  0.0021 -0.0210 -0.2404
 5297W        W24831  16.473  16.758  14.657 -0.1281 -0.2120 -0.0278
 5298W        W24832   5.989  15.301   2.258  0.2118  0.0193  0.1403
 5299W        W24833  16.737  11.009  11.697  0.2527  0.1217  0.0210
 5300W        W24834   0.601   2.714  14.006  0.0610  0.0723 -0.2987
 5301W        W24835   6.024   3.267   2.200  0.3280  0.2857 -0.3934
 5302W        W24836  16.049   9.684  12.715  0.2230  0.1264 -0.0323
 5303W        W24837   7.818   4.170   5.034 -0.0703 -0.2278  0.3053
 5304W        W24838   6.830   6.954  13.799 -0.1825  0.0983 -0.0061
 5305W        W24839  16.473   9.347  14.987  0.0297  0.1920 -0.1044
 5306W        W24840   0.364   7.445  13.467  0.3788  0.1132 -0.2318
 5307W        W24841  16.105   9.644   2.655 -0.0520 -0.1999  0.1211
 5308W        W24842   1.235   6.333   3.726  0.0172 -0.0828 -0.2058
 5309W        W24843   0.134  13.223   0.976 -0.2538 -0.3111  0.1754
 5310W        W24844   6.672  17.279   4.054 -0.1548  0.1064  0.0673
 5311W        W24845   0.616   5.019   2.172  0.0780  0.0157  0.3524
 5312W        W24846   2.755   0.049  14.949  0.0556 -0.0960  0.0723
 5313W        W24847   8.168  11.109  12.208  0.0791 -0.2168 -0.3277
 5314W        W24848   6.954   0.569  12.740 -0.0413  0.0043  0.2449
 5315W        W24849  11.095  14.064  12.506 -0.2630  0.1350 -0.4377
 5316W        W24850   5.611   1.236   0.500  0.0867 -0.3290  0.0400
 5317W        W24851  15.776   6.597  15.225  0.3974  0.3250 -0.2334
 5318W        W24852  14.791  17.376   1.126  0.0571 -0.1962 -0.0571
 5319W        W24853   1.351   4.147   1.645 -0.0864 -0.2328  0.1345
 5320W        W24854   0.202  14.802  12.066 -0.1144 -0.1138  0.4270
 5321W        W24855   0.469  13.067  13.167 -0.3244  0.2910  0.3130
 5322W        W24856   8.003   3.578  13.861 -0.0634  0.0820  0.1235
 5323W        W24857   1.577   9.871   0.749  0.0346 -0.1028  0.2921
 5324W        W24858   3.354  10.225   1.531 -0.1145 -0.1255 -0.2662
 5325W        W24859   9.654   6.284  16.527  0.0770 -0.1359 -0.0556
 5326W        W24860   8.329  14.379   0.141 -0.1059  0.1706  0.0793
 5327W        W24861  14.056  14.425  16.627 -0.0837  0.1530  0.0784
 5328W        W24862   7.188   1.836   3.864 -0.1904 -0.1231  0.4082
 5329W        W24863   1.101  12.488   3.733  0.0308  0.0769 -0.0077
 5330W        W24864   6.803   4.133  15.877  0.1923 -0.1452 -0.0613
 5331W        W24865   7.786   3.967   2.293 -0.0886  0.1442 -0.2784
 5332W        W24866   5.113  14.941  16.942 -0.2527  0.2724 -0.0259
 5333W        W24867   9.434  14.718  14.275  0.2890  0.0413  0.1109
 5334W        W24868   1.624   5.986  15.852 -0.0991  0.0728 -0.0544
 5335W        W24869   0.230   4.620  12.702 -0.1108 -0.1382 -0.0587
 5336W        W24870   9.058   8.271  13.538 -0.1988 -0.1106 -0.0756
 5337W        W24871  11.042   7.806  17.090 -0.0196  0.0932  0.0916
 5338W        W24872  15.478  15.895   3.772 -0.1253 -0.2927  0.2564
 5339W        W24873  13.849  14.569  17.113 -0.0988  0.2036 -0.1894
 5340W        W24874   5.569  10.557  13.964  0.1644  0.2713 -0.1162
 5341W        W24875   4.132   4.990   3.020  0.0274 -0.1086 -0.2523
 5342W        W24876  10.346   0.715  16.738  0.3037 -0.2172  0.1702
 5343W        W24877   3.693   7.137   2.620  0.3547  0.0658  0.0886
 5344W        W24878  11.720   6.086   2.181 -0.1950 -0.3768 -0.0546
 5345W        W24879  16.017   3.629  12.655 -0.1667 -0.0914  0.0124
 5346W        W24880  11.143  14.011  14.099 -0.0880 -0.1800  0.0274
 5347W        W24881   0.209   4.190  14.836 -0.0492  0.3524  0.2422
 5348W        W24882  10.508  12.587  14.583 -0.0648  0.0733  0.1954
 5349W        W24883   8.375  11.232   5.126 -0.1304  0.0275  0.0617
 5350W        W24884  14.631   2.947   4.815 -0.1274 -0.0716 -0.0727
 5351W        W24885  17.082   4.718  13.080 -0.1438  0.2414  0.0639
 5352W        W24886   5.513  11.982   6.176  0.1008 -0.0430  0.0146
 5353W        W24887  10.300  10.007   1.991  0.2484 -0.1125 -0.1386
 5354W        W24888  13.975  13.076   2.700  0.0424 -0.1585  0.1379
 5355W        W24889  14.659   3.131   1.958 -0.1301 -0.2749  0.0519
 5356W        W24890   0.029   9.322   2.608  0.1173 -0.2418 -0.1827
 5357W        W24891  14.527   4.512   1.070 -0.1397 -0.2793  0.2533
 5358W        W24892   3.731  16.186   1.610 -0.0541  0.0160  0.0072
 5359W        W24893   7.045  16.891   3.991 -0.2826  0.2909 -0.0941
 5360W        W24894  16.440  12.441  12.068 -0.1545  0.0936 -0.1199
 5361W        W24895   9.508   5.667   1.068  0.0168  0.1384 -0.0473
 5362W        W24896   5.974   5.354  14.961 -0.1969  0.1876  0.1283
 5363W        W24897   2.731   2.283   2.833  0.2396 -0.1700  0.0939
 5364W        W24898   9.503   2.735  15.742 -0.0686  0.1980 -0.0432
 5365W        W24899   0.289  10.239  15.657 -0.2658 -0.0640  0.2330
 5366W        W24900  13.874  14.164   1.754  0.1823  0.1420 -0.1300
 5367W        W24901  14.090   2.509   3.674 -0.0467  0.1612  0.1353
 5368W        W24902   8.925  13.455  12.762  0.0241  0.1005  0.2692
 5369W        W24903   8.309   8.613  15.804  0.3256  0.2004 -0.0702
 5370W        W24904  14.191   2.249  13.871  0.0526  0.3004  0.0118
 5371W        W24905   2.863   6.183  14.323  0.0092 -0.2033 -0.0245
 5372W        W24906   9.338  16.720  17.285 -0.2371 -0.0371 -0.2166
 5373W        W24907   1.881   2.642   4.299  0.1808  0.0370  0.2757
 5374W        W24908   9.360  17.130  16.382  0.1441  0.2342  0.0647
 5375W        W24909   8.585   9.084   3.533 -0.1467 -0.0982 -0.2572
 5376W        W24910  16.048   5.765   3.784  0.1304 -0.2822  0.0490
 5377W        W24911  12.268   4.121   1.846  0.1600 -0.1554 -0.1277
 5378W        W24912  13.424   8.409  14.319  0.1588 -0.0702 -0.1697
 5379W        W24913   8.371  11.561   3.590 -0.0626 -0.0991  0.0444
 5380W        W24914   6.933   1.256  16.170  0.1766  0.1787 -0.1360
 5381W        W24915   9.431  16.986  14.214  0.0565  0.3709  0.1327
 5382W        W24916   3.462   3.552   2.933  0.0101  0.1772  0.3296
 5383W        W24917   9.601   7.392   4.705  0.1511 -0.0446  0.0083
 5384W        W24918  12.770  12.526   2.791 -0.0569 -0.0185  0.0250
 5385W        W24919   9.005   8.567  16.508  0.2102 -0.0327 -0.3736
 5386W        W24920   5.708  15.393  13.967 -0.1585  0.1638 -0.2535
 5387W        W24921  10.574  16.421   0.114 -0.0215 -0.1072  0.1196
 5388W        W24922   5.959   9.911  15.589 -0.0801  0.2401 -0.3417
 5389W        W24923   5.884   0.647  13.951 -0.0509  0.0119  0.0749
 5390W        W24924   8.394   8.588   1.380 -0.1154  0.2094 -0.0397
 5391W        W24925   9.392  12.040  15.182 -0.0873 -0.2719  0.3444
 5392W        W24926  15.573  15.751  15.492  0.3962 -0.0841  0.3010
 5393W        W24927   9.966   4.243  14.539 -0.2500  0.0376  0.1711
 5394W        W24928   5.850   9.907   5.169  0.0878  0.0664  0.2006
 5395W        W24929   7.634   2.803   1.454 -0.2151  0.1651  0.1362
 5396W        W24930   5.232  10.109   1.138  0.0392  0.0567  0.2239
 5397W        W24931   0.661  11.358  15.024  0.1022 -0.1822 -0.0611
 5398W        W24932  16.616   6.941   1.183 -0.1720 -0.0802  0.0999
 5399W        W24933   9.495  13.429   4.005 -0.2154  0.2642  0.0559
 5400W        W24934   7.147   4.160  13.048  0.2130  0.2782 -0.2441
 5401W        W24935  12.771   2.804  16.821  0.2384 -0.1677  0.4970
 5402W        W24936   4.496   1.198   3.728 -0.0736 -0.0895 -0.1573
 5403W        W24937  10.806  13.525  14.013  0.0595  0.0681  0.2968
 5404W        W24938   6.506   4.479   0.580 -0.2206 -0.1976 -0.0857
 5405W        W24939   4.926   4.039   4.347 -0.2633  0.1921 -0.0247
 5406W        W24940  16.676   2.594   2.505  0.0159  0.0551 -0.3748
 5407W        W24941  15.078   3.216  15.519 -0.1369 -0.1591  0.3051
 5408W        W24942   8.800   7.192  14.216 -0.2491 -0.1704 -0.5246
 5409W        W24943  12.126   4.454  13.730  0.1799 -0.1533 -0.2901
 5410W        W24944  16.305  10.130  11.332 -0.0395 -0.0712  0.0323
 5411W        W24945   9.818   7.348   1.041 -0.0467  0.1549  0.0854
 5412W        W24946   1.841   3.260  14.381  0.0702 -0.4094  0.0816
 5413W        W24947   5.253  16.254   3.972  0.2753  0.1871  0.0240
 5414W        W24948   8.340  16.652   4.211 -0.0137 -0.1782  0.0597
 5415W        W24949  16.658   0.750   5.204 -0.0888  0.3388  0.1916
 5416W        W24950   4.083   1.082  13.965  0.2626  0.2368 -0.1338
 5417W        W24951   7.853   9.178   2.498 -0.1467  0.0427 -0.0978
 5418W        W24952  14.011   9.005  17.108  0.0403 -0.0344 -0.3757
 5419W        W24953   5.771   1.065  16.809  0.0989  0.1416  0.1250
 5420W        W24954   9.389   4.187  17.058  0.0334  0.3416  0.2064
 5421W        W24955   3.320   0.284  16.119  0.0604 -0.0572 -0.2323
 5422W        W24956   2.320   3.328   1.647  0.0796  0.3153  0.2326
 5423W        W24957  10.312   7.862   2.254  0.1255 -0.2538  0.0656
 5424W        W24958   5.352  13.351   2.591 -0.0560 -0.0909  0.1342
 5425W        W24959   6.625   8.169   4.511  0.1996 -0.0573 -0.0557
 5426W        W24960   7.916  16.221  13.267  0.0235 -0.1266  0.0770
 5427W        W24961  15.252   5.742  13.715 -0.1703 -0.2041 -0.2298
 5428W        W24962  14.600  13.191   4.066  0.0145  0.0580  0.0239
 5429W        W24963   0.987   0.058   1.023  0.1098  0.1402 -0.1996
 5430W        W24964  16.866  14.624  13.090  0.4089 -0.0203  0.0930
 5431W        W24965   1.134   4.981   4.147  0.1892 -0.0137 -0.0323
 5432W        W24966   8.319   2.166   1.590  0.0622 -0.2287  0.0452
 5433W        W24967   1.555   7.490   2.943  0.1805  0.0805  0.1861
 5434W        W24968   4.234   6.929  12.842  0.1741  0.2909  0.3348
 5435W        W24969   2.780   2.829   1.019 -0.0372 -0.0244  0.0740
 5436W        W24970   0.564   9.000   1.327 -0.0289  0.0844  0.1546
 5437W        W24971   6.237   6.832   4.302 -0.2225 -0.1892 -0.2724
 5438W        W24972   5.285  15.120   3.711 -0.0396  0.0606 -0.0872
 5439W        W24973  10.636   3.805   3.559  0.2439  0.1372 -0.0391
 5440W        W24974   2.487   6.079   0.856  0.2725 -0.2268 -0.1090
 5441W        W24975  15.371  14.277  14.879  0.1226  0.0156 -0.1177
 5442W        W24976   2.832   0.456  12.695  0.2531  0.0671 -0.1431
 5443W        W24977   6.116  16.613  14.991  0.0728  0.0197 -0.0204
 5444W        W24978  12.924  12.560   2.238 -0.2428 -0.0341 -0.0334
 5445W        W24979  15.075   7.442   4.177  0.0470  0.2278  0.0333
 5446W        W24980   0.028   7.901  15.687 -0.1094  0.2125 -0.1589
 5447W        W24981   4.791   3.320   3.734  0.0150  0.3190  0.2828
 5448W        W24982   4.680  12.516  12.633 -0.1136 -0.1108 -0.3886
 5449W        W24983  16.325   6.215   4.684  0.0499 -0.1568 -0.1099
 5450W        W24984   0.137  12.731  16.738 -0.1148  0.3967  0.2073
 5451W        W24985   4.306   2.272  14.436 -0.0771 -0.3827 -0.3442
 5452W        W24986  13.526  11.853   3.906  0.0373  0.1732 -0.0457
 5453W        W24987   9.709   9.797   5.119  0.4642 -0.2746  0.0948
 5454W        W24988   7.408   1.302  12.814  0.0527  0.1736  0.0215
 5455W        W24989  12.787  17.360   2.247  0.0009  0.0048  0.1942
 5456W        W24990   7.645   6.639   4.031  0.1428  0.2967  0.0321
 5457W        W24991   3.145  10.576   3.428  0.2999  0.2229 -0.0751
 5458W        W24992   5.607   9.278  12.871  0.0473  0.0426 -0.3128
 5459W        W24993  11.649   9.795  15.070  0.2093 -0.3039  0.1489
 5460W        W24994   3.353  12.296  13.194  0.3078  0.0370 -0.1570
 5461W        W24995   8.057   8.338   3.708 -0.0324 -0.0726  0.1343
 5462W        W24996   9.664  10.063   1.411 -0.0739 -0.1254 -0.2584
 5463W        W24997  14.824   4.088  12.933  0.0916 -0.0096 -0.0794
 5464W        W24998   9.408   0.083   4.495 -0.2643  0.0039  0.1348
 5465W        W24999  13.935   4.526  13.395  0.1899  0.1215 -0.0632
 5466W        W25000   5.216   0.743  13.509 -0.0164 -0.0263  0.1357
 5467W        W25001  15.480  14.628  14.458 -0.4150  0.1575  0.2024
 5468W        W25002   0.851   9.983   2.243  0.1856 -0.0098  0.1766
 5469W        W25003   4.443   2.313   1.348 -0.2096 -0.0059  0.0320
 5470W        W25004  11.571  14.233  12.369  0.0069 -0.0473 -0.3373
 5471W        W25005   8.425   1.082  15.768  0.1357  0.0182  0.1382
 5472W        W25006   6.335  12.507  15.983  0.3969 -0.0361  0.0916
 5473W        W25007   0.868   7.835   0.328  0.5112 -0.5552  0.1491
 5474W        W25008  13.278  16.790  12.642  0.0803  0.3393  0.1244
 5475W        W25009  13.107   1.151  13.777 -0.0167  0.0859 -0.4044
 5476W        W25010  15.622   0.817   1.343  0.1095 -0.1056  0.1100
 5477W        W25011  11.793  10.394   0.181 -0.0184 -0.2263 -0.3868
 5478W        W25012  15.382   5.494   3.272 -0.2305  0.2682 -0.0250
 5479W        W25013   2.846   4.192  14.217  0.1752 -0.2665  0.1035
 5480W        W25014  13.223   0.074   2.299  0.0002 -0.3116  0.1514
 5481W        W25015  12.464   3.566  14.565  0.0156 -0.1684  0.0583
 5482W        W25016  15.246   4.339   0.366 -0.2307 -0.0865  0.2053
 5483W        W25017   8.038   6.389  15.609 -0.0801 -0.3881 -0.3137
 5484W        W25018  10.718   8.122   0.042 -0.2750  0.0760 -0.1042
 5485W        W25019   5.538  12.983   3.010 -0.2647 -0.3369 -0.0582
 5486W        W25020   6.497  12.763   0.077 -0.0719 -0.1573  0.0964
 5487W        W25021  15.053  12.336  15.059  0.2444 -0.0263 -0.0795
 5488W        W25022   4.056  16.419   2.443 -0.3088 -0.2277 -0.0569
 5489W        W25023  13.293  14.185  14.392 -0.1530 -0.0949 -0.2470
 5490W        W25024  15.570   8.314   2.794  0.0254 -0.2542 -0.0336
 5491W        W25025  10.068   2.673   4.426 -0.0620  0.0763  0.3223
 5492W        W25026  11.072  15.254  12.803  0.0662  0.2016 -0.0092
 5493W        W25027   7.037   9.130   4.870  0.1453 -0.0048 -0.2166
 5494W        W25028   4.638   3.094   1.167  0.1846  0.0750  0.0826
 5495W        W25029  11.614   9.682  17.106 -0.1095  0.0040  0.1699
 5496W        W25030   4.941  12.538  14.919 -0.1925  0.4743 -0.0574
 5497W        W25031   6.391   9.819  16.537  0.1753 -0.0451  0.1205
 5498W        W25032  13.891   4.804  12.998  0.0249  0.1108  0.2441
 5499W        W25033   6.771   0.509  16.085 -0.3175 -0.2896 -0.0196
 5500W        W25034   9.875   0.985  16.157  0.1222 -0.0289 -0.0750
 5501W        W25035  11.317   9.039  13.250 -0.0208 -0.0076  0.0548
 5502W        W25036  11.417   2.330  13.673 -0.3221 -0.0100  0.0154
 5503W        W25037  16.124   9.039  15.989 -0.0513 -0.0849 -0.4690
 5504W        W25038  14.301  15.736  16.160  0.1341 -0.1394 -0.0963
 5505W        W25039  10.738  15.683  15.843 -0.0489  0.0539  0.1985
 5506W        W25040   1.356   6.528   0.336 -0.1441  0.1968  0.1112
 5507W        W25041  10.163   6.477   4.439  0.1262 -0.0299  0.5361
 5508W        W25042  11.915   8.514  16.472 -0.2040  0.0226  0.0441
 5509W        W25043  13.957   9.142  15.742  0.3275  0.1673 -0.2571
 5510W        W25044  13.551  13.901   2.611 -0.0486 -0.0355 -0.0154
 5511W        W25045   1.267  15.332   4.802 -0.1221  0.3655  0.0019
 5512W        W25046  17.177   3.569  13.457  0.1796 -0.2949  0.2383
 5513W        W25047  11.805  11.080   0.415  0.0414  0.0272  0.1788
 5514W        W25048   6.193   9.368   4.708  0.2140 -0.3083 -0.0661
 5515W        W25049   3.656  16.633   4.407 -0.0302  0.1307  0.4303
 5516W        W25050  10.210   4.946  15.733 -0.0727  0.0075  0.2878
 5517W        W25051   4.614   4.557   4.289 -0.0786  0.3449  0.1527
 5518W        W25052  10.286   0.588   1.493  0.2336  0.0280 -0.4362
 5519W        W25053   0.417  16.658   1.048  0.1357  0.1026  0.0935
 5520W        W25054   4.895   8.902  17.189 -0.0536  0.2413 -0.0189
 5521W        W25055   2.422  14.183   1.953 -0.3116 -0.0171 -0.0618
 5522W        W25056   2.793  10.275  14.839 -0.1619 -0.0801 -0.1514
 5523W        W25057  10.514   2.892   3.055  0.0547 -0.2919  0.2507
 5524W        W25058   9.970  15.161   0.963  0.2444 -0.1421  0.0912
 5525W        W25059   6.101   0.456  14.364  0.2418 -0.0561 -0.0018
 5526W        W25060  15.320  10.089  15.022  0.4119  0.1595  0.1910
 5527W        W25061   8.859   5.871   3.281  0.0970 -0.0775  0.0858
 5528W        W25062   3.715  17.070   3.605  0.2216  0.1776 -0.0076
 5529W        W25063   2.817  12.931   2.925  0.0468 -0.0603  0.1632
 5530W        W25064   2.797  16.992  16.103  0.0122 -0.1063 -0.2550
 5531W        W25065  14.987   9.326  16.932 -0.0807  0.3504 -0.0494
 5532W        W25066   5.480  14.338   3.069 -0.1583  0.0079  0.0121
 5533W        W25067  15.736   3.787   3.326 -0.4394  0.0779  0.0111
 5534W        W25068  16.675   4.230   0.202  0.2084 -0.0045 -0.1027
 5535W        W25069   1.853  12.813  13.493 -0.1623  0.0068  0.1612
 5536W        W25070   7.108   2.218   4.867  0.3290 -0.0195 -0.1406
 5537W        W25071   7.679  11.642  14.919  0.0979  0.2617 -0.2241
 5538W        W25072   7.541   2.033  13.591 -0.3014  0.0337  0.2816
 5539W        W25073  16.914   8.103  15.102 -0.1117  0.0435 -0.0414
 5540W        W25074   9.337  10.480   2.114 -0.2825 -0.1905 -0.2988
 5541W        W25075  11.132  12.893   1.435  0.0072 -0.2837 -0.1031
 5542W        W25076   2.100   6.552   1.607 -0.0542 -0.0810  0.4825
 5543W        W25077   9.496   2.147  12.537 -0.2539  0.2322  0.0156
 5544W        W25078   5.074  14.545   0.356  0.1587  0.1051  0.2093
 5545W        W25079   8.436   6.364  16.301  0.0016  0.0563  0.0869
 5546W        W25080   0.988   6.879   2.056 -0.0003 -0.0605 -0.3968
 5547W        W25081   3.743   0.751   3.327 -0.2318 -0.0924 -0.0484
 5548W        W25082  10.014   0.909   3.929 -0.1901  0.1454 -0.1729
 5549W        W25083  13.994   8.638   4.003 -0.0678 -0.0433  0.0195
 5550W        W25084   1.622   3.185   5.041  0.2535 -0.2234 -0.0630
 5551W        W25085  12.641  12.005  16.217 -0.0508 -0.0381 -0.0125
 5552W        W25086   7.700  16.435  17.003  0.0714 -0.1008 -0.4216
 5553W        W25087   3.524   4.096  13.063  0.0384  0.0425 -0.0774
 5554W        W25088   6.819   6.470  12.315 -0.0534 -0.1982 -0.0488
 5555W        W25089  16.283   7.544   1.153 -0.1834 -0.1838 -0.0595
 5556W        W25090   0.727  10.008   1.743  0.2699  0.0874  0.0739
 5557W        W25091  13.669   4.016   4.179  0.1705 -0.2017  0.2717
 5558W        W25092  10.370   7.288  17.174 -0.0619  0.0718 -0.0933
 5559W        W25093   0.430  14.906   5.016  0.0692 -0.0741 -0.0501
 5560W        W25094   3.228  12.705  16.757 -0.0367  0.2370 -0.0438
 5561W        W25095  13.828   9.511   1.568 -0.0560  0.0069 -0.0691
 5562W        W25096  13.581   5.470   2.643  0.1678  0.4219  0.1139
 5563W        W25097  12.040  14.071   4.269 -0.3156  0.0989 -0.2634
 5564W        W25098  16.428   5.133   3.349  0.3026 -0.0779  0.1572
 5565W        W25099   4.433  14.412   1.821 -0.4062  0.0053 -0.3535
 5566W        W25100   4.791   9.865   3.825 -0.0782  0.1785  0.1708
 5567W        W25101   7.704   7.449   3.692  0.2025  0.0100 -0.0447
 5568W        W25102  14.891   1.225   2.481  0.0293 -0.0500 -0.0730
 5569W        W25103  16.433   9.782   4.341  0.1430  0.0404 -0.1445
 5570W        W25104   0.759   4.241   3.810  0.1072  0.1123  0.3465
 5571W        W25105  17.057  14.607   1.463 -0.4400  0.2818 -0.0940
 5572W        W25106  13.281   7.960  13.099  0.0066  0.1430 -0.0769
 5573W        W25107   6.872  12.640  13.833  0.1182 -0.0866 -0.2447
 5574W        W25108  12.832   1.358  16.788 -0.0393  0.0737  0.0428
 5575W        W25109   0.007   2.621  15.815 -0.3969 -0.0155  0.2947
 5576W        W25110   4.092  16.945   1.141  0.0394 -0.1140  0.1633
 5577W        W25111   2.650   6.467   3.177 -0.0035 -0.1811  0.0419
 5578W        W25112  15.876   8.966  13.712  0.0324  0.2596 -0.0695
 5579W        W25113   6.610  13.954  14.022  0.1755  0.0847 -0.2411
 5580W        W25114   3.738  14.263   3.541 -0.2415 -0.1754  0.4713
 5581W        W25115   8.248  14.156   2.193  0.0049  0.0209  0.2027
 5582W        W25116   2.259  11.850   3.073  0.0404 -0.1489 -0.1581
 5583W        W25117   4.792   9.344  15.867 -0.2664  0.1796 -0.1986
 5584W        W25118   8.291   8.517  12.644 -0.1264 -0.1928  0.1459
 5585W        W25119  12.585   9.799   1.985 -0.0400 -0.0070 -0.0406
 5586W        W25120   4.011  14.290  17.046 -0.0834 -0.5675 -0.1166
 5587W        W25121  11.452  14.619  12.765 -0.1658 -0.2628  0.3014
 5588W        W25122  10.587  10.347  14.812 -0.1282  0.0464 -0.1735
 5589W        W25123   0.811   5.812   0.732  0.2338 -0.0903 -0.0654
 5590W        W25124  12.419  13.744   4.578  0.0513 -0.1140  0.0913
 5591W        W25125  13.700   1.095   3.126  0.1846 -0.1008 -0.1679
 5592W        W25126   0.668   1.957   4.790 -0.2353  0.0424  0.2217
 5593W        W25127   4.748   9.970  12.709 -0.3579  0.0645 -0.0402
 5594W        W25128  14.900  10.825   0.647 -0.1356  0.1960  0.0606
 5595W        W25129  12.630  15.130   4.826 -0.2303  0.2751  0.1561
 5596W        W25130  16.405   7.960   4.071  0.1060  0.0909 -0.0640
 5597W        W25131  11.011  13.117  13.826 -0.0831  0.5581  0.0325
 5598W        W25132  13.743   2.508  12.633  0.1244  0.2399 -0.0098
 5599W        W25133   2.114  12.555  16.891  0.0838 -0.1172  0.1756
 5600W        W25134   6.344   4.998   4.113 -0.0805 -0.0958 -0.0325
 5601W        W25135   7.774   5.875  16.297 -0.0422  0.1457 -0.0031
 5602W        W25136   2.387  14.371  14.736 -0.0114  0.2099  0.0451
 5603W        W25137   9.601   3.769  15.105 -0.1534  0.1212 -0.2227
 5604W        W25138  10.678   5.809  17.103  0.0265  0.1885 -0.0053
 5605W        W25139   7.138   0.530  16.900  0.0557 -0.0701 -0.4585
 5606W        W25140   4.495   1.045   2.774 -0.0273 -0.0161  0.1352
 5607W        W25141  15.368   6.066   0.413 -0.0130  0.1507  0.0177
 5608W        W25142   2.766   7.149   2.399  0.4117  0.2846  0.0532
 5609W        W25143  14.621  15.176   2.492  0.1302 -0.2233  0.0597
 5610W        W25144  13.329  16.563  15.596  0.0199  0.1414  0.0749
 5611W        W25145   2.713   9.678   2.071  0.2515  0.1264 -0.0032
 5612W        W25146   0.865   5.377   3.078 -0.1820 -0.3168 -0.1003
 5613W        W25147  12.294   1.097   3.531 -0.1719 -0.2198  0.2035
 5614W        W25148   0.886   6.480  13.291 -0.0697  0.0853 -0.0880
 5615W        W25149  14.891  13.975   1.989  0.1020  0.2776  0.1115
 5616W        W25150  11.072  13.814  13.063 -0.1072 -0.0398 -0.0449
 5617W        W25151  12.110  14.510  12.106  0.0568  0.1954  0.2118
 5618W        W25152  10.842  16.333   4.531 -0.0790 -0.0754  0.2603
 5619W        W25153  14.868   3.444   0.575  0.0869 -0.1429  0.1782
 5620W        W25154   2.911   1.940  16.880  0.2854  0.2770 -0.2770
 5621W        W25155  10.322   1.056   1.341  0.1610 -0.0382 -0.0236
 5622W        W25156  10.476   4.155  16.810  0.0487  0.1638  0.1677
 5623W        W25157  10.318  12.203   5.024  0.2286 -0.0459 -0.3086
 5624W        W25158   3.289  10.007  14.952  0.0189 -0.2161 -0.2770
 5625W        W25159  11.273   2.299  15.778  0.0636 -0.3315 -0.1493
 5626W        W25160  14.872   3.357  16.026 -0.0299 -0.3624 -0.1718
 5627W        W25161   1.210   7.716  16.420  0.2362  0.0283  0.1185
 5628W        W25162  17.386   0.382   3.500 -0.0239 -0.0174  0.6313
 5629W        W25163   5.342  14.088   0.133  0.2539  0.0966  0.2220
 5630W        W25164  16.354  15.394   3.071  0.1380 -0.0990  0.2250
 5631W        W25165   9.003   7.972  13.129 -0.2575  0.0526  0.0560
 5632W        W25166   2.723   9.223   4.741  0.1343  0.0551  0.1027
 5633W        W25167   7.412   9.544   3.843 -0.2301 -0.0643  0.2387
 5634W        W25168  15.991  11.788  14.479 -0.1053  0.2273 -0.0622
 5635W        W25169   8.180   9.860   1.963  0.1945  0.0357  0.0169
 5636W        W25170   2.133   3.808  12.636 -0.0768  0.1566 -0.0139
 5637W        W25171  12.078  11.775  13.448  0.2819  0.0576 -0.2459
 5638W        W25172  14.656   9.615  17.205 -0.3177  0.1544 -0.1774
 5639W        W25173  12.173   1.620   1.814 -0.0147 -0.0719  0.2365
 5640W        W25174   4.848  14.792  14.867  0.0605 -0.2803  0.0721
 5641W        W25175  16.790  16.587  16.887  0.1209  0.0202 -0.1323
 5642W        W25176   5.021   7.100  16.761 -0.0398  0.2685 -0.2473
 5643W        W25177  16.428   5.411  15.115  0.1685  0.0409 -0.1546
 5644W        W25178   3.085   2.645   3.114 -0.2151  0.0305 -0.3065
 5645W        W25179  14.985  12.969   4.845  0.0628 -0.0903  0.0245
 5646W        W25180  15.603   2.124   0.123  0.0930  0.0641 -0.3058
 5647W        W25181   6.192   0.232   5.080  0.2051  0.3356  0.0056
 5648W        W25182   1.624   6.885  13.197 -0.0589  0.0980  0.1128
 5649W        W25183   3.435   3.954   3.788  0.2073 -0.1912  0.0015
 5650W        W25184   3.815  16.435  13.294  0.1064  0.2168  0.1045
 5651W        W25185   2.545   0.885   1.064  0.3499 -0.2919 -0.0642
 5652W        W25186  13.686   4.315   1.170 -0.0847  0.0401  0.3057
 5653W        W25187   8.229   4.765   4.301 -0.1799 -0.0540  0.2001
 5654W        W25188   3.573  16.834   1.109 -0.1339 -0.1998  0.2456
 5655W        W25189  15.971   5.191  15.107  0.0554 -0.1923  0.1309
 5656W        W25190  10.571  13.147   2.558 -0.0121  0.1938 -0.0040
 5657W        W25191  15.520   8.344   1.189  0.0219  0.0231  0.1390
 5658W        W25192   6.572   3.546   4.216  0.1119 -0.0954 -0.3869
 5659W        W25193   0.574   6.788   1.390 -0.0926 -0.1485  0.3360
 5660W        W25194   4.720   1.746   4.980 -0.0293  0.0053  0.1970
 5661W        W25195   5.671   5.528   1.040 -0.3503 -0.2073  0.0303
 5662W        W25196   7.199   5.614  14.345  0.1264  0.2833  0.1209
 5663W        W25197  10.492   2.060  16.384  0.0635 -0.1712 -0.1329
 5664W        W25198   0.297   1.749  13.052  0.0682  0.2700 -0.0034
 5665W        W25199  16.512   5.857  15.405  0.0428 -0.0764  0.0196
 5666W        W25200  13.216   3.110   0.642  0.2308 -0.2453 -0.2334
 5667W        W25201   5.961  17.168  14.114 -0.0687  0.2044 -0.0414
 5668W        W25202   0.445  14.633  13.619  0.1826 -0.0773 -0.2112
 5669W        W25203  10.105   2.894   3.454  0.2820  0.0845  0.0350
 5670W        W25204  11.804  13.142   4.838  0.1898 -0.2164  0.1750
 5671W        W25205   0.733   5.486   1.229  0.3624  0.1955  0.1138
 5672W        W25206   0.689  13.667   2.405 -0.2637  0.1423  0.1390
 5673W        W25207   3.615   0.110  14.878 -0.0893  0.0670 -0.1411
 5674W        W25208   1.153   5.292   5.438  0.0615  0.4184  0.2729
 5675W        W25209  17.346  17.274   4.748 -0.1902  0.0259 -0.0295
 5676W        W25210   5.268  10.446   3.697  0.2481 -0.0822 -0.3506
 5677W        W25211   6.137  14.865  14.950  0.1670 -0.0472  0.0028
 5678W        W25212  12.795   9.525  12.654 -0.0749 -0.3612 -0.0774
 5679W        W25213  15.351  14.888   4.749 -0.1617  0.1977  0.1122
 5680W        W25214  17.317  15.435  16.902 -0.0636 -0.0840 -0.0378
 5681W        W25215  14.609  10.372   4.625 -0.0249  0.0674  0.0089
 5682W        W25216  12.839   2.520   4.185  0.0629 -0.0195  0.2485
 5683W        W25217   2.485  12.839   0.550 -0.2111 -0.0500 -0.0406
 5684W        W25218  10.521  14.197   4.788 -0.1538  0.1269 -0.0596
 5685W        W25219  16.118   3.691  15.578  0.1365 -0.0541  0.1780
 5686W        W25220  16.446  11.804   5.396  0.1527  0.2932  0.1001
 5687W        W25221   1.846   5.694  15.527 -0.0837 -0.2029  0.1874
 5688W        W25222  11.293  15.926   3.110  0.0760  0.0682  0.2661
 5689W        W25223   7.145  16.416  16.963 -0.0083  0.0300 -0.1291
 5690W        W25224  14.016   5.013   1.793 -0.0372 -0.0983 -0.0424
 5691W        W25225  14.035   7.509   2.555 -0.0865  0.4300 -0.2538
 5692W        W25226  10.114   3.013  15.047  0.2449  0.0767 -0.0683
 5693W        W25227   7.752   3.569  12.422 -0.1937  0.1708 -0.0552
 5694W        W25228   2.446   5.468  14.453  0.2582  0.4031 -0.0240
 5695W        W25229   3.043   8.796  14.183  0.3417  0.1729 -0.0327
 5696W        W25230   4.638   9.727  14.583 -0.4223  0.1243  0.3199
 5697W        W25231   5.868   2.091  13.659  0.3467  0.0123  0.2611
 5698W        W25232   8.406  16.044  16.066  0.1122 -0.0973 -0.2301
 5699W        W25233   3.245  11.817   4.369  0.1028  0.1646 -0.0132
 5700W        W25234   3.264   1.216   2.377  0.1202  0.1275  0.0975
 5701W        W25235   3.707  15.296  16.226  0.1940  0.1726  0.1023
 5702W        W25236  16.127   5.351   0.431 -0.0258  0.0881 -0.1182
 5703W        W25237   3.226  12.085   1.193 -0.3048  0.0850 -0.1152
 5704W        W25238   1.966   3.896   2.277 -0.2718 -0.3931  0.2499
 5705W        W25239   4.472   2.614  16.533 -0.2024  0.0732 -0.1366
 5706W        W25240   5.972  12.694  15.679  0.0295 -0.0448 -0.0638
 5707W        W25241   4.815  15.663  15.729 -0.1514 -0.0715 -0.3186
 5708W        W25242  10.248  11.152  15.031 -0.1527 -0.0673  0.1374
 5709W        W25243   4.655   2.536  14.766 -0.0572  0.0237  0.1352
 5710W        W25244  12.184  11.857  14.376  0.0927 -0.2636 -0.3167
 5711W        W25245   3.156  10.078   4.608  0.3168 -0.1780 -0.0245
 5712W        W25246  12.370   1.868   3.163  0.2355 -0.1352  0.0501
 5713W        W25247   4.470  17.201   0.139  0.1778  0.1326 -0.0676
 5714W        W25248  15.679   0.397   0.406 -0.0570  0.0014  0.3328
 5715W        W25249   5.418  10.486  15.857  0.0774 -0.0898 -0.0764
 5716W        W25250   8.019   0.656  12.810 -0.0884  0.1085 -0.0845
 5717W        W25251  15.875  14.368  16.033 -0.0378  0.2473  0.2122
 5718W        W25252   6.268  14.492   4.749 -0.0631  0.0185 -0.0303
 5719W        W25253  14.613  11.412   2.407  0.3108 -0.0553  0.3150
 5720W        W25254   9.579   5.216   2.565  0.0529  0.2290  0.0433
 5721W        W25255   0.379   9.724  15.627 -0.1714  0.0074 -0.0706
 5722W        W25256  15.096   6.990   1.080 -0.2203 -0.1482  0.0254
 5723W        W25257  14.333  10.081  12.220 -0.2238  0.1668 -0.0861
 5724W        W25258   7.444   4.466   1.626  0.4213  0.0034 -0.3004
 5725W        W25259  14.941  13.306  14.258  0.2469 -0.2469  0.1211
 5726W        W25260   8.547   1.556  12.743 -0.1714  0.1371  0.1212
 5727W        W25261  11.231   7.038  16.581  0.0675 -0.0572  0.0024
 5728W        W25262  15.664   2.970   0.732  0.0375  0.0478  0.1777
 5729W        W25263   6.247  17.089  14.980  0.4422 -0.1114  0.0756
 5730W        W25264   1.883   5.496  16.025  0.0786 -0.0095  0.1817
 5731W        W25265   7.224   5.026  16.857  0.1400  0.1197 -0.0812
 5732W        W25266  16.495  13.600   2.991  0.2074 -0.0401 -0.0165
 5733W        W25267   0.276   1.252   1.406 -0.2361  0.2756 -0.2168
 5734W        W25268   1.155  12.280  12.361 -0.1105 -0.1621  0.0830
 5735W        W25269   1.990   9.300   1.500  0.4163 -0.0045  0.0107
 5736W        W25270  14.547   0.650  14.721 -0.1455 -0.1671 -0.2264
 5737W        W25271  12.211   6.007   1.963 -0.0449 -0.2099 -0.1675
 5738W        W25272   4.382  13.102   3.363  0.1706 -0.0778 -0.3937
 5739W        W25273  13.704   0.855  14.370 -0.2947  0.0294 -0.2991
 5740W        W25274   9.055   3.425   2.418 -0.3488 -0.1041  0.2123
 5741W        W25275   0.212   5.590   1.493 -0.1416 -0.0042  0.3019
 5742W        W25276   1.538   7.916  16.805 -0.1115 -0.1248 -0.0634
 5743W        W25277   1.994  17.132  16.476  0.1382 -0.0266 -0.2319
 5744W        W25278   3.417   1.203   3.629  0.2418  0.1348 -0.0653
 5745W        W25279  10.048   0.076  16.495  0.0212 -0.0805 -0.0424
 5746W        W25280  12.219   4.904  15.618 -0.0412 -0.3934 -0.0697
 5747W        W25281  14.161  11.963  14.419 -0.1240 -0.3495  0.2022
 5748W        W25282   7.216  12.362  12.633  0.1810 -0.0831 -0.1053
 5749W        W25283  15.811   6.209  12.409 -0.1138 -0.1089 -0.1844
 5750W        W25284   4.934   5.699   0.498  0.1393 -0.0282 -0.0470
 5751W        W25285   0.469  15.711   1.356  0.2788 -0.0564  0.0403
 5752W        W25286   3.395  14.357  15.059  0.0444 -0.0010 -0.0539
 5753W        W25287  10.563  17.275   4.066  0.1374  0.2135 -0.2615
 5754W        W25288   3.928   6.395   4.103  0.4750  0.2851 -0.3447
 5755W        W25289   1.671   3.755   0.936 -0.3810  0.1300  0.0046
 5756W        W25290  17.226  16.855   4.462  0.0926  0.2954 -0.1877
 5757W        W25291   7.705  13.891   1.858 -0.2983  0.2992  0.1275
 5758W        W25292  13.235  10.421  15.000  0.0094  0.3197  0.1972
 5759W        W25293   1.696   9.646   4.173  0.0509 -0.2525  0.0285
 5760W        W25294   8.330  10.864   2.993 -0.0365  0.3541 -0.1450
 5761W        W25295   7.262   2.397  16.881 -0.0279  0.5376  0.0771
 5762W        W25296   4.006   7.909  17.124  0.0002 -0.0228 -0.0004
 5763W        W25297  17.118   1.612  13.666  0.1803 -0.3194  0.0485
 5764W        W25298   1.928   2.155  17.090  0.0715  0.3341  0.1135
 5765W        W25299   3.717   3.155  12.878  0.1663 -0.2195 -0.0587
 5766W        W25300  16.422  11.855  16.043 -0.0618  0.0756  0.0866
 5767W        W25301   3.180   2.678   3.659  0.1964 -0.2921 -0.0194
 5768W        W25302   0.744  14.599   0.724 -0.0493  0.0957  0.4240
 5769W        W25303   2.130   9.903  12.650  0.2235  0.2409 -0.1740
 5770W        W25304  16.407   1.184   1.317  0.1276  0.0378  0.0101
 5771W        W25305   7.556   1.669   2.497  0.0140 -0.4500  0.1391
 5772W        W25306   2.188   8.239  16.042  0.1081 -0.0487 -0.1029
 5773W        W25307   6.403  12.950  15.911  0.0620 -0.0251  0.1400
 5774W        W25308   0.176   3.004  13.855 -0.1126 -0.0299  0.1439
 5775W        W25309  13.304  12.856  14.593  0.1006 -0.1712  0.2978
 5776W        W25310   8.948   9.086   4.358  0.0442 -0.0707  0.4022
 5777W        W25311   7.117   2.460   5.928  0.2705 -0.0561  0.1690
 5778W        W25312  14.642   0.566   3.145  0.1451 -0.0547  0.1302
 5779W        W25313   7.826  17.106  14.320 -0.1659  0.1241  0.1410
 5780W        W25314  15.272  15.967   5.025  0.1251 -0.2662 -0.2982
 5781W        W25315   0.479   2.777   0.593 -0.0765 -0.0026  0.0257
 5782W        W25316  15.774   1.254   4.029  0.0570  0.1270 -0.3285
 5783W        W25317   3.938  14.837  16.226 -0.0567 -0.2326 -0.1490
 5784W        W25318  10.619  14.775  14.748  0.0790  0.1978  0.1618
 5785W        W25319  12.319   1.635  17.095 -0.0394 -0.1566 -0.2022
 5786W        W25320  17.319   6.614  16.150 -0.0956 -0.1233 -0.2751
 5787W        W25321  10.311  10.503   2.048  0.2246  0.0428 -0.0266
 5788W        W25322   7.629  13.633  12.741 -0.0303 -0.1700 -0.1185
 5789W        W25323  11.236   0.382   0.855 -0.0769  0.0419  0.0275
 5790W        W25324   0.582  14.400  17.176  0.1840  0.2579 -0.0358
 5791W        W25325   7.969   6.351   0.284  0.3540 -0.1119  0.0018
 5792W        W25326   9.826   3.003   3.049  0.3188 -0.1279 -0.1209
 5793W        W25327   3.749  12.693  13.540 -0.1625  0.2856 -0.4354
 5794W        W25328  12.097   8.670   1.689  0.0356  0.0100  0.2870
 5795W        W25329  14.262  17.141  12.635 -0.2130  0.0984  0.2560
 5796W        W25330   7.177   3.192  14.470  0.2172  0.0045 -0.0343
 5797W        W25331   4.721   4.965   3.322 -0.4198  0.0154  0.0823
 5798W        W25332   1.634  16.222   2.670  0.1373 -0.0158  0.1396
 5799W        W25333   0.283   9.567   4.036  0.0976  0.1546  0.0566
 5800W        W25334  16.826   7.746   3.703 -0.1782  0.0201 -0.0184
 5801W        W25335  11.943   4.389  14.526  0.0619  0.2850  0.0522
 5802W        W25336   1.245   1.878   1.046  0.2387 -0.2659 -0.1475
 5803W        W25337   3.175   3.810  14.297 -0.2541  0.0090  0.2192
 5804W        W25338   4.996   7.006  13.301 -0.0573 -0.1857 -0.0835
 5805W        W25339  11.657  11.042   3.575  0.4473 -0.0829  0.0257
 5806W        W25340   4.868   0.319   1.242 -0.0799 -0.0868 -0.2404
 5807W        W25341   4.912   4.715  17.086  0.0395  0.1142 -0.2717
 5808W        W25342  16.606   6.364  15.168 -0.1695 -0.0550  0.0781
 5809W        W25343  12.007  12.275  14.446  0.1137  0.1652  0.2566
 5810W        W25344   3.286   5.170  16.926  0.2150 -0.3437 -0.1051
 5811W        W25345  10.029  13.379  16.264 -0.0199  0.0700  0.0499
 5812W        W25346  15.972   4.277  15.674  0.0366 -0.0026 -0.0037
 5813W        W25347  10.272  14.643  17.067  0.0870 -0.2651  0.2369
 5814W        W25348   1.776   1.533   3.918 -0.1530  0.0341  0.0164
 5815W        W25349  13.759  11.704  15.558  0.0525 -0.0331 -0.0360
 5816W        W25350   9.254   0.117  15.885  0.0439  0.0106  0.0261
 5817W        W25351   5.621   6.820  12.797 -0.0146  0.0276  0.1503
 5818W        W25352   3.131  14.083  16.700  0.0458  0.1815 -0.0256
 5819W        W25353   6.065  15.096  15.378  0.0472  0.0877 -0.2335
 5820W        W25354  15.691   2.207  13.748  0.1125  0.1117 -0.3019
 5821W        W25355  12.020  16.733  14.169  0.1635  0.3557 -0.0012
 5822W        W25356  14.573   6.213  13.153  0.0911 -0.0973 -0.1490
 5823W        W25357  11.728   0.766  13.806  0.0981  0.0380 -0.0907
 5824W        W25358  15.509   7.499  14.314 -0.1237 -0.0204  0.0500
 5825W        W25359   2.447   0.457  15.999 -0.0319  0.3393  0.1797
 5826W        W25360   4.417   7.742   3.527 -0.1142 -0.1752  0.1641
 5827W        W25361   0.004   4.475  15.155  0.0109  0.2039  0.3013
 5828W        W25362   1.061  11.310  17.265  0.3265  0.0019  0.0836
 5829W        W25363  13.786   0.803  15.879  0.0949  0.1976  0.1403
 5830W        W25364   2.884   6.569   4.874  0.0077  0.4515  0.2238
 5831W        W25365   7.372   8.969  16.212  0.1647  0.2129 -0.0486
 5832W        W25366   9.488   3.201   0.719  0.0960  0.1855  0.1113
 5833W        W25367   6.315  12.231   0.938 -0.1216  0.0424 -0.0280
 5834W        W25368  13.812   9.376  12.382 -0.0565 -0.0826  0.1461
 5835W        W25369  14.255   3.517   2.825  0.1782  0.1633  0.2571
 5836W        W25370  11.770   0.455   0.749  0.0422 -0.1923 -0.2922
 5837W        W25371  14.470  11.011  12.283 -0.0029  0.1013 -0.0204
 5838W        W25372  12.714   4.980  15.443 -0.1506 -0.1334  0.0643
 5839W        W25373   5.031  16.141   0.845 -0.0709 -0.3272 -0.0384
 5840W        W25374  15.757   9.185  13.252 -0.1527 -0.0572  0.0561
 5841W        W25375  17.433  15.227   0.024  0.0306 -0.3989 -0.1536
 5842W        W25376   9.141  11.918   4.705  0.0286 -0.4443  0.1268
 5843W        W25377   0.250   6.785   0.997 -0.1292  0.0542  0.0287
 5844W        W25378   0.457   7.536  15.764  0.0453  0.0477  0.1468
 5845W        W25379  13.723  10.012   1.585  0.2350 -0.0964 -0.0261
 5846W        W25380  14.872   7.449  13.749  0.0704  0.1659  0.3195
 5847W        W25381  16.501   9.433   2.103  0.0767 -0.3625  0.0888
 5848W        W25382  11.193   9.372   5.245 -0.3747  0.0611 -0.0471
 5849W        W25383  12.558   6.963   4.462  0.1469  0.1677  0.1046
 5850W        W25384  10.744   6.849   3.755  0.2784  0.2583  0.0582
 5851W        W25385   4.308   6.457   2.470 -0.2151  0.3490 -0.0884
 5852W        W25386   5.767   1.212  14.194 -0.0043  0.2278 -0.1477
 5853W        W25387  12.927   5.149   1.958  0.0338 -0.1725 -0.1729
 5854W        W25388   9.799  15.922   3.615  0.4455  0.0565 -0.1056
 5855W        W25389  13.216  17.320   0.174  0.0864 -0.1187  0.0424
 5856W        W25390   4.358   1.413  12.058 -0.0872 -0.1436  0.1776
 5857W        W25391   5.319   5.815  12.880  0.0981 -0.2039 -0.0164
 5858W        W25392   5.600   6.535   4.124  0.0476 -0.2004 -0.1239
 5859W        W25393   1.978  14.005  13.932  0.1349  0.0544  0.0142
 5860W        W25394  11.790   5.912   4.201  0.1996  0.4104 -0.1084
 5861W        W25395  12.285  10.982  17.114  0.0895 -0.0369  0.0600
 5862W        W25396   4.150  17.453  16.489  0.0037 -0.2746 -0.0815
 5863W        W25397   8.726   4.244   2.294  0.0492 -0.2160  0.1177
 5864W        W25398   9.330   7.389   1.585  0.0742  0.0739  0.0581
 5865W        W25399  16.911  16.999   4.802 -0.1954  0.2070 -0.0473
 5866W        W25400   1.942  12.474  12.598  0.0900 -0.0769  0.0569
 5867W        W25401  16.177  16.444   1.524  0.1969  0.2793 -0.0914
 5868W        W25402   4.521   2.290  16.955  0.2141 -0.0467 -0.3707
 5869W        W25403   7.814   2.698  12.973 -0.1735  0.1862  0.1195
 5870W        W25404   2.576  11.802   4.894  0.2182  0.1258  0.1030
 5871W        W25405   7.852  13.073   1.505 -0.0814 -0.1554 -0.0242
 5872W        W25406   9.353   9.233  15.719  0.0445 -0.1148 -0.2847
 5873W        W25407  10.605   4.573   1.699  0.2340  0.0368  0.2143
 5874W        W25408   3.901   8.973   0.945  0.0260 -0.0625 -0.1399
 5875W        W25409  15.531   8.710   4.316  0.1440 -0.2232  0.2704
 5876W        W25410  13.151  10.515  16.733 -0.4025  0.0497 -0.1323
 5877W        W25411  10.151  14.909   3.344  0.0933  0.0036 -0.0441
 5878W        W25412   7.340  16.514  15.457 -0.3192 -0.1662 -0.1178
 5879W        W25413  16.447   6.811  17.274  0.0054  0.0660 -0.0996
 5880W        W25414   0.691  15.372  13.350  0.0270 -0.2053 -0.2207
 5881W        W25415  10.588  13.781  16.524 -0.0097  0.3082 -0.3824
 5882W        W25416   2.007   5.144  14.076 -0.0082 -0.1274  0.0429
 5883W        W25417   8.614   9.457   1.199  0.1897 -0.0166 -0.0654
 5884W        W25418  13.620  10.716   5.088  0.0125  0.1473  0.2779
 5885W        W25419   0.144  16.459   2.949 -0.1803  0.0680 -0.2196
 5886W        W25420   2.536  14.714  15.111  0.2982 -0.0187  0.1982
 5887W        W25421  11.005   4.146   3.585  0.1785 -0.2429 -0.0919
 5888W        W25422   8.681  16.591   1.787 -0.1166  0.1275  0.0950
 5889W        W25423  12.191   7.013  12.479  0.0068 -0.0276  0.1698
 5890W        W25424  17.265   4.598   1.569 -0.1162  0.0196  0.1715
 5891W        W25425   6.949   9.485  14.334 -0.0917 -0.2068 -0.1331
 5892W        W25426  14.338  15.377  15.772 -0.0398 -0.0908  0.1642
 5893W        W25427  16.162   5.494  12.831 -0.2282 -0.1301  0.1885
 5894W        W25428  16.524  12.341  17.061 -0.3214  0.3206  0.1170
 5895W        W25429  16.086   3.633  16.882  0.0735 -0.0116 -0.0421
 5896W        W25430   9.565  10.248  14.934 -0.3126  0.2321  0.0605
 5897W        W25431  14.529  16.064   1.696  0.1888  0.0244  0.2191
 5898W        W25432   3.207  17.136   1.186 -0.1287  0.3332 -0.2503
 5899W        W25433  12.243   2.407  16.132  0.0403  0.1450  0.0526
 5900W        W25434   3.074   6.706   1.087 -0.0308 -0.1826  0.0568
 5901W        W25435   4.054  12.539   2.961  0.1720 -0.3751 -0.1017
 5902W        W25436   0.869   1.981  12.142 -0.3652 -0.3613  0.0139
 5903W        W25437  16.166   2.788  14.475  0.0205 -0.0018  0.0283
 5904W        W25438   4.052  13.186   1.078 -0.1327 -0.2751 -0.0565
 5905W        W25439  13.385   3.691   3.861  0.1350 -0.4052  0.4719
 5906W        W25440   0.757  12.692   2.356  0.1636 -0.0652 -0.1438
 5907W        W25441   2.217  15.601   0.223  0.0884 -0.2764  0.2360
 5908W        W25442   5.706  17.246   2.849  0.1811 -0.1059 -0.2132
 5909W        W25443   4.022  11.640   5.212  0.1484 -0.0607  0.2435
 5910W        W25444   4.466  16.508  12.071 -0.1255 -0.1228 -0.2329
 5911W        W25445   7.802  14.923   2.328 -0.1275  0.2130 -0.1033
 5912W        W25446   1.923   7.279  15.310  0.2326 -0.0774 -0.0287
 5913W        W25447  15.071  11.866  15.104  0.0050  0.3809  0.1688
 5914W        W25448   9.857  16.790  17.075 -0.0714 -0.0754 -0.0366
 5915W        W25449   6.049   7.551   1.884  0.1942 -0.0062 -0.1224
 5916W        W25450  13.440   6.428   3.531  0.2662  0.0784  0.0859
 5917W        W25451  15.417   3.289  13.869 -0.0052 -0.0601  0.0526
 5918W        W25452  11.318   7.723  14.643  0.0631  0.1177  0.0278
 5919W        W25453   5.340  14.244  12.285  0.0623  0.3604 -0.1391
 5920W        W25454  10.376   9.403   5.815 -0.1138  0.1097  0.1289
 5921W        W25455  10.221  13.847   1.096  0.3292 -0.0718  0.2488
 5922W        W25456   7.903   7.142  14.462 -0.1483  0.0270 -0.0630
 5923W        W25457   3.395  17.001  15.372 -0.2028 -0.0854  0.2972
 5924W        W25458  12.488  13.308  13.144 -0.0729  0.0186  0.1117
 5925W        W25459  16.822   1.143   1.005 -0.0908  0.1057  0.0334
 5926W        W25460  12.163  14.717   1.624 -0.0904 -0.0915 -0.0437
 5927W        W25461  16.459   7.870  15.250  0.2657 -0.0167  0.1045
 5928W        W25462  11.443   3.748   5.042 -0.2360  0.0477 -0.0293
 5929W        W25463  13.180   1.914   2.824 -0.0924  0.0952  0.0254
 5930W        W25464  17.380   0.806  13.283  0.1798 -0.1514 -0.1669
 5931W        W25465   0.026  14.861   1.294  0.0093  0.0794  0.1294
 5932W        W25466   3.145   5.740  13.706 -0.0007  0.0864 -0.0579
 5933W        W25467  17.210  12.723   4.074  0.3119 -0.0319  0.0889
 5934W        W25468   8.364   6.425  14.574 -0.0583  0.1264  0.1783
 5935W        W25469  11.228   8.267  15.361 -0.1537 -0.0168 -0.0075
 5936W        W25470  12.000   8.215   4.972 -0.1742  0.0666  0.0206
 5937W        W25471  11.652   5.265  13.365 -0.1999  0.3845  0.3882
 5938W        W25472   7.260  14.566  13.185  0.0589  0.2747 -0.1528
 5939W        W25473   4.807  14.358  16.240  0.1919 -0.1071  0.1944
 5940W        W25474   2.230   0.122  15.066  0.3511 -0.1520  0.3060
 5941W        W25475   3.086   9.301  12.867 -0.0778  0.2438 -0.2936
 5942W        W25476  11.426   9.772   4.346 -0.1278  0.4007  0.2041
 5943W        W25477  15.429  12.450  14.377 -0.1979 -0.0143 -0.4118
 5944W        W25478   1.863  15.354  15.818 -0.1905 -0.1795 -0.0383
 5945W        W25479  11.744   5.618  16.304  0.3623  0.1532  0.0559
 5946W        W25480  13.513   8.710   0.972  0.0194 -0.1349  0.2397
 5947W        W25481   4.106   2.515  13.511 -0.0931 -0.1686  0.0263
 5948W        W25482  10.784   8.140   2.617  0.0034  0.0268 -0.0969
 5949W        W25483   6.751  10.858   3.041 -0.3866  0.1652  0.1084
 5950W        W25484  17.339   8.097   4.346 -0.0897  0.1669 -0.1091
 5951W        W25485   8.236   4.978  14.188 -0.0155 -0.2613 -0.0150
 5952W        W25486  16.160  11.216  12.428  0.2915 -0.0083 -0.0106
 5953W        W25487  13.725   8.438   0.630  0.4597 -0.1271  0.2711
 5954W        W25488  14.476  15.409   3.298  0.3855  0.0784 -0.1101
 5955W        W25489   1.277  10.323  13.673  0.1104 -0.0425  0.2236
 5956W        W25490   0.015   7.211   3.906  0.2736 -0.0881  0.0982
 5957W        W25491  15.723   3.926   3.868 -0.3920  0.0624  0.2052
 5958W        W25492   8.471  14.414  13.243  0.1605  0.0937  0.0239
 5959W        W25493   0.291  13.727  12.053 -0.1156  0.0278  0.0582
 5960W        W25494   0.712  17.125   1.112 -0.2371 -0.0459  0.0010
 5961W        W25495   5.872   3.265  15.347 -0.0471  0.0882  0.0607
 5962W        W25496  12.363  16.222   1.297 -0.0645 -0.2677  0.0207
 5963W        W25497  14.242  15.115   3.704 -0.1083 -0.2003 -0.0918
 5964W        W25498   0.419   2.075   5.207  0.0311 -0.1812 -0.0647
 5965W        W25499   9.349   8.553   5.000 -0.1272 -0.2390  0.1114
 5966W        W25500   3.233  11.763  13.840 -0.0498  0.2711 -0.1144
 5967W        W25501  16.927  13.353  14.034 -0.0220  0.2488  0.0394
 5968W        W25502  12.460   3.607  16.384 -0.1701  0.1127 -0.0253
 5969W        W25503  10.969   1.059  14.782 -0.0990 -0.0521  0.0081
 5970W        W25504   7.955  16.084   2.775 -0.0919  0.0198  0.0581
 5971W        W25505   3.303   2.655  16.936  0.0099  0.1333  0.0638
 5972W        W25506   9.796   8.870   0.399 -0.0012  0.2376 -0.1185
 5973W        W25507   4.388   6.009   2.713  0.4691 -0.2260 -0.0309
 5974W        W25508  16.721  12.996   2.295  0.2781 -0.1203  0.4083
 5975W        W25509   7.266   9.797  13.567 -0.1339  0.1498 -0.3314
 5976W        W25510  12.371   8.384   4.683 -0.4904  0.2338  0.0419
 5977W        W25511   2.277  13.629  13.753  0.0089 -0.0233 -0.0608
 5978W        W25512   6.409  11.887  17.152  0.3826  0.2439 -0.3723
 5979W        W25513   5.628   9.698  12.575  0.2540  0.0141 -0.1426
 5980W        W25514   8.511   9.602  15.813  0.1639 -0.1859  0.2893
 5981W        W25515   2.381   3.945   4.949  0.0975 -0.0611 -0.1884
 5982W        W25516  15.529  12.497  14.864 -0.2278 -0.1493  0.0587
 5983W        W25517   8.511   7.256   1.621 -0.0221  0.0502  0.1161
 5984W        W25518   6.304   5.729   1.895 -0.1492 -0.2089  0.1052
 5985W        W25519   7.783   9.171  13.876  0.1161  0.0831  0.0419
 5986W        W25520   9.055  12.063  15.693  0.0004 -0.0291  0.0274
 5987W        W25521  15.612  15.005   4.224 -0.1941  0.0329  0.0095
 5988W        W25522   5.494   3.175   0.731 -0.0627 -0.2244 -0.0520
 5989W        W25523   7.332   0.996  16.000 -0.3819 -0.0052  0.4108
 5990W        W25524  15.375   9.723  17.061 -0.0781  0.1025 -0.1451
 5991W        W25525   1.842  17.148   2.711 -0.0601  0.2588  0.0787
 5992W        W25526  14.737  13.975   3.996 -0.0989 -0.0263  0.1446
 5993W        W25527   4.425  14.503  12.205  0.2003  0.0064  0.2682
 5994W        W25528   3.831  16.591  14.848 -0.1217 -0.2181 -0.0031
 5995W        W25529   1.716   0.013  16.190 -0.1285  0.1884 -0.1920
 5996W        W25530   4.264   2.130   2.278  0.4465 -0.0599  0.1362
 5997W        W25531   2.269   1.585   1.544 -0.2071 -0.0867 -0.1313
 5998W        W25532  14.666  12.184   1.496 -0.0288  0.0162 -0.0752
 5999W        W25533  10.862   6.852   2.766  0.0855  0.2480 -0.1450
 6000W        W25534  16.409   3.236  14.319  0.1283  0.1871 -0.0707
 6001W        W25535  16.267   3.238  12.868  0.3282  0.1343 -0.2418
 6002W        W25536  11.904   1.343   3.284  0.1472  0.0439  0.2360
 6003W        W25537  10.662  15.590   3.728  0.0091 -0.0860  0.4989
 6004W        W25538  17.099   6.410  15.797  0.4274 -0.0925 -0.0295
 6005W        W25539  16.113   1.314   0.103 -0.2384 -0.0915  0.0416
 6006W        W25540   6.589  11.142  16.651  0.1164 -0.0853  0.0036
 6007W        W25541   5.441   4.267  14.297 -0.0204 -0.1152  0.0120
 6008W        W25542  16.770   0.933  12.475 -0.6669 -0.1533  0.1066
 6009W        W25543   9.198  14.310  12.363  0.0045 -0.0754 -0.0760
 6010W        W25544   0.005   2.304   0.501  0.1051 -0.3144  0.3338
 6011W        W25545   0.437  11.259   3.585 -0.1673 -0.0063 -0.2306
 6012W        W25546  16.353   6.976  16.298 -0.3302  0.1810 -0.3540
 6013W        W25547   7.026   1.663  14.070  0.5450 -0.2921 -0.0479
 6014W        W25548   1.671   4.551   3.475 -0.1780  0.1409  0.1528
 6015W        W25549  16.954   3.868   1.719  0.0255  0.0415 -0.1714
 6016W        W25550   0.314  16.483   3.967 -0.4106  0.1592 -0.1279
 6017W        W25551   5.743   8.747  14.169 -0.1788 -0.1233 -0.1521
 6018W        W25552  17.436   4.159  17.171  0.1009  0.2003 -0.0317
 6019W        W25553  15.004  13.714  12.636 -0.0515 -0.0866  0.1000
 6020W        W25554  13.941   5.074  14.177  0.3059 -0.0622  0.1447
 6021W        W25555   4.297   3.929   3.123 -0.0732 -0.3698 -0.3385
 6022W        W25556  16.673  11.768  16.483  0.2197 -0.0419  0.0461
 6023W        W25557   7.030   3.102   4.776  0.2300 -0.1264  0.0630
 6024W        W25558   3.649   4.539   5.311 -0.2649  0.1737 -0.0286
 6025W        W25559   2.810   7.988   2.825  0.2459  0.1434  0.0382
 6026W        W25560  10.766  16.570   2.707 -0.4206  0.0188  0.3025
 6027W        W25561  16.602   1.694   1.259 -0.2139  0.1112  0.1443
 6028W        W25562   8.727  10.007  16.971 -0.1559  0.1033 -0.2981
 6029W        W25563   9.994   1.469  14.293 -0.2794  0.1085  0.1599
 6030W        W25564  14.714  13.007  15.810  0.2887  0.1960 -0.2283
 6031W        W25565  16.771   9.945   3.127 -0.2544  0.1589 -0.0178
 6032W        W25566  12.414   3.511   0.176 -0.4449 -0.2831  0.1703
 6033W        W25567   4.480   7.483  15.912  0.2183 -0.0941  0.0666
 6034W        W25568   0.689  13.379  14.888 -0.1876  0.0451  0.0572
 6035W        W25569   7.413  13.900   4.737  0.3023 -0.3692 -0.2497
 6036W        W25570  14.279   0.633  13.694  0.0427 -0.2203 -0.0531
 6037W        W25571  14.060   7.318  13.961 -0.0441 -0.0502 -0.1818
 6038W        W25572   5.887   7.238  13.706  0.0909 -0.1232  0.1762
 6039W        W25573  16.478   6.202   0.786  0.2486 -0.2032  0.0568
 6040W        W25574   0.883   1.075   3.336 -0.0905 -0.0651 -0.1892
 6041W        W25575   9.482  15.246  14.090  0.0464 -0.0485 -0.1879
 6042W        W25576   0.006   9.807  13.727 -0.0603 -0.0549 -0.0082
 6043W        W25577  10.627   4.938  14.368  0.0549 -0.2183  0.3180
 6044W        W25578  11.762  12.158   2.748 -0.0086 -0.0248  0.1595
 6045W        W25579   2.650  15.758   0.583 -0.1729 -0.0836  0.2133
 6046W        W25580  12.610   7.716  15.275  0.1814 -0.2923  0.3167
 6047W        W25581  16.626   5.429  12.491 -0.1942  0.1552 -0.1788
 6048W        W25582   7.728  17.235   1.249  0.2250 -0.0154  0.1660
 6049W        W25583   6.613   8.982   3.371 -0.3311  0.3721 -0.2391
 6050W        W25584   5.584   1.497  14.671  0.2637 -0.1503 -0.0151
 6051W        W25585   9.194   5.872  15.505  0.0952 -0.1496  0.0171
 6052W        W25586  13.202  15.390   3.608 -0.1034 -0.0733 -0.0871
 6053W        W25587   6.094   9.899   0.187  0.1916 -0.3347 -0.2729
 6054W        W25588  10.894   3.060  15.451 -0.1853 -0.2019 -0.0430
 6055W        W25589   6.040   6.666  16.411  0.3000  0.0090  0.2462
 6056W        W25590  14.608  11.901   0.127  0.3536 -0.0573  0.1523
 6057W        W25591  11.909   1.669  15.775  0.1347 -0.4748  0.2318
 6058W        W25592  17.051   2.278   3.304  0.0339  0.2108  0.1543
 6059W        W25593   9.153  14.135  16.396  0.0112  0.0126  0.1521
 6060W        W25594  11.571   5.505   3.340 -0.1422  0.1688 -0.2311
 6061W        W25595   2.031   9.657   0.711 -0.0177 -0.1674 -0.0800
 6062W        W25596  15.341   8.169  12.105 -0.0653 -0.0915  0.0506
 6063W        W25597   3.357  16.604  12.996  0.1330 -0.0272  0.1325
 6064W        W25598  17.376  11.571  16.114  0.0995  0.1198 -0.1977
 6065W        W25599   0.824  16.819  12.784 -0.1702  0.2060  0.2109
 6066W        W25600  15.900  11.309   0.221  0.3993 -0.1046  0.0567
 6067W        W25601   0.424  14.434  14.862  0.1045 -0.0847  0.0718
 6068W        W25602  17.223  10.154   3.937 -0.1063 -0.0128 -0.3865
 6069W        W25603  13.585   9.496  15.731 -0.0398  0.0666 -0.1335
 6070W        W25604   8.617   6.502   3.820  0.2971 -0.1415  0.2951
 6071W        W25605   2.201  10.535   3.472  0.3102 -0.3092  0.0219
 6072W        W25606   2.882   6.471  14.754  0.0556 -0.1154 -0.0470
 6073W        W25607   2.420   6.389   2.780 -0.0110  0.0699  0.1877
 6074W        W25608   2.942  15.852  12.761  0.1268 -0.1151 -0.0989
 6075W        W25609   4.240  13.637  12.230  0.2752  0.1600  0.0103
 6076W        W25610   6.444   0.773   0.831  0.2310 -0.2400 -0.0399
 6077W        W25611  17.172   9.654   4.936 -0.3573 -0.1674 -0.1359
 6078W        W25612   2.884  16.584   3.759 -0.3128  0.3779 -0.0613
 6079W        W25613  14.025   6.013  13.831  0.2514 -0.0871 -0.1656
 6080W        W25614  13.310   1.063   3.457  0.0928 -0.1312  0.1537
 6081W        W25615   7.712  12.382  12.914  0.1754  0.0291 -0.0630
 6082W        W25616  14.711  14.693   2.625  0.0150 -0.1176  0.0467
 6083W        W25617   7.438   9.908   3.523  0.0154  0.0732  0.2485
 6084W        W25618   9.487   2.398   2.215 -0.1298 -0.2470 -0.1884
 6085W        W25619   4.664   1.881   2.465 -0.1978 -0.2731 -0.0924
 6086W        W25620  16.154  17.180  15.355  0.2764  0.1317  0.0269
 6087W        W25621   9.523  17.060  13.585 -0.0408  0.1790 -0.0609
 6088W        W25622  11.288  12.621   1.801 -0.2584  0.2318  0.0898
 6089W        W25623  13.689  10.033  12.532 -0.0476  0.1727 -0.0725
 6090W        W25624   8.109   8.840   0.135 -0.2930 -0.0505 -0.1305
 6091W        W25625  13.879   8.855   3.043 -0.1872 -0.1279  0.2803
 6092W        W25626   4.020   2.257   5.438 -0.3667 -0.0146  0.1244
 6093W        W25627   1.384  11.474  13.323 -0.0365 -0.0727  0.3038
 6094W        W25628   1.115   4.078   5.275 -0.1558  0.2097 -0.0783
 6095W        W25629   0.764   5.041  12.939 -0.0720 -0.3318  0.1716
 6096W        W25630   2.472  15.228   2.737 -0.2034 -0.0707  0.0955
 6097W        W25631   2.471   6.290  17.033  0.1233  0.0427 -0.2166
 6098W        W25632   5.846   8.552  13.685  0.2097  0.0590  0.0602
 6099W        W25633   0.385   7.662   2.062 -0.1997  0.3374  0.1341
 6100W        W25634  16.452   2.428  15.256 -0.1670  0.2490 -0.1505
 6101W        W25635   7.368   1.893  17.119 -0.0178  0.0724  0.0334
 6102W        W25636   7.814  10.907   3.203 -0.1426 -0.1519  0.1536
 6103W        W25637  16.971   2.746  15.950 -0.0603  0.0174  0.1151
 6104W        W25638   3.190   5.024  14.927  0.1252  0.1864 -0.0345
 6105W        W25639   5.529   6.335  12.269 -0.0484  0.0211  0.1805
 6106W        W25640   5.170  12.261  14.097 -0.0332 -0.1000  0.1373
 6107W        W25641  10.607  16.210  16.766 -0.1171 -0.1621  0.0526
 6108W        W25642  11.221   5.849   5.193  0.1077  0.3682  0.1880
 6109W        W25643   8.818   3.995   0.528 -0.1170 -0.0739 -0.1062
 6110W        W25644   3.953   6.786  12.425 -0.2296 -0.0925 -0.0187
 6111W        W25645  13.265  10.638   4.373 -0.0854  0.0578 -0.0622
 6112W        W25646   4.969   8.618   4.363 -0.0097 -0.2360 -0.2829
 6113W        W25647  14.716  13.730  17.168 -0.1670  0.2668  0.0787
 6114W        W25648   7.786   8.942  16.542 -0.3502 -0.0846  0.0469
 6115W        W25649   7.915   1.996   4.863  0.0427  0.1638  0.0735
 6116W        W25650  14.627  12.008  15.810 -0.2273  0.1797  0.1520
 6117W        W25651  10.261   6.769  14.475 -0.0520  0.1571 -0.0908
 6118W        W25652   9.332   1.623  15.028  0.1083 -0.1515 -0.0636
 6119W        W25653  12.495   6.682   1.339 -0.3374  0.0180  0.0647
 6120W        W25654  16.781   8.765   0.239  0.0144  0.0226 -0.1642
 6121W        W25655   8.194  15.347  13.858 -0.2618 -0.0618 -0.2807
 6122W        W25656   4.041  15.276   3.516 -0.3449 -0.0003  0.2607
 6123W        W25657  15.007  16.197   3.905 -0.3155 -0.0184  0.2473
 6124W        W25658   4.256  15.219  16.177 -0.1179  0.1536  0.2037
 6125W        W25659  17.168   2.444   4.071 -0.1626  0.1165 -0.2072
 6126W        W25660   8.408   9.957  12.904 -0.1478  0.0848  0.0551
 6127W        W25661   4.706   4.747   3.813 -0.0475  0.0479 -0.0622
 6128W        W25662  14.177   8.967  12.845 -0.1072 -0.2133 -0.1435
 6129W        W25663  14.997  17.368  16.307 -0.1527  0.1893 -0.2950
 6130W        W25664  12.070   3.048   0.044 -0.0719 -0.2093  0.1169
 6131W        W25665   0.954   9.196  12.529 -0.2004  0.1538 -0.0671
 6132W        W25666   3.603   9.060  17.297  0.0109  0.1394 -0.1978
 6133W        W25667  14.566   9.720   2.597  0.0547 -0.1713 -0.3489
 6134W        W25668   8.395   8.138   5.231  0.1771  0.1259 -0.1287
 6135W        W25669   8.975   6.507   1.707  0.0311 -0.1201  0.3271
 6136W        W25670   5.854   9.723  13.527 -0.4662  0.0072  0.2590
 6137W        W25671   1.828  13.264   1.347  0.1537 -0.3092  0.1603
 6138W        W25672  15.165  15.313  15.831  0.2654 -0.1203  0.2932
 6139W        W25673   3.805  15.336  17.296 -0.2455  0.1274 -0.0211
 6140W        W25674  11.725  10.263   1.744  0.0514 -0.1227 -0.0771
 6141W        W25675   4.404  11.249   0.616 -0.3140  0.2959  0.1124
 6142W        W25676   4.330  11.925   2.814 -0.3214  0.0832 -0.1863
 6143W        W25677   8.043  12.121  15.048 -0.2015  0.0180 -0.0652
 6144W        W25678   8.646   2.159  15.050  0.1436 -0.0718  0.2881
 6145W        W25679  16.534  10.039  13.802 -0.2329 -0.0774 -0.1988
 6146W        W25680  10.289  16.812   3.732  0.0573 -0.3814 -0.1184
 6147W        W25681   3.995   5.778   4.804 -0.1446  0.1847  0.2082
 6148W        W25682   5.624   3.605   5.303  0.0799  0.0442 -0.0090
 6149W        W25683   6.767   3.534   3.737 -0.1942  0.0828  0.0176
 6150W        W25684   9.885   7.193  14.192 -0.0125  0.0029 -0.1727
 6151W        W25685  15.231  14.795  17.239 -0.0091  0.3092  0.1428
 6152W        W25686   0.182  16.856   5.418 -0.3717 -0.1395 -0.1710
 6153W        W25687  13.785   5.370  14.737 -0.2013  0.0716  0.2502
 6154W        W25688  16.815   8.811   1.564  0.4001 -0.2131 -0.0406
 6155W        W25689  10.996   9.352   2.559 -0.3382 -0.2695 -0.3594
 6156W        W25690   6.281  12.518   2.839 -0.2647 -0.2234 -0.0549
 6157W        W25691   1.751   8.942  12.988  0.0136 -0.0151 -0.0032
 6158W        W25692   2.138   5.226  13.060  0.4350 -0.1060 -0.0598
 6159W        W25693   0.123   1.886   4.831 -0.0727  0.1998  0.1802
 6160W        W25694  10.734  15.103   0.582  0.0610  0.0250 -0.1282
 6161W        W25695   5.955  11.119   1.404 -0.0787  0.1877 -0.2162
 6162W        W25696   8.935   1.232   0.703 -0.1065 -0.3100  0.1639
 6163W        W25697   5.238  15.685  13.319 -0.0452  0.0117 -0.0552
 6164W        W25698  16.037  10.662  14.192 -0.2779  0.5342  0.1468
 6165W        W25699   5.686   2.975   4.002 -0.1046 -0.0169  0.3353
 6166W        W25700  16.244   9.318  13.480  0.1276 -0.0212 -0.3142
 6167W        W25701  14.230  17.298   0.433 -0.1629  0.0273  0.0721
 6168W        W25702   7.374   1.881   5.061  0.2524 -0.1770  0.0804
 6169W        W25703   4.025  15.266  16.596  0.2571 -0.0938  0.0474
 6170W        W25704   4.290  16.515   1.383  0.0643 -0.1288 -0.0657
 6171W        W25705   0.155  11.810  17.031  0.0279  0.0328  0.0615
 6172W        W25706   9.301  11.539   3.694 -0.0021 -0.0626 -0.2829
 6173W        W25707  14.486  13.555  12.865  0.0962 -0.0983  0.3548
 6174W        W25708   0.354   6.693  12.358 -0.0480 -0.2221 -0.0802
 6175W        W25709  17.343   9.598  14.550 -0.1039 -0.2978  0.0156
 6176W        W25710   3.653   7.822  13.530 -0.0840  0.0813 -0.0928
 6177W        W25711   1.032  10.839   4.114 -0.0708 -0.2718 -0.0329
 6178W        W25712  12.914  17.045   4.349  0.0183  0.1071 -0.0506
 6179W        W25713   8.288  15.231   3.180 -0.1145  0.0042 -0.0768
 6180W        W25714   9.221   2.157  16.874 -0.0195 -0.2793 -0.0597
 6181W        W25715   8.730   6.658   0.305 -0.3374  0.0368  0.1189
 6182W        W25716   0.783  10.473  15.627  0.2300  0.1766 -0.1254
 6183W        W25717   3.771   7.430  14.874  0.1928 -0.2215 -0.0939
 6184W        W25718  11.626  10.481   2.661  0.0650  0.0648  0.0233
 6185W        W25719  11.390   2.045   0.635 -0.0009  0.0707  0.2602
 6186W        W25720  17.388  11.105   1.041  0.1265  0.1491  0.1456
 6187W        W25721   1.411  13.799  11.313 -0.0343  0.3573  0.0088
 6188W        W25722  10.300  14.267   0.208  0.2485 -0.1522  0.2168
 6189W        W25723  10.530  17.383  17.199 -0.3792 -0.1412  0.0486
 6190W        W25724  14.008  13.944   2.544 -0.3023  0.2270  0.0030
 6191W        W25725   7.893   7.368  15.016 -0.2235 -0.3363  0.0255
 6192W        W25726   9.084   6.505   3.939 -0.0154  0.0781  0.1554
 6193W        W25727  14.616   4.945  17.248 -0.1694 -0.1764  0.0856
 6194W        W25728   8.901  12.221   3.366  0.3755  0.4639 -0.0957
 6195W        W25729   0.677   4.407  16.329 -0.2917  0.1474 -0.0079
 6196W        W25730   6.719  11.719  15.260  0.2689  0.0921 -0.1414
 6197W        W25731   9.224   5.159  16.592 -0.1621  0.0130 -0.1715
 6198W        W25732   1.164   6.244   4.211 -0.1561  0.0391  0.2727
 6199W        W25733  16.464  11.409   1.497 -0.0256 -0.0013 -0.1124
 6200W        W25734  13.486   5.268  12.419 -0.2750  0.2880  0.1326
 6201W        W25735  16.599   1.244  15.071  0.0118  0.0533  0.0265
 6202W        W25736  13.038   2.379   4.614 -0.0106  0.0437 -0.0718
 6203W        W25737   3.079   6.222  15.960 -0.0203  0.0729  0.0181
 6204W        W25738   6.799   7.715   3.367 -0.1889  0.0231 -0.0475
 6205W        W25739   9.287   4.119   0.659 -0.3654  0.2533 -0.4767
 6206W        W25740  17.087   6.676   3.186  0.2184 -0.0955  0.1961
 6207W        W25741  14.427  12.684   1.311 -0.0546 -0.1160 -0.2359
 6208W        W25742   4.278   2.764  15.711  0.2882 -0.1119  0.0964
 6209W        W25743   8.936   8.087   0.985 -0.2867  0.2316 -0.2064
 6210W        W25744  16.278   6.367  12.572  0.0702  0.1383  0.0815
 6211W        W25745  15.595   2.843   2.375  0.3094 -0.0095  0.2036
 6212W        W25746   0.637   5.080  13.410 -0.0562 -0.1425 -0.0981
 6213W        W25747  16.357  14.841   4.426 -0.2177 -0.1275 -0.2435
 6214W        W25748   5.203   6.642  16.930 -0.2072 -0.2844  0.1138
 6215W        W25749  12.139  12.678  16.823 -0.3968  0.0498  0.1754
 6216W        W25750  12.355   9.293  16.927  0.2792 -0.2815 -0.0005
 6217W        W25751   9.003   4.875  15.489  0.0127  0.1373  0.0959
 6218W        W25752   6.168   6.515   3.910 -0.1586 -0.3113 -0.2834
 6219W        W25753   2.950  12.697  14.029 -0.0871  0.2053  0.2929
 6220W        W25754   1.178   4.972   5.030  0.1408  0.0068 -0.1319
 6221W        W25755  13.049   3.997   2.302 -0.2071 -0.0604  0.1801
 6222W        W25756  12.981   2.731  15.899 -0.0900  0.2413 -0.3561
 6223W        W25757   9.683   1.669  13.450 -0.1085  0.2553 -0.0568
 6224W        W25758   2.565   6.183   2.301 -0.1429  0.0723 -0.1491
 6225W        W25759   2.750   3.618  16.672  0.1288 -0.0501 -0.0489
 6226W        W25760   8.118   9.740   4.874 -0.0131  0.2565  0.0320
 6227W        W25761   4.177  14.770   0.559  0.0566  0.2055 -0.2563
 6228W        W25762  14.301   6.836   0.203  0.0237  0.2921  0.2325
 6229W        W25763  16.277  12.870   3.061  0.0782 -0.1224  0.1537
 6230W        W25764  16.681  11.572   0.151 -0.2759  0.1204  0.1194
 6231W        W25765   2.053   3.817  13.154 -0.0328  0.0079  0.3121
 6232W        W25766   0.174   9.467  14.190  0.2213  0.1360 -0.2088
 6233W        W25767   0.937  15.298   3.115 -0.0276  0.0714  0.1189
 6234W        W25768  13.127   2.140   3.286 -0.1816 -0.0747  0.0859
 6235W        W25769   4.036   1.998   1.283 -0.0771  0.2254 -0.2670
 6236W        W25770  13.949  10.111  16.236  0.2090  0.0603  0.0028
 6237W        W25771   6.859   8.064   2.108 -0.3216  0.0411 -0.1077
 6238W        W25772   5.552   8.520  14.576 -0.4166 -0.1170  0.1025
 6239W        W25773  11.541  11.908  15.524 -0.3988 -0.2323  0.0400
 6240W        W25774  16.720   3.635   3.537 -0.0248  0.1421 -0.2793
 6241W        W25775   7.270   9.229  11.721  0.1021  0.0282 -0.2346
 6242W        W25776  15.512  16.286   0.688  0.1158 -0.1529 -0.2010
 6243W        W25777  10.322  15.434   0.668 -0.1378  0.0137 -0.1459
 6244W        W25778  12.189  10.744   0.247  0.0090 -0.0501  0.0967
 6245W        W25779  12.350  11.225   2.085 -0.0741 -0.1740  0.2855
 6246W        W25780  15.722   9.256  12.804  0.0944 -0.1182  0.1397
 6247W        W25781  17.207   1.279   0.090 -0.0330 -0.0749 -0.0615
 6248W        W25782  10.347   7.741  15.664 -0.1459 -0.2395 -0.3659
 6249W        W25783   6.832  11.211  12.273 -0.3556 -0.0587 -0.0906
 6250W        W25784  14.863  15.215  13.453  0.1457 -0.1071  0.0606
 6251W        W25785   8.127   7.304   3.455 -0.1893  0.0322  0.2520
 6252W        W25786  15.890   3.898  16.538 -0.0058  0.2355 -0.1140
 6253W        W25787  15.148   0.697  16.536 -0.0864  0.0740 -0.1645
 6254W        W25788   4.924   9.943  13.867  0.1858 -0.0163  0.2026
 6255W        W25789  16.862   3.127  16.303  0.2337 -0.0053 -0.3252
 6256W        W25790   4.546   1.432   1.721 -0.0186  0.1827 -0.1364
 6257W        W25791   3.054  11.452   0.035 -0.2695  0.0457  0.3528
 6258W        W25792  14.712   3.009   0.954  0.1622 -0.3408 -0.2958
 6259W        W25793   7.673  15.391  16.478 -0.1360 -0.1505  0.2400
 6260W        W25794  16.930  10.484   0.383 -0.2618 -0.0357  0.1006
 6261W        W25795   1.352   5.444  14.249 -0.1526  0.1379  0.0554
 6262W        W25796   0.288  15.791  13.113  0.1802  0.0228  0.0477
 6263W        W25797   9.309   3.793   1.575  0.2218  0.0249  0.0000
 6264W        W25798  16.242   7.667  15.772 -0.2686 -0.1792  0.0547
 6265W        W25799  12.747   8.812  13.255 -0.1344  0.1060 -0.1586
 6266W        W25800   8.884  11.339   0.309 -0.2536  0.0433  0.0358
 6267W        W25801  10.629  13.884  12.239  0.0685  0.0251  0.1061
 6268W        W25802  10.015   7.434  16.830 -0.2439 -0.3184 -0.1854
 6269W        W25803  11.725   0.440   5.090 -0.1906 -0.0460 -0.2767
 6270W        W25804  11.855   7.883  13.683 -0.1173 -0.3304 -0.0134
 6271W        W25805   6.638  13.740   4.223 -0.5669 -0.1052 -0.0336
 6272W        W25806   9.581   1.427  13.996 -0.0796 -0.2310  0.0282
 6273W        W25807  17.429   8.305  13.354 -0.2322  0.1404 -0.1687
 6274W        W25808  16.379   4.946  15.305  0.0395 -0.0251  0.2373
 6275W        W25809   9.713   9.110  16.037  0.2384  0.1516  0.0425
 6276W        W25810   1.875   7.154  16.323 -0.0322 -0.1693 -0.2190
 6277W        W25811  12.842  12.585   4.393  0.2197 -0.0962 -0.0706
 6278W        W25812   9.365  12.896  16.570  0.1536 -0.0187  0.1346
 6279W        W25813  11.281  12.307  15.701 -0.0426 -0.2953 -0.0608
 6280W        W25814   3.171  13.846  14.769 -0.1018 -0.0044 -0.1685
 6281W        W25815  13.903   7.150   2.170  0.2884  0.0234 -0.2271
 6282W        W25816   2.151   2.879   3.348 -0.1223  0.1197  0.1132
 6283W        W25817  12.852   0.499  12.762  0.1374  0.0428  0.1069
 6284W        W25818   7.753   2.697   4.126  0.3661  0.1606  0.2576
 6285W        W25819  11.510   3.436   0.643 -0.4308 -0.0515  0.2150
 6286W        W25820  12.911   4.257   3.211 -0.0547  0.1031  0.2705
 6287W        W25821  14.979   2.416   3.252  0.0252  0.0050  0.0049
 6288W        W25822   0.636  11.342   1.326  0.1438 -0.0974  0.3320
 6289W        W25823   4.461  11.556  12.589  0.2659  0.1665 -0.2401
 6290W        W25824   2.988   0.522  14.099 -0.5081 -0.3429  0.2906
 6291W        W25825   6.397  11.417  16.192  0.2985  0.2169  0.0026
 6292W        W25826  11.319   8.685   2.177  0.1989  0.1345 -0.3647
 6293W        W25827   0.601   7.575   1.118  0.0896  0.0517 -0.0794
 6294W        W25828  16.639  13.829   5.055  0.0547 -0.0013  0.0109
 6295W        W25829   9.498   5.153  16.147 -0.0602  0.0098 -0.1108
 6296W        W25830   1.411   0.930   3.475 -0.0708  0.1111  0.0056
 6297W        W25831   5.472   7.731  13.013  0.0686 -0.0467  0.1793
 6298W        W25832   8.734   2.124  17.004  0.3455 -0.0367 -0.1534
 6299W        W25833   2.692  16.250   2.389 -0.1806  0.2445 -0.0465
 6300W        W25834  11.802   3.602   4.021 -0.2885  0.1554  0.2721
 6301W        W25835  10.097   0.388  12.512 -0.1518  0.2372 -0.0464
 6302W        W25836  14.859   6.633   2.151  0.0367 -0.0342 -0.0207
 6303W        W25837   3.231   5.275   2.611 -0.0318 -0.0533  0.1921
 6304W        W25838   6.131  17.033   5.879  0.1361 -0.2977  0.0130
 6305W        W25839  11.397  13.338   0.635 -0.0403 -0.0071 -0.0664
 6306W        W25840  10.547  10.872  13.741  0.1150 -0.2685 -0.0023
 6307W        W25841   0.653   0.761   2.068 -0.0611  0.2550  0.1308
 6308W        W25842  14.256   4.257  14.116  0.0700 -0.0005  0.1532
 6309W        W25843   4.184  10.478   1.878 -0.0156 -0.0746 -0.1384
 6310W        W25844  17.338  17.476  16.715  0.0986 -0.0383  0.2835
 6311W        W25845   1.528  12.222  16.359 -0.2009  0.1301  0.1628
 6312W        W25846  14.042  11.958   3.991  0.0893 -0.0070 -0.0677
 6313W        W25847  15.439   1.581  15.994 -0.1418 -0.0855 -0.0961
 6314W        W25848   4.512   6.087  14.770  0.0538 -0.1250 -0.2255
 6315W        W25849  13.320  16.702   1.636 -0.1820  0.1343 -0.0111
 6316W        W25850  15.968   2.906   1.195 -0.1618  0.1992 -0.2123
 6317W        W25851  14.468  10.112   1.006  0.1338  0.1880  0.2547
 6318W        W25852  10.514  16.935   3.078 -0.0116  0.4271  0.1104
 6319W        W25853  10.897  15.093   1.020 -0.2143 -0.2181 -0.1041
 6320W        W25854  12.102  12.414  15.447 -0.3464 -0.3462 -0.0014
 6321W        W25855  14.268  12.981   3.772  0.0164  0.2244 -0.2124
 6322W        W25856   2.198  11.419   3.540 -0.0160  0.0133  0.2491
 6323W        W25857   0.075   3.320   1.056 -0.1273  0.3480 -0.1417
 6324W        W25858  15.247   6.356   4.292 -0.0801 -0.3049 -0.0211
 6325W        W25859   7.605   7.453   1.859  0.3054 -0.0672 -0.4266
 6326W        W25860   1.394   5.432  16.318 -0.0799  0.0192  0.0797
 6327W        W25861   0.263   7.880   3.334 -0.2124  0.0309  0.2412
 6328W        W25862  12.318   1.755   4.980 -0.1637 -0.0758 -0.1129
 6329W        W25863  10.078   1.969  15.323 -0.0647  0.2346  0.3603
 6330W        W25864   0.127  11.334  16.513  0.0422 -0.0048  0.0780
 6331W        W25865  12.147   6.327   4.121 -0.0578  0.2858 -0.0770
 6332W        W25866   7.507   8.893   1.624  0.0235 -0.0351 -0.0857
 6333W        W25867  14.597   2.805  13.137 -0.0049  0.0718  0.2313
 6334W        W25868   2.855   0.138  16.233  0.1951  0.1628 -0.0831
 6335W        W25869   4.577   6.766   0.969 -0.0052  0.3014 -0.0910
 6336W        W25870  11.114  14.150  15.792  0.2515 -0.1413  0.0740
 6337W        W25871   8.751   8.160   1.611 -0.0957 -0.2010 -0.0573
 6338W        W25872   8.980   7.120   0.270  0.0111  0.2168 -0.0936
 6339W        W25873   4.334   7.957  14.096 -0.0264  0.0364  0.3102
 6340W        W25874  14.909   8.238  13.170  0.1668  0.0862  0.2784
 6341W        W25875  15.343   9.915  16.519  0.1361 -0.4595 -0.3324
 6342W        W25876   4.556   7.907   2.023 -0.1690 -0.2781 -0.1222
 6343W        W25877   1.178  16.824  13.128  0.3929  0.0744  0.2828
 6344W        W25878   7.993  11.151   2.616 -0.0327  0.0266 -0.2801
 6345W        W25879  15.910   6.619  14.757 -0.0274 -0.2636  0.0885
 6346W        W25880   9.978  16.792  15.049  0.0283  0.0366 -0.0271
 6347W        W25881   6.895  11.560   1.886 -0.4928  0.0806  0.0035
 6348W        W25882   4.029   8.920  12.861  0.0202 -0.5074  0.1499
 6349W        W25883   5.650  11.146  14.081 -0.3043  0.1646  0.0108
 6350W        W25884   6.281   8.609   3.329 -0.1329  0.2150 -0.0767
 6351W        W25885   6.298   6.261   5.281  0.0824 -0.3157  0.2166
 6352W        W25886  12.057  17.273  12.849 -0.1676  0.1693  0.1189
 6353W        W25887  13.541  15.131  15.022  0.1189 -0.0710 -0.0310
 6354W        W25888   1.528  16.441  16.193 -0.1245 -0.1320 -0.1996
 6355W        W25889  11.747  13.003  15.735 -0.0874 -0.0076 -0.2086
 6356W        W25890   1.757  11.030  13.493 -0.0987  0.0258 -0.1549
 6357W        W25891   5.934  12.722  12.521 -0.1126 -0.0945 -0.0701
 6358W        W25892  10.756   0.579   1.613  0.0876  0.3222 -0.1624
 6359W        W25893  12.732  11.098   3.859  0.1708  0.2399 -0.0393
 6360W        W25894   2.804   8.362  16.448  0.0445  0.0571 -0.2738
 6361W        W25895   0.637   5.250   3.470  0.2189  0.0400 -0.2374
 6362W        W25896   6.973  12.682   1.593  0.0848 -0.1015 -0.1006
 6363W        W25897  16.926  11.177   0.819 -0.1194  0.3539  0.0673
 6364W        W25898  17.187  17.472  12.462 -0.0806 -0.0077  0.1531
 6365W        W25899  15.274   4.759   4.749  0.0598  0.1785 -0.0874
 6366W        W25900   0.814   8.784   3.016  0.1690 -0.1047  0.3370
 6367W        W25901   0.118  12.440  12.650  0.1790 -0.2363  0.0170
 6368W        W25902   4.843  17.083   2.531 -0.1103 -0.1691  0.0398
 6369W        W25903   1.347  11.172  15.673 -0.0368 -0.0174  0.0142
 6370W        W25904   3.083   5.120  16.438  0.1571  0.3408  0.2419
 6371W        W25905  14.692   1.667   0.159  0.0999  0.0080  0.1728
 6372W        W25906   6.339   8.004  14.591  0.0308  0.2953  0.0607
 6373W        W25907   3.405  13.155  16.738  0.2185  0.0740 -0.2372
 6374W        W25908   4.168  10.266  12.909 -0.1461  0.0169 -0.2125
 6375W        W25909   3.286   3.111   3.282  0.1284  0.1388 -0.0562
 6376W        W25910   7.757   9.489  14.241  0.0489 -0.2181 -0.0874
 6377W        W25911   2.939   9.377  14.070 -0.0133 -0.1122 -0.0829
 6378W        W25912   4.710  12.971  14.423 -0.0348  0.2239 -0.0895
 6379W        W25913  14.488  10.250  14.994 -0.1075 -0.0334  0.0987
 6380W        W25914   9.211   5.684  16.453  0.4255  0.1056 -0.1735
 6381W        W25915  15.372  12.471  15.912 -0.0376 -0.0825  0.0892
 6382W        W25916   2.869   7.003   1.914 -0.1816  0.0753  0.1139
 6383W        W25917  12.130   3.577   1.945  0.0525 -0.1505  0.1091
 6384W        W25918   1.328   0.180   2.211 -0.3602  0.1262  0.1235
 6385W        W25919   9.652   0.535   3.879  0.0421  0.1910  0.1074
 6386W        W25920   2.739  15.383  16.267 -0.2127  0.1845 -0.0277
 6387W        W25921   3.364  10.894   2.974 -0.0047  0.1662 -0.1423
 6388W        W25922   4.605   3.061  15.505 -0.1228  0.1502 -0.3630
 6389W        W25923   4.947  11.236  15.927 -0.2292 -0.0110  0.2506
 6390W        W25924  13.907  13.641   2.896 -0.2303 -0.0006  0.1365
 6391W        W25925  11.164   8.055   4.735 -0.0856 -0.1214  0.0039
 6392W        W25926   0.991  16.336  14.082  0.2705  0.0689  0.1238
 6393W        W25927   8.852   0.808  15.292  0.1112  0.1596  0.1366
 6394W        W25928   8.809   1.627   0.174 -0.1948 -0.1290  0.0477
 6395W        W25929   9.332  13.505   1.501 -0.1213  0.1980 -0.1166
 6396W        W25930   6.431  12.402   2.118 -0.0490 -0.0795  0.2894
 6397W        W25931   0.499   0.648  14.570  0.3572 -0.3395 -0.1929
 6398W        W25932  12.692   8.497  14.563 -0.0492 -0.2687  0.0390
 6399W        W25933   7.956  14.214   2.910  0.0464  0.1396 -0.1106
 6400W        W25934   6.751   1.251   2.712 -0.0515  0.1889 -0.0278
 6401W        W25935   7.437  13.677  13.445  0.0749 -0.2000 -0.3782
 6402W        W25936  12.481   1.034  16.385  0.1357 -0.0955 -0.0167
 6403W        W25937   6.873   2.018  15.538  0.0416 -0.2271 -0.0915
 6404W        W25938   8.696   3.885   3.089 -0.0859 -0.0356  0.0470
 6405W        W25939   8.139   1.021  14.680 -0.1971 -0.1556  0.1873
 6406W        W25940   0.583   0.655   4.823  0.1756 -0.2901 -0.1190
 6407W        W25941   7.110   6.222   0.261  0.1157 -0.0977  0.2283
 6408W        W25942   8.262   7.155   2.529  0.0286 -0.3756 -0.0851
 6409W        W25943  12.309   0.023  13.938 -0.2533  0.0199  0.0208
 6410W        W25944  13.833   2.178  13.027 -0.0303 -0.2345 -0.2790
 6411W        W25945   2.510   9.652   3.797 -0.0081  0.2567  0.1079
 6412W        W25946  14.070   7.777   1.167 -0.2891 -0.2172  0.1219
 6413W        W25947  13.353  10.819  16.315 -0.2917  0.3005  0.0537
 6414W        W25948   5.051  13.564   3.332  0.2251 -0.2988  0.0148
 6415W        W25949  15.339  13.558   5.089  0.2542 -0.2033 -0.1933
 6416W        W25950   0.790   7.009   4.511  0.0859 -0.1648 -0.1583
 6417W        W25951   8.378   0.328   3.379 -0.3530 -0.0665 -0.0546
 6418W        W25952  15.911   7.158  13.288  0.0731 -0.1323 -0.0569
 6419W        W25953  13.484   6.177   2.278  0.0412  0.4365  0.1552
 6420W        W25954   3.991  15.366  12.887 -0.0272  0.2868  0.3287
 6421W        W25955   2.670   2.404  16.332  0.1077 -0.0226 -0.1402
 6422W        W25956   8.693   7.752  16.773  0.2443  0.2254  0.2872
 6423W        W25957   9.150   3.908  13.464  0.0009 -0.0566 -0.3866
 6424W        W25958   4.284  12.422   6.166 -0.2051 -0.1109 -0.3407
 6425W        W25959   3.522  14.620   4.554 -0.0347  0.1964 -0.2154
 6426W        W25960   3.567   5.898   2.295 -0.2511 -0.2026 -0.2947
 6427W        W25961   4.530   4.232  14.362  0.1359  0.0272 -0.2004
 6428W        W25962  10.919   5.646  12.484 -0.4063 -0.0788 -0.0701
 6429W        W25963  10.273   0.742  16.025  0.1900  0.0179  0.0816
 6430W        W25964  15.439  15.995  15.089 -0.0428 -0.3205 -0.1218
 6431W        W25965  11.224   9.074   3.912  0.2050 -0.1639  0.0537
 6432W        W25966   0.080   0.925  16.548 -0.0760  0.0635 -0.0453
 6433W        W25967   2.339   2.565  13.104  0.0342 -0.2519 -0.2010
 6434W        W25968  12.866  10.987   1.650  0.2523  0.0948 -0.1308
 6435W        W25969   8.171   8.609   0.908 -0.1536 -0.0594 -0.0756
 6436W        W25970   2.002  14.573   1.140 -0.2335 -0.1685 -0.0439
 6437W        W25971   8.640  15.128   4.770 -0.0470 -0.2758 -0.1611
 6438W        W25972   9.501  10.190   2.539  0.2640 -0.0911 -0.2282
 6439W        W25973   8.244  14.219   6.072  0.1115 -0.1371  0.2918
 6440W        W25974   8.174   5.478  15.375 -0.0800  0.2436  0.0722
 6441W        W25975  16.723   0.459  16.462 -0.1322  0.0270 -0.1078
 6442W        W25976   4.170  11.182  12.444 -0.2005  0.0090  0.2207
 6443W        W25977   8.882   4.349  13.609 -0.2048 -0.0650 -0.1062
 6444W        W25978  14.139  11.402   2.005  0.1623 -0.1502 -0.0816
 6445W        W25979  11.894  16.344  14.437  0.2622 -0.2429 -0.3486
 6446W        W25980   6.888  17.381  13.883 -0.0669  0.1576 -0.0845
 6447W        W25981  13.257   9.978   2.860  0.0341  0.1682 -0.1311
 6448W        W25982   1.919   9.067  14.017 -0.3203  0.3219 -0.1007
 6449W        W25983   4.836   1.092  16.485 -0.2041  0.3233  0.0467
 6450W        W25984   5.166   2.933  15.540  0.2525  0.1279 -0.0031
 6451W        W25985   6.528  11.473  13.922  0.1243  0.1392 -0.0195
 6452W        W25986   2.444   4.000   3.754 -0.0681 -0.0143  0.2370
 6453W        W25987  16.371   0.857  15.011 -0.0986 -0.2761 -0.2115
 6454W        W25988   1.408  16.976  14.593  0.1654  0.1030 -0.0082
 6455W        W25989  11.438   0.943   1.622 -0.2935  0.1691  0.4326
 6456W        W25990  10.545  13.867   3.121 -0.0024 -0.0933  0.1221
 6457W        W25991   1.348   8.810  16.879  0.0257 -0.1312 -0.0563
 6458W        W25992  17.124  16.160  16.295  0.0543  0.4754 -0.1476
 6459W        W25993   5.640   9.561  14.882  0.0047  0.3337 -0.1284
 6460W        W25994  14.337  15.323  16.716 -0.1451 -0.1556 -0.0025
 6461W        W25995  11.667   4.197  12.908  0.0734  0.0818  0.0303
 6462W        W25996   6.509  14.938   3.331 -0.0746 -0.0787 -0.2236
 6463W        W25997   7.667   8.422  17.177 -0.4853  0.0843  0.1661
 6464W        W25998   0.240  14.001   1.116 -0.1571 -0.2091 -0.1673
 6465W        W25999  14.602   1.363   2.120 -0.2268 -0.0026 -0.1017
 6466W        W26000  12.261   3.730   2.999 -0.2084  0.2154  0.1883
 6467W        W26001   8.803   2.782   3.557 -0.0756 -0.1193  0.1229
 6468W        W26002   6.530  14.520  16.897 -0.0474  0.0156 -0.3659
 6469W        W26003   7.482  14.003  13.890  0.1315 -0.0478  0.0847
 6470W        W26004   1.873  13.132  16.460  0.0578 -0.2742  0.2365
 6471W        W26005   6.882   7.902   0.121  0.1973  0.3026 -0.5162
 6472W        W26006   2.344  15.558   3.069  0.0136 -0.0285 -0.0601
 6473W        W26007   5.895  16.209   4.460 -0.3095 -0.1630  0.0515
 6474W        W26008   3.402   1.806  12.209  0.0071 -0.0665 -0.0922
 6475W        W26009  10.559  11.235  16.401  0.0461  0.1565 -0.0804
 6476W        W26010   7.510   5.619  15.921  0.2309  0.0349  0.1195
 6477W        W26011  14.480  15.337  12.472  0.2315 -0.0027 -0.1143
 6478W        W26012  15.969  12.239  14.753 -0.2143 -0.0918 -0.2095
 6479W        W26013  15.743   3.584   2.341 -0.3056 -0.2322  0.3210
 6480W        W26014  14.279  12.315  16.124 -0.1433  0.0140 -0.0064
 6481W        W26015  13.581  15.249  16.409  0.1288  0.0848  0.2656
 6482W        W26016   4.642  11.758   1.562  0.1981  0.0980 -0.0018
 6483W        W26017  11.858   1.688   4.067  0.0770 -0.2199  0.1046
 6484W        W26018   6.212  17.088   4.388  0.0482  0.2451 -0.3093
 6485W        W26019   2.366   5.508   4.579  0.0663 -0.1634  0.0356
 6486W        W26020  14.032  17.111   2.830  0.0365  0.0237  0.3194
 6487W        W26021   0.160  10.730  14.943 -0.0970  0.0422 -0.2660
 6488W        W26022  14.707   6.102   2.917  0.2969 -0.1766 -0.1083
 6489W        W26023  12.460   9.062   4.787 -0.0474  0.0468  0.2941
 6490W        W26024   2.196  14.106  16.564  0.0673 -0.1825  0.0921
 6491W        W26025  14.646  14.643   1.818 -0.0311 -0.1530  0.1491
 6492W        W26026   5.251   3.770  16.340  0.0602  0.0305 -0.2487
 6493W        W26027   2.053  15.260  12.850  0.2030  0.0036  0.0501
 6494W        W26028  14.346  15.950   3.391 -0.0420 -0.1594 -0.3938
 6495W        W26029   5.799  16.065  15.776 -0.1005 -0.0704  0.2314
 6496W        W26030  15.584  11.908   1.951  0.1108  0.0558  0.3216
 6497W        W26031   4.865   8.192   1.699  0.0843  0.4384 -0.3180
 6498W        W26032  10.079  10.668   0.782 -0.0857 -0.1942  0.1168
 6499W        W26033   5.527  13.061  12.506 -0.0626  0.0449 -0.0584
 6500W        W26034  11.108  17.110  13.491  0.1253  0.0465 -0.0188
 6501W        W26035   1.268  16.477   0.862  0.0583  0.0615 -0.0532
 6502W        W26036   1.737  12.305  14.321  0.0987  0.0026  0.3301
 6503W        W26037   6.698  10.836   5.203  0.1689  0.1506 -0.0842
 6504W        W26038  16.788  13.023  13.428  0.2474 -0.0857  0.0432
 6505W        W26039   2.708   8.376   2.507  0.2205 -0.0678  0.1031
 6506W        W26040   8.951   5.306   3.360  0.0552 -0.0096  0.2135
 6507W        W26041  11.355   2.422  13.130  0.0251 -0.0254  0.3565
 6508W        W26042  15.454   1.103  16.296 -0.2913  0.2706  0.0432
 6509W        W26043   6.909  11.364  12.731 -0.4047  0.0348 -0.2309
 6510W        W26044   2.825  10.053   4.148  0.1369 -0.0493  0.1558
 6511W        W26045  12.501   7.372  16.261 -0.0723 -0.1361 -0.0334
 6512W        W26046  11.896  14.111   2.724  0.1339 -0.0037 -0.0377
 6513W        W26047   2.508  14.270   3.083 -0.3193  0.0099  0.1098
 6514W        W26048   8.822  16.045   3.662 -0.0936 -0.0091  0.0984
 6515W        W26049   1.403  12.692   5.302  0.0163 -0.2241 -0.0222
 6516W        W26050   9.167  12.563   0.941  0.2767  0.0848 -0.0302
 6517W        W26051  15.202   6.283  16.982 -0.1662 -0.0932 -0.2553
 6518W        W26052  15.083   0.842  15.450 -0.0726  0.0024  0.0473
 6519W        W26053  14.909  13.541   1.126  0.1369 -0.2129 -0.1611
 6520W        W26054   3.388  14.216   0.964 -0.1033  0.0194 -0.1009
 6521W        W26055   3.010   4.360   3.175 -0.2248  0.0659 -0.0913
 6522W        W26056   4.524  10.383  15.964 -0.0446  0.2358  0.1994
 6523W        W26057  16.759  15.807   1.529  0.0696 -0.0974  0.1043
 6524W        W26058   4.718  12.013  12.651 -0.0050  0.2056  0.0085
 6525W        W26059   1.112   8.434  16.011  0.1048  0.0393  0.0198
 6526W        W26060  10.046   2.730  12.596  0.0032 -0.3051 -0.1475
 6527W        W26061   5.682   4.474  16.383 -0.2777  0.1591  0.2231
 6528W        W26062   1.479  15.414   2.937  0.1316  0.1519 -0.3466
 6529W        W26063   0.184  12.718  13.899  0.1889  0.0562 -0.0678
 6530W        W26064  13.126  12.623   5.652  0.3802  0.1175  0.0307
 6531W        W26065   7.750   9.568   3.249  0.0454 -0.1366  0.3268
 6532W        W26066   0.497   6.292   0.827 -0.2784 -0.1446 -0.1908
 6533W        W26067   1.149  12.380   4.906 -0.1320 -0.2997 -0.0031
 6534W        W26068  11.930   7.593   2.622  0.0493 -0.0291 -0.1758
 6535W        W26069  13.703   7.865   2.640  0.0526 -0.0518 -0.0506
 6536W        W26070  17.446  14.365   0.099  0.1240 -0.1116 -0.0371
 6537W        W26071  10.430  14.803  16.516  0.0780 -0.1584 -0.2591
 6538W        W26072   8.135   5.738   4.203  0.1938 -0.0311 -0.1509
 6539W        W26073   4.711  17.284  14.233 -0.0352 -0.0769 -0.0684
 6540W        W26074   5.779  10.222  12.664  0.0795  0.0633 -0.2097
 6541W        W26075  11.209   6.591   1.331 -0.2255 -0.0600 -0.2440
 6542W        W26076  13.977   1.327  13.583 -0.1123  0.2969 -0.3712
 6543W        W26077   9.246  11.377   1.210 -0.1910 -0.0934  0.0100
 6544W        W26078   3.763   5.070  16.773 -0.2230  0.0976 -0.1164
 6545W        W26079   1.893  13.394   0.313 -0.1856  0.0022  0.1891
 6546W        W26080  16.867  12.552   0.114  0.0762 -0.1495  0.0287
 6547W        W26081  15.171  11.705  13.618 -0.5188  0.0344 -0.2330
 6548W        W26082   5.542   2.269   1.625  0.1403  0.3134 -0.1489
 6549W        W26083  10.082  14.873   5.072 -0.1491 -0.1440  0.0872
 6550W        W26084  11.387  13.649   4.350  0.0110 -0.0882  0.0116
 6551W        W26085  17.098  12.377   4.905 -0.1536 -0.0874 -0.0346
 6552W        W26086   1.258  13.992   0.677  0.3092  0.1539  0.1327
 6553W        W26087  10.156  14.166   4.050  0.0209  0.0951  0.4654
 6554W        W26088  14.929  15.743  12.231 -0.0125  0.2179  0.1664
 6555W        W26089   8.592   3.028   1.329  0.2180 -0.0484 -0.2315
 6556W        W26090  16.115   0.368   0.975 -0.3102 -0.2348 -0.0730
 6557W        W26091  14.904  17.113   4.109  0.1351 -0.1336  0.2528
 6558W        W26092   5.340  17.142  14.886 -0.0571  0.2612 -0.1012
 6559W        W26093   8.558  11.931  15.758 -0.1192  0.1598 -0.1956
 6560W        W26094   1.448   8.037   3.677 -0.0702 -0.0615 -0.2549
 6561W        W26095  10.399  14.883  14.263 -0.1023 -0.1349  0.0453
 6562W        W26096   7.869   3.195  16.866 -0.3311  0.3630 -0.2840
 6563W        W26097   4.269   7.202  15.001 -0.0766 -0.0959  0.1126
 6564W        W26098  12.691   1.881   0.095  0.1129  0.1363  0.1912
 6565W        W26099   9.354   7.052   3.388 -0.2190  0.1425  0.0787
 6566W        W26100  14.808   9.201  12.398 -0.1368  0.0358  0.0133
 6567W        W26101  16.692  10.613  16.485  0.0986 -0.3400 -0.0231
 6568W        W26102   9.963  10.569  14.340 -0.2525  0.0571  0.0904
 6569W        W26103  11.597   6.970  14.805  0.0163 -0.0160  0.0830
 6570W        W26104  15.084   9.113   5.358 -0.1620 -0.1604  0.2664
 6571W        W26105  16.268   4.495   0.037 -0.0775 -0.0838 -0.0600
 6572W        W26106   5.008   1.002  13.898  0.0526  0.2028  0.0882
 6573W        W26107   0.479   3.694  13.424  0.0609 -0.3005  0.0937
 6574W        W26108   0.691  12.540   4.062 -0.2184  0.0002  0.0839
 6575W        W26109   3.153   1.423   3.122 -0.0865  0.0551 -0.1316
 6576W        W26110   2.676  10.345  15.612  0.0278 -0.3642 -0.0684
 6577W        W26111   3.742   1.805  17.230 -0.0154  0.2435 -0.6325
 6578W        W26112   3.328   8.159  13.357 -0.1686 -0.2199  0.0797
 6579W        W26113   7.065   7.602  13.625  0.0370 -0.1633 -0.1478
 6580W        W26114  12.316  11.305   4.496  0.1042 -0.1822 -0.1759
 6581W        W26115   6.444   0.457  14.727  0.0406 -0.0122  0.2184
 6582W        W26116  16.043  10.750   1.711  0.0814 -0.1407  0.1439
 6583W        W26117  13.043   9.019   4.120  0.0206 -0.2016 -0.4948
 6584W        W26118   6.001   7.715   4.205 -0.0218  0.0695 -0.1724
 6585W        W26119  11.616   8.432  15.099 -0.2360 -0.0650  0.0534
 6586W        W26120  11.627   1.096   0.152  0.1355 -0.6177 -0.1521
 6587W        W26121   3.030   9.645   0.792 -0.1558 -0.0790 -0.1460
 6588W        W26122  15.557   2.511   3.294 -0.0930  0.3216  0.1912
 6589W        W26123  14.353   8.271  15.210 -0.0438  0.1033  0.0694
 6590W        W26124   5.803  17.221   3.636 -0.1331  0.0786 -0.2310
 6591W        W26125   5.575   8.555   5.178 -0.0196  0.1303  0.3086
 6592W        W26126  13.053   9.077   3.203 -0.1082  0.0051  0.3674
 6593W        W26127  12.924   8.235  14.114  0.0247  0.1089 -0.3358
 6594W        W26128   9.322  15.832   0.097 -0.0128 -0.1088 -0.1620
 6595W        W26129   5.276   7.331   4.523 -0.2817 -0.2214  0.1690
 6596W        W26130  15.679   7.614   4.712 -0.2854  0.0602 -0.1100
 6597W        W26131   8.911  16.043   4.155 -0.3038 -0.2246 -0.0823
 6598W        W26132  11.854   2.835  14.317 -0.0335  0.0062 -0.1958
 6599W        W26133  17.208   3.106   0.298 -0.2962 -0.0087 -0.0350
 6600W        W26134  16.050  16.227  15.629 -0.1007 -0.1911 -0.0357
 6601W        W26135   5.875   2.824  13.645  0.0037 -0.0951  0.0600
 6602W        W26136  13.566  16.996  13.807 -0.1118 -0.0677 -0.2881
 6603W        W26137   6.592  12.335  17.175 -0.0680  0.0503 -0.0916
 6604W        W26138  10.901  11.907  16.718 -0.1783 -0.1482 -0.0302
 6605W        W26139  12.499   3.067  12.890  0.0091  0.0970 -0.0472
 6606W        W26140  10.749  16.570   1.865 -0.2501 -0.3423  0.2021
 6607W        W26141   6.839  12.810  12.649 -0.0248  0.1060 -0.0061
 6608W        W26142   2.628   6.581   0.251  0.1872  0.1950  0.1404
 6609W        W26143   5.131  13.093   0.716 -0.1433 -0.1073  0.2288
 6610W        W26144  17.116   6.047  13.611  0.4393  0.0874 -0.0376
 6611W        W26145   2.935  13.410   2.856  0.0609 -0.0957  0.0042
 6612W        W26146   7.408  15.958  17.082 -0.2487  0.1942 -0.0057
 6613W        W26147   0.736   7.543  13.758  0.1393  0.1323  0.2412
 6614W        W26148  14.744  14.905   4.001 -0.1641 -0.0029 -0.1014
 6615W        W26149  10.415  11.289   0.164  0.0704 -0.0612 -0.0691
 6616W        W26150  15.352  15.231   0.725  0.0450  0.1340  0.4187
 6617W        W26151  15.584  16.257  16.018  0.0089 -0.2816 -0.2193
 6618W        W26152   6.936   2.532  15.052 -0.0668 -0.0266  0.0729
 6619W        W26153  10.756   9.994   2.084 -0.0026  0.0139  0.1589
 6620W        W26154  16.293  17.152   1.557 -0.1035  0.0365 -0.0187
 6621W        W26155   3.855  14.875   1.364  0.1482 -0.0935 -0.1251
 6622W        W26156   9.791   4.675   2.898 -0.0771  0.0884  0.0776
 6623W        W26157  11.867   6.225   3.748  0.0551  0.1291  0.5629
 6624W        W26158   6.612   9.277  15.724 -0.1004  0.1240 -0.0880
 6625W        W26159  12.586   5.709  13.854 -0.0143  0.0441 -0.0136
 6626W        W26160  10.610   8.869   0.008  0.3354 -0.0833  0.2178
 6627W        W26161  10.650   3.178   0.244 -0.3195 -0.1507 -0.1375
 6628W        W26162   4.122   4.306   2.142 -0.0310 -0.0704 -0.0683
 6629W        W26163   5.583   9.843   0.846 -0.3734  0.2115 -0.4170
 6630W        W26164  11.526   7.350   2.278  0.0171 -0.0279 -0.0508
 6631W        W26165  16.042   8.014   4.966 -0.1139 -0.1937 -0.2644
 6632W        W26166  10.475  11.563   3.480 -0.5009 -0.1482 -0.0054
 6633W        W26167   7.829   3.372  15.032 -0.2294 -0.1218 -0.2255
 6634W        W26168  16.582   5.963   2.935 -0.1387 -0.0092 -0.2957
 6635W        W26169  10.978  14.813  15.282  0.0192  0.1082 -0.0792
 6636W        W26170   5.464  12.356  16.340 -0.1493  0.0034 -0.2428
 6637W        W26171   1.932  10.636  14.965  0.0780  0.0117 -0.1300
 6638W        W26172   6.012   1.206  17.264 -0.0662  0.0208 -0.0031
 6639W        W26173  14.070  13.530  14.999 -0.0708  0.2075 -0.1379
 6640W        W26174   0.501   2.882   3.345 -0.0613  0.0453 -0.1833
 6641W        W26175  16.128   8.181  14.797  0.0243  0.1533  0.0898
 6642W        W26176  14.568  10.787  14.534 -0.1207  0.0806 -0.1151
 6643W        W26177  16.373   7.726  11.495  0.3578 -0.0494  0.0695
 6644W        W26178   3.130  12.091  12.801  0.3468 -0.1620  0.1474
 6645W        W26179  15.115  13.413  17.059 -0.1479  0.1709 -0.1654
 6646W        W26180  13.188   0.648  14.136 -0.0040 -0.1592 -0.1057
 6647W        W26181  13.481   6.997  14.492  0.2211 -0.0584 -0.0533
 6648W        W26182   0.276   3.225   1.508 -0.0330 -0.3484  0.1735
 6649W        W26183   1.911   5.068  11.608 -0.1765  0.0573  0.1426
 6650W        W26184  11.457  14.602  13.251 -0.1487  0.1253  0.3076
 6651W        W26185   2.814  11.636  14.560  0.2819  0.0554  0.1105
 6652W        W26186   5.855  16.281  14.676  0.2061  0.0220 -0.2416
 6653W        W26187   9.982  13.454  14.890 -0.1701 -0.0300 -0.3857
 6654W        W26188   1.474  10.552  15.064 -0.0016  0.1498 -0.0017
 6655W        W26189   6.052   8.091   3.208 -0.0763  0.2647 -0.1703
 6656W        W26190   5.222  11.650   3.528  0.1116 -0.1065 -0.0569
 6657W        W26191   8.863  13.618  13.628 -0.0992  0.0078  0.1299
 6658W        W26192  15.513   8.192   0.669  0.0207 -0.1160  0.1275
 6659W        W26193  17.151   8.693  16.031 -0.1658  0.1488 -0.0301
 6660W        W26194   0.157  15.090   2.551  0.0302  0.0448 -0.0452
 6661W        W26195   4.898   4.088  12.261  0.1782  0.3550  0.2293
 6662W        W26196   5.452   3.692   4.854 -0.1568  0.0704 -0.2799
 6663W        W26197  12.442  12.877   4.732 -0.0288  0.0960 -0.1070
 6664W        W26198   1.757   6.651  14.698  0.0888  0.1493  0.0574
 6665W        W26199   4.582  17.257  15.980  0.0120  0.1652 -0.3579
 6666W        W26200  13.929   0.315  15.820 -0.0082 -0.0322 -0.3514
 6667W        W26201   6.418  13.411   1.398 -0.2898 -0.1719 -0.1418
 6668W        W26202  15.085  15.705  17.300  0.2343  0.3572  0.0579
 6669W        W26203   5.755  17.202  15.149  0.0333 -0.0291  0.1252
 6670W        W26204   3.254  15.253   3.998 -0.0129 -0.0081 -0.2102
 6671W        W26205  11.093  15.188  13.368 -0.0049 -0.0900  0.1051
 6672W        W26206   5.181  15.258  12.979  0.1261 -0.1734 -0.0354
 6673W        W26207  13.978   9.113   4.030  0.1198 -0.0838  0.0093
 6674W        W26208   1.201  10.711   3.323 -0.0266 -0.2232 -0.0249
 6675W        W26209   0.099   5.216  16.309 -0.2224  0.1227 -0.2858
 6676W        W26210   0.108  15.626   2.492 -0.0181  0.4200 -0.0229
 6677W        W26211   0.320  13.930   3.211  0.0809  0.0967  0.1759
 6678W        W26212  10.433  15.340   2.834 -0.0708  0.1075 -0.2214
 6679W        W26213  14.671   8.511  14.310  0.0928  0.2336 -0.0817
 6680W        W26214   9.809   4.506  17.208  0.1445 -0.0621 -0.2383
 6681W        W26215   6.376   9.681   2.535 -0.2315 -0.2867  0.0811
 6682W        W26216   0.509  14.188  15.826  0.2545 -0.0204 -0.0913
 6683W        W26217  16.523   1.820   2.040 -0.0073 -0.1385  0.1204
 6684W        W26218  11.985   7.475   4.948  0.0658 -0.1722 -0.1678
 6685W        W26219  15.041   1.470   1.596  0.0623 -0.0686  0.0343
 6686W        W26220   4.813   5.267  13.690  0.2975  0.3935  0.1713
 6687W        W26221  14.157  15.387  17.190 -0.2255  0.2623 -0.0679
 6688W        W26222   0.832   4.618   2.690 -0.1266 -0.0355  0.1180
 6689W        W26223  17.122  16.832  17.225  0.1118  0.0081 -0.1660
 6690W        W26224   7.288   6.025   2.182 -0.2449  0.0907 -0.0748
 6691W        W26225   8.509   8.473   3.928 -0.0983  0.1238  0.1179
 6692W        W26226   9.613   3.092   1.172  0.1803 -0.2124 -0.0354
 6693W        W26227  16.657   9.851  15.967 -0.0206  0.0057  0.1271
 6694W        W26228  15.751  14.107   0.397 -0.0464 -0.3299  0.3530
 6695W        W26229  14.521   6.705  13.383 -0.0636 -0.1200  0.0810
 6696W        W26230   9.214  10.980  16.905 -0.1199 -0.0708 -0.0213
 6697W        W26231  15.072  11.154   4.623  0.0905 -0.1368  0.0222
 6698W        W26232   0.603  14.378   3.887 -0.0161 -0.0903  0.0184
 6699W        W26233   3.981   8.505   4.975 -0.0748  0.1085 -0.1697
 6700W        W26234   5.239   1.901  15.559  0.0510 -0.0876 -0.0349
 6701W        W26235  15.875   9.949  16.610 -0.3880  0.0456 -0.0559
 6702W        W26236   3.184   8.929   1.205  0.2758 -0.0506  0.1443
 6703W        W26237   3.866  10.041   1.618  0.2077  0.1962 -0.0504
 6704W        W26238   2.404   1.133  14.129 -0.0674 -0.1442 -0.0468
 6705W        W26239   3.982  12.242   2.539  0.0972 -0.0082  0.2476
 6706W        W26240  11.485   5.095   1.148  0.0400 -0.0991  0.1516
 6707W        W26241  16.703  15.374   1.779  0.3740  0.0258 -0.1678
 6708W        W26242   0.802  10.167  12.648  0.0586 -0.3645  0.0468
 6709W        W26243  15.806  16.009   0.318 -0.1368 -0.3469  0.0936
 6710W        W26244   1.459  13.589   0.425  0.0354  0.0862  0.1162
 6711W        W26245   6.839  11.654  14.235 -0.2167 -0.2120 -0.1791
 6712W        W26246   9.642  12.870   3.317 -0.0406  0.2217  0.0222
 6713W        W26247  14.448   2.119   0.359 -0.3739 -0.1423  0.4448
 6714W        W26248   4.534   7.030   4.682  0.2257  0.0796 -0.0417
 6715W        W26249   1.282   6.357  15.111  0.1105  0.0582 -0.0949
 6716W        W26250  12.739   1.747   4.724 -0.0813 -0.0075  0.1563
 6717W        W26251   3.507  12.035  14.156 -0.1160 -0.0124  0.0775
 6718W        W26252   8.185  12.889  14.994 -0.2675 -0.0788  0.2235
 6719W        W26253   3.985   0.881   2.833 -0.1030 -0.2131  0.1334
 6720W        W26254   8.643  16.965   0.888 -0.2116  0.0846  0.2675
 6721W        W26255   0.523  12.233   3.623  0.0360  0.1464  0.2455
 6722W        W26256   0.319   0.036  14.078 -0.0569  0.2321 -0.1506
 6723W        W26257  16.012   4.181  12.135  0.1692 -0.0632  0.0287
 6724W        W26258   2.859   0.017  13.983  0.2637 -0.0121 -0.2298
 6725W        W26259   0.864  12.223   2.330  0.0472 -0.0419  0.0418
 6726W        W26260   3.914   4.362   1.703  0.2469  0.0518  0.1005
 6727W        W26261  17.361  15.787   1.330 -0.3575 -0.0903 -0.0505
 6728W        W26262   7.656   5.564   1.427 -0.0807 -0.0459  0.3971
 6729W        W26263  11.364   2.711   1.352 -0.2120 -0.0917 -0.0299
 6730W        W26264  15.309  13.361   0.402  0.1140  0.1509 -0.2122
 6731W        W26265  11.580   9.067  15.838  0.2168 -0.2889  0.0363
 6732W        W26266   0.634  11.858  15.092  0.0958 -0.2553 -0.1906
 6733W        W26267  11.487   1.512  14.181 -0.2179  0.0188 -0.5439
 6734W        W26268  12.033  10.252  12.623 -0.1175  0.0930  0.0448
 6735W        W26269  13.979   1.221   0.589  0.1460 -0.2206  0.1480
 6736W        W26270   3.699  16.280  12.807 -0.0246  0.0214 -0.0230
 6737W        W26271   5.755   8.283   0.772  0.0175  0.2159  0.3469
 6738W        W26272   7.469  15.849   3.259  0.2576 -0.1350  0.2264
 6739W        W26273  16.823  15.023   2.966  0.2037  0.1181  0.0854
 6740W        W26274  14.442   8.059   5.073 -0.2388  0.0109 -0.0377
 6741W        W26275   5.671   3.721  12.185  0.3584 -0.0571  0.2076
 6742W        W26276   8.716  14.802  12.558  0.1095 -0.1056 -0.1157
 6743W        W26277  17.220   8.852   1.916 -0.3061 -0.0841 -0.1000
 6744W        W26278   5.211  17.372   0.415  0.0300 -0.2312 -0.0535
 6745W        W26279  13.330  17.152  14.735 -0.0599 -0.1990  0.1240
 6746W        W26280   5.851   0.096   2.457 -0.1094 -0.1635  0.1906
 6747W        W26281   4.051  14.158  12.205 -0.0875 -0.0121 -0.0013
 6748W        W26282   7.401   3.898   3.235 -0.1102 -0.0250 -0.1059
 6749W        W26283   6.894   3.478  13.613 -0.1911  0.0962  0.0417
 6750W        W26284   6.820   5.530  14.021  0.3779  0.1972 -0.0080
 6751W        W26285   7.755  13.610   0.794  0.1143 -0.1124  0.1054
 6752W        W26286   1.146  12.265  16.952  0.1403 -0.0809  0.0063
 6753W        W26287   5.867   1.783   3.978  0.2485  0.1069 -0.1383
 6754W        W26288   3.452   9.202   2.167  0.0141 -0.0078  0.2250
 6755W        W26289  13.558   4.917   4.522  0.2054 -0.2038 -0.1184
 6756W        W26290  12.255   4.904   1.632  0.0636 -0.0944  0.0017
 6757W        W26291  16.961   3.439  14.275  0.0388 -0.1851 -0.0147
 6758W        W26292   7.838   6.380   4.896 -0.0885  0.0877  0.1571
 6759W        W26293   3.637  17.344   0.969 -0.0418 -0.0709 -0.3983
 6760W        W26294  13.614  17.280   2.527  0.1436  0.0020  0.1024
 6761W        W26295  10.776   9.891  17.247  0.2041 -0.6899  0.1252
 6762W        W26296   7.372   4.331   2.121 -0.1408 -0.1168 -0.0042
 6763W        W26297   7.231   9.360  13.123 -0.0796  0.2711  0.1536
 6764W        W26298   5.960   2.825  15.005  0.0150  0.0937  0.0536
 6765W        W26299  16.825  10.663   3.147 -0.0899  0.1703 -0.1564
 6766W        W26300   5.240   9.884   3.054 -0.1882 -0.3357  0.2525
 6767W        W26301   7.614  10.466   3.143 -0.0081 -0.0556  0.0274
 6768W        W26302   0.700   4.007  12.512 -0.3996 -0.0325  0.0287
 6769W        W26303   1.104  10.342   0.631  0.4007 -0.1046  0.0161
 6770W        W26304  14.801  17.404   0.354  0.2127  0.0270  0.1537
 6771W        W26305   6.190  14.778  14.042 -0.0239 -0.0966  0.4929
 6772W        W26306  16.389  10.502   1.969 -0.1875 -0.1999 -0.0082
 6773W        W26307  16.701  10.189   4.361 -0.2047  0.3211 -0.0429
 6774W        W26308   2.056  13.530  16.225 -0.2498 -0.0483 -0.1691
 6775W        W26309  15.181   8.269  12.684  0.2001  0.1584 -0.0242
 6776W        W26310   2.319  16.978  12.076  0.0118  0.0927 -0.0284
 6777W        W26311  15.673  14.816   2.600  0.0732 -0.4659 -0.2284
 6778W        W26312   5.982   3.419   3.591 -0.1617 -0.1281 -0.1786
 6779W        W26313  12.183  13.827  15.439 -0.0036  0.0708  0.0358
 6780W        W26314  16.823   4.503  16.608 -0.6056 -0.2088 -0.0916
 6781W        W26315  13.316  17.270  12.957 -0.0332  0.0379  0.0778
 6782W        W26316   0.341  14.027   0.029  0.3583  0.0315 -0.0558
 6783W        W26317   7.208   5.514  15.387 -0.0373  0.2265  0.0923
 6784W        W26318  16.777   6.641  14.811  0.0423 -0.1222  0.3028
 6785W        W26319   6.500   2.569   2.418 -0.1005 -0.0982  0.0305
 6786W        W26320   2.653   1.689  13.202 -0.0432 -0.1546  0.0736
 6787W        W26321  15.111   3.956  17.101 -0.1821 -0.0042  0.2454
 6788W        W26322   7.164   3.554   1.794 -0.2420  0.2860 -0.1263
 6789W        W26323   1.214   6.754   3.416  0.0379 -0.1328 -0.3500
 6790W        W26324  14.348   9.780  13.569  0.2723  0.2739 -0.2902
 6791W        W26325   0.024   5.003   4.293  0.0022  0.0042  0.1261
 6792W        W26326   9.538   8.489  16.143  0.4281  0.2363 -0.0801
 6793W        W26327  14.880  13.418   0.636  0.1491 -0.0902  0.0204
 6794W        W26328   8.734   0.991  13.886 -0.1519  0.0670 -0.1906
 6795W        W26329   1.115   0.275  16.903 -0.0647 -0.2131 -0.0641
 6796W        W26330  11.592   6.548  17.075  0.2931 -0.0420  0.2458
 6797W        W26331  11.452   6.170   2.569  0.2862  0.0949 -0.0606
 6798W        W26332  11.149  15.701  13.158  0.0043  0.1967  0.1366
 6799W        W26333  10.445   0.248   1.175 -0.3600 -0.2208 -0.1379
 6800W        W26334   7.508   9.546  14.685  0.3796 -0.0410 -0.0246
 6801W        W26335  17.205  14.070  12.465  0.1019 -0.1639  0.2305
 6802W        W26336  16.678   0.428   0.123 -0.2625  0.0666 -0.1756
 6803W        W26337   4.673  16.734  14.925 -0.1165 -0.0174 -0.0726
 6804W        W26338  15.502   3.487  14.787 -0.2225  0.0057  0.0353
 6805W        W26339  11.934   7.988  15.852  0.0310 -0.0466  0.2470
 6806W        W26340  15.674  16.699  13.245 -0.0239  0.1723  0.1411
 6807W        W26341  13.380  16.751  16.568  0.2156  0.1447  0.0994
 6808W        W26342   8.888  14.407   2.927  0.1922 -0.0778  0.0556
 6809W        W26343  13.874   9.643  14.782 -0.2229  0.0742 -0.0943
 6810W        W26344  13.570   7.498  13.941 -0.0154 -0.1141 -0.0250
 6811W        W26345   7.407  13.898   1.369  0.2560 -0.1566 -0.2574
 6812W        W26346  16.017   5.810  14.089  0.1338  0.2164 -0.0981
 6813W        W26347  12.968   4.686   0.013  0.1282 -0.1866  0.3708
 6814W        W26348  10.779  17.460  16.487 -0.2398 -0.0780 -0.2310
 6815W        W26349   9.357  17.107   4.796  0.3136 -0.0758  0.0275
 6816W        W26350  12.114   0.092   4.632  0.0244 -0.1051 -0.0444
 6817W        W26351   2.263  10.131   0.474 -0.1647 -0.2656  0.3725
 6818W        W26352   8.965   2.988   1.675 -0.3714  0.2370 -0.0812
 6819W        W26353  13.865   4.041  13.319 -0.1552  0.1450  0.1964
 6820W        W26354  15.326   7.713   5.072 -0.0484 -0.1005  0.0495
 6821W        W26355  17.320   5.245   1.222  0.1073 -0.1106  0.2236
 6822W        W26356   0.288  14.923   0.427 -0.2170 -0.0281 -0.0143
 6823W        W26357   9.667   5.214  13.030  0.0738  0.0316 -0.0498
 6824W        W26358   2.684   3.215   4.430 -0.0384 -0.0797  0.1498
 6825W        W26359   4.853  11.154  14.740 -0.3010  0.1367  0.1010
 6826W        W26360   0.610   0.514  16.572 -0.1269  0.2810 -0.1265
 6827W        W26361   3.252   3.795   3.326 -0.1979 -0.0032 -0.0923
 6828W        W26362   8.134   6.336  12.747 -0.0642  0.1921  0.1743
 6829W        W26363  14.182  16.335  15.506 -0.1818 -0.1915 -0.0041
 6830W        W26364  15.264  15.850  15.981  0.1480 -0.0843 -0.1345
 6831W        W26365   6.287   0.966  16.930 -0.2968 -0.0769 -0.0212
 6832W        W26366   7.696  16.280  15.897  0.0428  0.2273 -0.4723
 6833W        W26367   2.435  12.138   1.131 -0.0127 -0.0515  0.0561
 6834W        W26368   4.632   9.509  12.499 -0.0811  0.2307 -0.1862
 6835W        W26369   6.726  14.650   1.235 -0.1921 -0.0916 -0.0600
 6836W        W26370   2.435  13.326  14.188  0.0006  0.2633 -0.1593
 6837W        W26371   8.885  15.876   0.552  0.1055  0.0129 -0.1888
 6838W        W26372  15.997   7.444   4.339 -0.1387 -0.5958  0.1205
 6839W        W26373  17.162   5.536  16.297  0.0139  0.0838  0.1175
 6840W        W26374   3.973  11.467   3.951 -0.2277  0.0734 -0.4923
 6841W        W26375  10.834   0.291  13.383  0.0269 -0.0643  0.1364
 6842W        W26376  12.772   9.310   2.191 -0.2134 -0.4116  0.3026
 6843W        W26377   5.496   3.360   3.711  0.1371  0.1067  0.0488
 6844W        W26378   7.538   6.426   1.925 -0.3058 -0.1169  0.0086
 6845W        W26379   4.839  12.924  16.179  0.2380 -0.0087  0.1130
 6846W        W26380  10.804   4.056   3.103  0.0432  0.0042  0.1670
 6847W        W26381   2.729   8.259   3.764 -0.2449 -0.0544  0.1633
 6848W        W26382   5.890  15.337  12.319 -0.1431  0.1636  0.0664
 6849W        W26383   8.164  10.157   0.812 -0.1675  0.0043  0.2266
 6850W        W26384  13.022   7.609   4.565 -0.1274 -0.0124 -0.5534
 6851W        W26385   8.121   6.002  15.967  0.1039 -0.1020 -0.1151
 6852W        W26386  16.547  10.116  12.136  0.0769  0.0951  0.2235
 6853W        W26387   6.156   2.208  14.864 -0.0524 -0.1060 -0.3260
 6854W        W26388   8.853   0.892   0.347  0.1342  0.2482 -0.1115
 6855W        W26389   0.708   4.590  12.791 -0.0890 -0.0994 -0.1424
 6856W        W26390  16.515   9.571  12.250  0.0227 -0.2597 -0.1566
 6857W        W26391   8.439   6.921   6.474  0.1232  0.2781  0.5356
 6858W        W26392  13.455  15.204  13.937 -0.0449  0.0554  0.0514
 6859W        W26393  10.295   8.260  15.581  0.0787  0.0667 -0.3185
 6860W        W26394   8.933   3.430   1.468 -0.2170 -0.1175 -0.0264
 6861W        W26395   6.967   8.923   1.604 -0.0703  0.2854  0.1924
 6862W        W26396   2.590  14.657   3.463 -0.0075  0.0885 -0.0524
 6863W        W26397  15.684  13.648   4.764 -0.0445 -0.0918  0.3126
 6864W        W26398   8.687   8.143  15.852  0.2564 -0.3730 -0.0446
 6865W        W26399   6.877  13.688  13.435 -0.0777 -0.2706  0.0009
 6866W        W26400  17.071   7.270  14.257 -0.0046 -0.0606 -0.0245
 6867W        W26401  11.392   4.199   1.637 -0.3485 -0.0068  0.0656
 6868W        W26402  13.657  13.998   1.271  0.0192 -0.1966  0.2167
 6869W        W26403  14.129   4.712  16.396  0.2676 -0.2347 -0.0227
 6870W        W26404   8.074   6.240  12.245 -0.1607  0.2524  0.0808
 6871W        W26405  15.244  13.469  15.639  0.0628  0.1219  0.2034
 6872W        W26406  14.791   8.417   3.987 -0.1033 -0.1094 -0.2816
 6873W        W26407  17.093  14.004  13.204  0.3457 -0.0159  0.1033
 6874W        W26408  10.940   9.744  16.356  0.0092  0.1959 -0.1290
 6875W        W26409   0.327  16.485  15.751 -0.0339  0.0133  0.0392
 6876W        W26410  13.877   7.204  12.266  0.1912  0.1930  0.0759
 6877W        W26411  14.671   8.425  16.417  0.3464  0.0310 -0.2637
 6878W        W26412   1.820  16.148   4.810 -0.0409  0.0598 -0.1207
 6879W        W26413  13.719  15.895   0.549 -0.0052 -0.2219 -0.1768
 6880W        W26414   8.857   3.421  13.686 -0.0361  0.2046 -0.2670
 6881W        W26415   6.015   6.325  15.959 -0.3491  0.1576  0.0455
 6882W        W26416  12.272   6.395   2.748  0.2196 -0.2522 -0.2011
 6883W        W26417   0.197   4.633   2.060  0.2798  0.2087  0.0376
 6884W        W26418   8.480   7.057  13.864  0.1721  0.1628  0.0237
 6885W        W26419   9.019  16.930   1.664  0.2949 -0.0459  0.1375
 6886W        W26420   4.688   2.459   4.417 -0.0743 -0.2530  0.0018
 6887W        W26421   2.127   6.559  13.846  0.0337 -0.0661 -0.0523
 6888W        W26422  11.616   6.850   4.452 -0.1143  0.2627  0.0677
 6889W        W26423   0.300   2.956   2.752 -0.3132 -0.1780  0.3235
 6890W        W26424   6.038   9.611   4.218  0.5548  0.2068  0.1076
 6891W        W26425  13.991  10.989  12.258  0.1092  0.0301  0.1332
 6892W        W26426   3.414   7.356  12.857  0.1115  0.1697  0.0457
 6893W        W26427   4.274   9.035  15.413  0.1620 -0.1690  0.1176
 6894W        W26428  11.110  13.262   1.063  0.3116  0.2345  0.2011
 6895W        W26429  16.971   6.455   4.044  0.1682  0.3794  0.2921
 6896W        W26430   9.677  15.664   3.170  0.1683  0.1170 -0.0602
 6897W        W26431   7.150   5.249   3.841 -0.0441 -0.0757 -0.3105
 6898W        W26432  13.936   8.359  14.342  0.1638 -0.2081  0.0762
 6899W        W26433  11.579  17.137   0.015  0.0699 -0.0668  0.1405
 6900W        W26434   8.232   6.468  13.240  0.0221 -0.2562 -0.2902
 6901W        W26435   6.807   8.479   1.442  0.2064  0.0445  0.0526
 6902W        W26436  17.032   1.762   2.885 -0.3227 -0.0641 -0.0419
 6903W        W26437  11.062   1.513  16.014 -0.2380  0.5210 -0.0862
 6904W        W26438   8.839   1.747  12.408 -0.1339  0.3110  0.2289
 6905W        W26439   8.081   9.139   4.309 -0.0696 -0.0359  0.0780
 6906W        W26440   5.024   9.370  17.027  0.0993 -0.1186  0.3459
 6907W        W26441   8.631  11.811   2.415  0.1427 -0.3116 -0.0427
 6908W        W26442   4.988  16.950  16.104 -0.0178 -0.0898 -0.1596
 6909W        W26443  14.711  12.358  13.044 -0.1423  0.2062  0.1318
 6910W        W26444   3.198  11.242   3.269  0.3720 -0.0505 -0.3342
 6911W        W26445  16.471   6.717  13.936 -0.0673 -0.1047  0.1590
 6912W        W26446  10.654  15.232   1.859 -0.1009  0.2458 -0.0971
 6913W        W26447  11.909  11.585   4.352  0.1831 -0.1516  0.1079
 6914W        W26448   8.261   0.985  13.702  0.1040  0.0786 -0.0373
 6915W        W26449  16.707  14.385  16.411  0.2159  0.0610  0.0425
 6916W        W26450  16.120   0.448   4.065 -0.0470 -0.0502 -0.1151
 6917W        W26451  12.301  16.150   0.831  0.0363 -0.0337  0.0640
 6918W        W26452   7.426   0.285   3.844 -0.1277  0.1722  0.1031
 6919W        W26453   5.674  10.020   1.345 -0.2357  0.2206 -0.1101
 6920W        W26454  16.361  12.042  12.393  0.0110 -0.1509  0.0286
 6921W        W26455   1.226  12.389  14.462  0.0478 -0.1407 -0.0750
 6922W        W26456  13.731   2.319  14.945 -0.0766 -0.1909 -0.0103
 6923W        W26457   2.727   9.280   4.237  0.3711 -0.0685 -0.0189
 6924W        W26458   7.341  10.521   4.211  0.0491 -0.0786  0.0676
 6925W        W26459   7.560  14.936  14.585  0.3606  0.0415  0.0417
 6926W        W26460   2.092   1.958   3.704 -0.2791 -0.0238 -0.2496
 6927W        W26461   3.163  15.560   3.564 -0.1192  0.1325  0.1805
 6928W        W26462  16.571   3.593   1.575  0.0281  0.0670 -0.1277
 6929W        W26463   1.310   5.782  13.875  0.2183 -0.0979 -0.1134
 6930W        W26464  11.540   0.830  15.943 -0.0940  0.1510 -0.1550
 6931W        W26465  15.292   2.461   2.345  0.2029  0.0260  0.2726
 6932W        W26466   0.292   3.307   3.196 -0.1116  0.0057  0.0286
 6933W        W26467  17.425  12.690  12.170  0.2734  0.0907 -0.0305
 6934W        W26468  12.648   5.218  13.660  0.3684 -0.1190 -0.1256
 6935W        W26469  17.035  10.873  16.805  0.1377  0.0521  0.1856
 6936W        W26470  10.441  12.975   1.167 -0.0846 -0.0017  0.2355
 6937W        W26471   0.417  13.098  15.797 -0.1352  0.1180  0.0393
 6938W        W26472  17.230   1.316  16.832  0.0672  0.1178 -0.1984
 6939W        W26473   3.414   7.439  16.531  0.2062  0.2502  0.1484
 6940W        W26474   8.987   6.855   0.754 -0.0530 -0.2030 -0.0549
 6941W        W26475   7.390   1.959  12.238  0.0667  0.1720  0.0849
 6942W        W26476  15.646   9.350   1.352 -0.1525  0.0505 -0.1697
 6943W        W26477  13.377  15.725  13.858 -0.2276  0.1491 -0.2762
 6944W        W26478   4.076   0.069   2.773  0.0585 -0.0465  0.0916
 6945W        W26479   7.122  11.417  16.543  0.1875 -0.0196  0.1389
 6946W        W26480   6.353  11.654  14.471 -0.1843  0.1331  0.1499
 6947W        W26481   2.677   2.878  16.074  0.2609 -0.2180 -0.0297
 6948W        W26482  17.341   5.029  12.822  0.0372  0.1912 -0.1301
 6949W        W26483   5.321  10.436  14.407 -0.1280 -0.0030 -0.2921
 6950W        W26484  11.747   3.658  11.975  0.2587  0.1096 -0.1563
 6951W        W26485  14.018  12.898  12.996  0.2776  0.0844  0.0966
 6952W        W26486   2.877   0.305  14.518 -0.0057  0.1772  0.2118
 6953W        W26487   7.450   6.941   3.019  0.1865  0.2082  0.0441
 6954W        W26488   0.431  10.711  13.404  0.1234  0.0393 -0.2475
 6955W        W26489  13.912  10.199  14.729  0.0950  0.0807  0.1934
 6956W        W26490   6.135  11.095  14.300 -0.1502 -0.1486  0.3614
 6957W        W26491  13.353  13.960  12.214  0.3086 -0.0678 -0.0559
 6958W        W26492   0.137  14.329   2.974  0.1575 -0.1130 -0.0460
 6959W        W26493  14.224   3.748   1.326 -0.1140  0.2245 -0.1949
 6960W        W26494  10.430   6.700  15.041 -0.4544  0.3063 -0.2835
 6961W        W26495  10.522  15.239   3.367 -0.0197 -0.0095 -0.0414
 6962W        W26496  16.951   9.646  16.402 -0.2332  0.0466  0.0250
 6963W        W26497   9.895  13.482  12.517 -0.0488  0.1287  0.1821
 6964W        W26498  12.372  14.372  15.500  0.1580  0.1788 -0.1547
 6965W        W26499  16.433   2.149   1.048 -0.1491 -0.2531  0.0785
 6966W        W26500   7.057   4.078   1.725  0.1048  0.1738 -0.0007
 6967W        W26501   4.345   2.998  17.193 -0.2771  0.0222  0.0101
 6968W        W26502  16.595   0.526   1.507  0.1264  0.1724  0.0077
 6969W        W26503  15.611   3.480  15.683 -0.0815 -0.4197 -0.0296
 6970W        W26504   6.460   2.000  11.273 -0.3566  0.1295 -0.1772
 6971W        W26505   6.602  15.346  17.202 -0.1932  0.1927  0.0840
 6972W        W26506  10.463  11.823  12.671 -0.0117  0.0991  0.2608
 6973W        W26507   5.652   1.520  16.988  0.0704 -0.1596 -0.0337
 6974W        W26508  10.228  13.885  16.112  0.0721  0.3742  0.1889
 6975W        W26509  14.979  13.142  15.369  0.1927  0.0604 -0.2253
 6976W        W26510  12.070   9.942   3.410 -0.1582  0.1155 -0.0797
 6977W        W26511  15.971   1.253   2.247 -0.1705 -0.2692  0.3266
 6978W        W26512   2.934   7.279   3.176  0.1072 -0.0300 -0.1764
 6979W        W26513  15.059  10.881   1.176 -0.1190  0.1802  0.3090
 6980W        W26514  12.136  12.865  16.229  0.3220  0.1233  0.2248
 6981W        W26515  10.026  17.091   2.825 -0.0744  0.2707 -0.0186
 6982W        W26516  13.527   9.293  14.523 -0.0122 -0.0779 -0.0739
 6983W        W26517   6.223   1.507   4.202 -0.2637  0.1640  0.2010
 6984W        W26518   8.745  12.662  13.411  0.0061 -0.1766 -0.1291
 6985W        W26519  10.257   9.814  14.574  0.0339  0.0796 -0.1432
 6986W        W26520   6.843  15.944  12.773  0.0475 -0.0133  0.0387
 6987W        W26521   4.904  13.297   4.820  0.1010 -0.0425 -0.0020
 6988W        W26522   3.285   8.791   4.781  0.0736  0.0318 -0.0795
 6989W        W26523  12.700   9.314  16.426  0.1374  0.1108 -0.1946
 6990W        W26524   0.966  16.334  15.910  0.0570 -0.2437  0.0011
 6991W        W26525   7.782  15.427  15.744 -0.1515  0.2860 -0.0829
 6992W        W26526   7.974   0.737  16.974 -0.0526 -0.3127 -0.1468
 6993W        W26527  17.259  14.877  13.292  0.1259 -0.1384 -0.1080
 6994W        W26528   2.073  13.025   4.628 -0.0978  0.0716 -0.0719
 6995W        W26529  12.423   4.554   4.753 -0.1609  0.1431 -0.1165
 6996W        W26530  17.156  12.353  12.878  0.3636  0.1096 -0.3438
 6997W        W26531   3.205   7.572   4.098 -0.0390 -0.0497 -0.1177
 6998W        W26532  14.123  17.446  14.338  0.0122 -0.1939 -0.0018
 6999W        W26533   2.612   0.735   1.731  0.0400 -0.0119 -0.1666
 7000W        W26534   1.933   0.693   2.604 -0.1871 -0.2163  0.0992
 7001W        W26535  10.381   5.312  14.077  0.3605 -0.2759 -0.1989
 7002W        W26536   6.658  11.531   1.463 -0.4366  0.1748 -0.0425
 7003W        W26537  14.483   5.384  15.544 -0.0480  0.0091  0.0841
 7004W        W26538   3.807  13.332   4.478 -0.0496  0.3606  0.1543
 7005W        W26539  13.812   0.501  16.844  0.0935 -0.3928  0.1296
 7006W        W26540  14.542  12.638   4.775 -0.0162 -0.1714 -0.1651
 7007W        W26541   1.464   0.040   0.660  0.1822  0.2326 -0.1404
 7008W        W26542  10.354  10.179  12.679  0.0466  0.0359  0.0204
 7009W        W26543   2.929   4.741  12.148 -0.0281 -0.1625  0.0278
 7010W        W26544  16.773   7.155  13.872 -0.0619 -0.0320 -0.1507
 7011W        W26545   3.944   3.044   2.257  0.2952 -0.3672  0.1995
 7012W        W26546   1.648   1.297  13.720  0.1714  0.1019  0.0698
 7013W        W26547   6.612  16.917   0.401 -0.3163 -0.0099 -0.4614
 7014W        W26548  11.459  10.021   2.471  0.3039  0.1279 -0.0562
 7015W        W26549   6.160   4.648  13.664 -0.1985  0.0650  0.0569
 7016W        W26550   6.764  16.383  15.938  0.2077 -0.0510 -0.0499
 7017W        W26551  10.663   5.107  12.973 -0.2163 -0.0473  0.0548
 7018W        W26552   8.479   0.119   3.806 -0.1019  0.1662 -0.1834
 7019W        W26553   7.975   7.101  13.803 -0.1661 -0.0336 -0.0840
 7020W        W26554  13.770  10.027   4.128 -0.2437  0.1474 -0.0720
 7021W        W26555   1.319   3.275   0.169  0.3611  0.0221 -0.0547
 7022W        W26556   3.937   9.254   2.415 -0.3275  0.0759 -0.0619
 7023W        W26557   6.371  13.246   2.014 -0.1588 -0.2315  0.5165
 7024W        W26558   3.603   1.196  15.228 -0.1396 -0.0412  0.3382
 7025W        W26559   2.298   9.496   4.671 -0.0618 -0.1423  0.1095
 7026W        W26560   5.977  13.201   4.406  0.0782 -0.4277 -0.0019
 7027W        W26561   5.771  16.187   1.920  0.1368 -0.0938  0.1323
 7028W        W26562  16.401  12.660   3.562  0.2014 -0.3725 -0.1891
 7029W        W26563   0.386   4.236  13.045 -0.2785 -0.2764  0.0809
 7030W        W26564   6.265   9.373   3.301  0.0898  0.1104 -0.0508
 7031W        W26565   5.267  14.531  13.859 -0.1806  0.0820  0.0488
 7032W        W26566  11.293   4.093   1.037 -0.2789  0.2075  0.0871
 7033W        W26567  12.242  11.201  13.778 -0.0155  0.0238 -0.1143
 7034W        W26568  16.416  10.377   1.471 -0.3240  0.2413  0.1217
 7035W        W26569   5.066   2.897   3.606  0.0769  0.1635 -0.1887
 7036W        W26570   3.148   4.525  15.080  0.1474  0.1280  0.0203
 7037W        W26571   0.132  13.552  17.283 -0.1143  0.1149 -0.1612
 7038W        W26572   3.643   0.955  12.755  0.0592 -0.0749  0.2255
 7039W        W26573  14.947  16.876   1.929  0.2324  0.0312  0.1766
 7040W        W26574   4.966   1.662  15.916 -0.0014  0.0211  0.1098
 7041W        W26575   8.086   6.562   1.857  0.1387 -0.1608 -0.2147
 7042W        W26576  11.756  13.389  12.522  0.3777  0.0543  0.2330
 7043W        W26577  14.573  13.355  12.323  0.1947 -0.0598  0.0446
 7044W        W26578  16.195  16.740   2.824  0.3558 -0.1221  0.0871
 7045W        W26579  13.826  17.378   0.894 -0.0337  0.0380 -0.1646
 7046W        W26580   4.902   9.763   2.758 -0.0852  0.1406 -0.0239
 7047W        W26581   6.600   6.762  16.403 -0.1634  0.1867 -0.1286
 7048W        W26582   4.470  12.180   5.041  0.1355 -0.2381 -0.2694
 7049W        W26583   8.904   9.315  13.091  0.3670 -0.2358 -0.1450
 7050W        W26584   7.050  11.414   5.088  0.1291  0.2245  0.2264
 7051W        W26585   5.170  17.321   3.007 -0.0198  0.1029  0.0727
 7052W        W26586   8.529   1.517   0.909  0.0626  0.0151 -0.0207
 7053W        W26587   6.782   3.533  14.364  0.1764  0.2625  0.2621
 7054W        W26588   6.634  13.761  15.464  0.1659  0.1659  0.1540
 7055W        W26589   2.683   4.515  13.014  0.1115 -0.5118 -0.1078
 7056W        W26590  12.370  11.874   4.287  0.0755 -0.3293 -0.2328
 7057W        W26591  13.652   1.705  11.274  0.1762 -0.1083  0.1709
 7058W        W26592   6.891  11.005   0.844 -0.1869  0.0283  0.1610
 7059W        W26593  11.713  16.791   2.227 -0.4025 -0.0387 -0.0363
 7060W        W26594  11.706   0.543   5.607 -0.4450  0.1547 -0.1696
 7061W        W26595  17.446  14.334   1.644  0.1250  0.0344  0.1287
 7062W        W26596   4.165   6.756   4.993 -0.0603 -0.0918 -0.0957
 7063W        W26597  11.906  14.692  13.088  0.2735 -0.2726 -0.2176
 7064W        W26598  16.895   9.837  14.642 -0.1944  0.3445  0.0746
 7065W        W26599   4.889   8.490  16.363  0.1128 -0.0451 -0.2037
 7066W        W26600   6.068  13.713  15.439  0.0107 -0.0532  0.1090
 7067W        W26601   5.820   8.801   0.578 -0.3030  0.2298  0.0374
 7068W        W26602   9.331   9.411   4.231 -0.0251  0.0256 -0.2561
 7069W        W26603   3.845   2.695  15.466 -0.0434 -0.0532  0.0522
 7070W        W26604   8.184   9.549   1.575 -0.0686  0.1258  0.0611
 7071W        W26605  12.550  10.646   0.761 -0.1695 -0.1182 -0.1081
 7072W        W26606  17.169   4.171  14.940  0.0207  0.3514 -0.2830
 7073W        W26607   5.939   6.082   4.957 -0.5486 -0.0382  0.1724
 7074W        W26608   7.673   1.025  14.411 -0.0248  0.0647  0.1022
 7075W        W26609   4.395   5.690  12.801  0.0480 -0.4068  0.0510
 7076W        W26610  16.183   7.264   3.335 -0.1585 -0.1520 -0.1322
 7077W        W26611   0.038   3.892  13.238  0.1107 -0.0426  0.0037
 7078W        W26612   4.859   2.983  13.593 -0.2091 -0.1121 -0.1800
 7079W        W26613   8.482  11.135  16.043  0.2104 -0.0062 -0.1381
 7080W        W26614  12.483  10.926   1.199  0.0480 -0.1068  0.1048
 7081W        W26615  13.727   9.362   0.007  0.2097  0.2169 -0.0171
 7082W        W26616  11.384  17.041   1.260  0.0704 -0.2994  0.1014
 7083W        W26617  14.455   8.121  16.760 -0.2396 -0.0047  0.0949
 7084W        W26618  10.628  16.537  12.779  0.0260 -0.0202  0.1550
 7085W        W26619   6.057   4.703   0.663 -0.2692  0.2426  0.1116
 7086W        W26620   4.467   2.812   2.109  0.0858 -0.0709  0.2943
 7087W        W26621   2.902   1.443  16.471 -0.0533  0.3195  0.1699
 7088W        W26622   4.369   5.396  16.715  0.0014  0.0622  0.2383
 7089W        W26623  10.031  10.520  16.569  0.0503  0.1414 -0.3374
 7090W        W26624   3.461   9.700   0.532  0.0299  0.0749  0.2567
 7091W        W26625  15.005   6.518   5.252 -0.0282 -0.0234 -0.0978
 7092W        W26626   6.940  12.694  15.893 -0.2751 -0.0855 -0.2412
 7093W        W26627  14.949  17.316  13.835 -0.0998  0.1639 -0.0917
 7094W        W26628   9.233   5.278   6.048  0.0530  0.0857 -0.1363
 7095W        W26629  15.361  12.853   0.529  0.0212  0.1671 -0.2501
 7096W        W26630  16.616   7.064  14.316  0.0397 -0.0919 -0.1866
 7097W        W26631   0.385   3.108  14.826 -0.2210  0.1054 -0.2032
 7098W        W26632   2.255  17.357  12.431  0.0959  0.3092  0.1267
 7099W        W26633  14.646  14.070  15.814  0.1571 -0.1085 -0.1748
 7100W        W26634   5.979   8.880   2.402 -0.0099  0.3518 -0.0623
 7101W        W26635   4.072   1.305  17.186  0.1854  0.1344  0.1888
 7102W        W26636  14.360   8.627  17.186 -0.3389  0.3428 -0.1303
 7103W        W26637   6.498  16.286   5.002 -0.1776 -0.1671 -0.0025
 7104W        W26638  15.840   4.054  13.415  0.0664 -0.0537 -0.1893
 7105W        W26639   5.031   0.985   2.174 -0.1044  0.3338  0.1847
 7106W        W26640  13.867   7.635  15.077  0.0765 -0.0977 -0.1170
 7107W        W26641   1.698   4.562   2.274 -0.1428 -0.2793 -0.0445
 7108W        W26642   0.439   3.763   1.686 -0.3586  0.0923  0.1260
 7109W        W26643  11.379   8.073  13.844  0.3716 -0.1821 -0.1250
 7110W        W26644   9.086   5.493  15.048  0.2327 -0.0650 -0.1749
 7111W        W26645  11.510  13.081  13.943 -0.4158 -0.0474 -0.1378
 7112W        W26646  13.142  11.606   0.654  0.0635 -0.2827  0.0556
 7113W        W26647  12.231  12.362  16.117 -0.1241  0.0098  0.0347
 7114W        W26648   0.759   2.412  12.463  0.1298 -0.0512  0.2352
 7115W        W26649   6.972   5.492  16.678  0.0181 -0.0522  0.2243
 7116W        W26650   5.492   0.262  12.228  0.2454  0.2329  0.0437
 7117W        W26651  12.547   4.111   2.886 -0.1365 -0.2058 -0.0209
 7118W        W26652  16.569  16.408  12.588  0.1033  0.1608  0.1278
 7119W        W26653   8.006  17.291   0.122  0.0543  0.0272  0.0560
 7120W        W26654  13.878   7.269   0.932 -0.3966 -0.0336 -0.0163
 7121W        W26655  12.718   5.313   3.425 -0.2542  0.2387  0.2299
 7122W        W26656  11.478  15.466   2.902  0.1670 -0.2475  0.3886
 7123W        W26657  11.592   8.769   1.798  0.0772 -0.2069  0.3062
 7124W        W26658   1.286   9.782   2.055 -0.0715  0.0121 -0.3143
 7125W        W26659  10.607   2.861   4.510  0.1313  0.1694 -0.0865
 7126W        W26660   8.014  11.023  15.755 -0.1860  0.0952 -0.1484
 7127W        W26661   8.213   2.946  17.164  0.1880  0.2235  0.1322
 7128W        W26662  13.948   7.839  14.000  0.0091  0.1719 -0.1313
 7129W        W26663   2.691  14.141   0.135  0.1353  0.0375  0.0041
 7130W        W26664   1.475   1.885  15.096 -0.1545  0.0353 -0.0634
 7131W        W26665   7.253  13.295   0.000  0.2230 -0.1640 -0.1597
 7132W        W26666  12.357  10.023   1.516  0.3173 -0.0734  0.2902
 7133W        W26667  13.289  17.056  14.222 -0.0743  0.0705 -0.2358
 7134W        W26668   8.557   5.463  14.324  0.0688  0.0155 -0.0659
 7135W        W26669   1.682  14.986   1.178 -0.0772 -0.2655  0.0649
 7136W        W26670   4.992  15.877  16.656 -0.1431  0.2836  0.1711
 7137W        W26671   2.515  15.997   0.033  0.0644 -0.0374  0.3569
 7138W        W26672  10.200  11.506   1.594  0.1805  0.0199 -0.2713
 7139W        W26673  13.016  10.070  12.782 -0.0725 -0.2985  0.0410
 7140W        W26674  15.439  10.369   5.095 -0.1124 -0.2190  0.4033
 7141W        W26675   6.941   6.020   2.970 -0.1382 -0.1763 -0.1411
 7142W        W26676   0.653  17.193  16.307 -0.0676 -0.1862  0.3405
 7143W        W26677   8.262  16.664   0.859 -0.3062 -0.2522  0.3091
 7144W        W26678   0.757   9.402  17.289 -0.1417 -0.0463 -0.1779
 7145W        W26679  17.229  14.375   4.721  0.0718  0.0266  0.2935
 7146W        W26680   7.781   9.307  12.504  0.0991 -0.0192 -0.1402
 7147W        W26681   0.288   7.308   0.149 -0.0898 -0.0443  0.5747
 7148W        W26682  10.969   7.791  13.751 -0.1153 -0.2165  0.0487
 7149W        W26683   9.477  16.698  15.193  0.1511 -0.1322  0.0787
 7150W        W26684   8.134   7.733   4.492  0.1402  0.0339  0.1165
 7151W        W26685  15.179   2.790   5.178  0.1432 -0.0318 -0.3032
 7152W        W26686  13.729  12.960   1.305  0.3218 -0.0661 -0.0421
 7153W        W26687  14.049  12.807  17.125  0.0827  0.2805  0.4555
 7154W        W26688  16.599   7.839  16.181 -0.0344 -0.1877 -0.2883
 7155W        W26689   8.874   9.425  14.506 -0.1350  0.3582  0.1903
 7156W        W26690   5.623   9.645  15.407  0.2536  0.2896  0.0853
 7157W        W26691  12.842   9.824  14.570  0.1381  0.1957 -0.1233
 7158W        W26692  12.095  13.081   2.572 -0.0799 -0.0812 -0.0980
 7159W        W26693  13.160   9.450  16.134 -0.1070  0.1170 -0.0865
 7160W        W26694   4.647  10.924   2.014 -0.0871 -0.3669 -0.0239
 7161W        W26695  15.168   8.032   3.486  0.1670  0.1191  0.3529
 7162W        W26696  10.204   6.010   2.777  0.3700 -0.1699  0.0070
 7163W        W26697   9.710   1.928  17.011 -0.0118 -0.3111  0.0470
 7164W        W26698  15.236   3.831   4.320 -0.1956  0.4142  0.5010
 7165W        W26699  17.148   8.523   1.259 -0.0132  0.3398 -0.1383
 7166W        W26700  16.361   8.065   0.428 -0.1025  0.0438 -0.4214
 7167W        W26701   9.638  12.762  13.043 -0.2740  0.0874  0.2433
 7168W        W26702  10.878   9.105  12.410  0.1900 -0.3037 -0.0083
 7169W        W26703  17.203   4.952  15.190 -0.0554 -0.0114 -0.0864
 7170W        W26704   1.616   8.996  13.555 -0.2684 -0.2954  0.1679
 7171W        W26705  13.977  13.938   3.912 -0.1544  0.1759 -0.1252
 7172W        W26706   1.344   8.344  15.097  0.0132 -0.3182 -0.1202
 7173W        W26707   0.052   3.918  15.226 -0.0315 -0.0958  0.0959
 7174W        W26708  15.950   5.318   3.610  0.2740 -0.1258 -0.1362
 7175W        W26709   0.740   5.194   5.010 -0.1823  0.1434  0.1926
 7176W        W26710  17.020  13.323   0.422 -0.1817  0.2674 -0.1034
 7177W        W26711  16.148  10.147  15.801 -0.3236 -0.1191  0.1574
 7178W        W26712   9.078   4.046   2.812  0.0280  0.0807  0.0325
 7179W        W26713  15.528  16.015  12.077 -0.1068  0.0242  0.1065
 7180W        W26714   2.327   9.104   2.808 -0.0327  0.1160 -0.1602
 7181W        W26715   4.987   6.752  14.765  0.1545  0.0815  0.4805
 7182W        W26716  11.450  12.650   3.634  0.2020  0.1003 -0.2598
 7183W        W26717   5.102  12.155   4.267  0.0247 -0.2176  0.0744
 7184W        W26718  13.187   9.595  14.315  0.0009  0.3389  0.0040
 7185W        W26719   2.358   3.203   0.469  0.0130 -0.2318  0.1511
 7186W        W26720   6.113   3.860   4.166  0.2036  0.0250  0.1560
 7187W        W26721  14.938  17.139   2.379  0.0494  0.0712  0.1056
 7188W        W26722   6.516   7.751   4.223  0.5255  0.3248  0.0555
 7189W        W26723  11.291   5.771  16.158  0.1423 -0.1079  0.1027
 7190W        W26724  16.812  17.197  16.301  0.0390  0.0204  0.0243
 7191W        W26725   9.592   6.655   3.793  0.2527  0.0596  0.0372
 7192W        W26726  13.175   7.087   0.222 -0.2754  0.0233 -0.1169
 7193W        W26727  15.891   6.302   0.660 -0.1133 -0.1254  0.1243
 7194W        W26728  16.801  14.360   4.361  0.4694  0.0882 -0.1529
 7195W        W26729   6.650   1.831   4.142  0.0155  0.0933  0.1945
 7196W        W26730  13.430  12.992   2.642  0.0612  0.1825 -0.2364
 7197W        W26731   7.189   7.841   1.154  0.0965  0.3145 -0.1670
 7198W        W26732   7.062   5.463   3.367 -0.1824 -0.0279 -0.0871
 7199W        W26733  13.888   2.975  14.194 -0.0409  0.3216 -0.1210
 7200W        W26734  12.382  12.557  14.109 -0.0264 -0.0667 -0.0131
 7201W        W26735   7.345   0.136   1.031 -0.0145  0.1883  0.1367
 7202W        W26736   4.262   3.299   1.927 -0.1960  0.1941  0.1164
 7203W        W26737   5.917   3.902  12.947  0.0246 -0.0972  0.0216
 7204W        W26738  11.901  15.428   3.920  0.0224 -0.1430  0.0838
 7205W        W26739   4.990   7.011   3.103 -0.0755 -0.3475 -0.0686
 7206W        W26740   7.349  15.848   0.396  0.0756 -0.0039  0.0332
 7207W        W26741   5.871  16.685   4.512  0.1871 -0.1167 -0.2235
 7208W        W26742  13.794  13.233  13.929 -0.2848 -0.5315  0.1944
 7209W        W26743   1.998   1.910  16.643 -0.0010  0.3089  0.1294
 7210W        W26744   0.516  11.177  12.807 -0.1663  0.0329  0.5145
 7211W        W26745  15.163   3.853  15.907  0.0944  0.0755 -0.1855
 7212W        W26746   5.364   5.689  14.145  0.0876  0.0029 -0.0930
 7213W        W26747   6.090   1.419  16.715  0.0214  0.0504 -0.2249
 7214W        W26748  12.503  11.156  14.931  0.0245 -0.1014  0.3964
 7215W        W26749   8.609   4.647  13.949 -0.1053  0.0132 -0.0406
 7216W        W26750   6.338  17.291  13.753 -0.1091 -0.0183  0.1270
 7217W        W26751   0.503  13.886  13.923 -0.1588  0.0016  0.0858
 7218W        W26752   9.798  10.548   1.206  0.1436  0.0270  0.1331
 7219W        W26753  13.185   5.489   0.592  0.0566 -0.0759 -0.0421
 7220W        W26754   0.402  16.851   1.958  0.0295 -0.0478 -0.0248
 7221W        W26755  16.871   2.664  13.287 -0.2102 -0.1131 -0.1751
 7222W        W26756   2.044   6.663  16.424  0.0877  0.3562  0.2667
 7223W        W26757   9.862  15.421   1.423  0.2223  0.1762 -0.0321
 7224W        W26758   1.628   4.542   1.559 -0.0127  0.1836 -0.0091
 7225W        W26759  12.591   8.690   3.963 -0.4290 -0.0157  0.1962
 7226W        W26760   1.460  14.054  14.896 -0.0757  0.0471 -0.2122
 7227W        W26761   4.999   7.883  11.173 -0.1511  0.2958  0.1593
 7228W        W26762   7.507  15.806  16.101  0.1316 -0.1511 -0.4354
 7229W        W26763   3.171  12.435   1.916 -0.1413  0.1787  0.4073
 7230W        W26764   8.539  16.712  11.378  0.0347  0.1650  0.1010
 7231W        W26765   0.491   1.510   0.192  0.4174  0.0626 -0.0083
 7232W        W26766   7.984  16.427   3.209  0.2033 -0.1712  0.0656
 7233W        W26767   5.351  12.467  13.462 -0.2084  0.2653  0.1429
 7234W        W26768   4.812   9.239  13.833 -0.2698 -0.1762  0.1075
 7235W        W26769  11.890  12.820  15.260 -0.1096 -0.3144 -0.0317
 7236W        W26770  11.482  13.463   3.492 -0.2616 -0.1282 -0.0836
 7237W        W26771   4.901   7.935   4.788 -0.0470 -0.0912  0.0948
 7238W        W26772   2.227  12.563   4.695  0.0427  0.1148 -0.0216
 7239W        W26773   0.599   6.664  15.693  0.1789 -0.1772  0.0953
 7240W        W26774   9.374   2.616  13.364  0.0289 -0.0400  0.1961
 7241W        W26775  12.486  12.992  16.596  0.1192 -0.0434 -0.2123
 7242W        W26776  14.012   0.494  12.494  0.0210  0.3302  0.2445
 7243W        W26777  12.833  10.688  13.303  0.2917  0.1503  0.0449
 7244W        W26778  14.578   2.328  16.973 -0.2148  0.0069  0.0638
 7245W        W26779   2.076  10.939   3.815 -0.0739  0.1255  0.0962
 7246W        W26780   2.671  12.607   2.514  0.3034  0.0483  0.0441
 7247W        W26781  16.768  11.422  16.076  0.0367 -0.2668 -0.0096
 7248W        W26782   9.971  15.283   3.052 -0.1242 -0.0924  0.0975
 7249W        W26783  15.644   9.817   0.167  0.0636  0.1365 -0.2047
 7250W        W26784   9.176   9.270  13.546  0.0913 -0.0244  0.0419
 7251W        W26785   0.212  12.497   4.518 -0.3032  0.1625 -0.1146
 7252W        W26786   9.321   7.811  17.055  0.4032 -0.0794  0.1776
 7253W        W26787   2.502   5.071  14.901  0.0517 -0.3614  0.0783
 7254W        W26788  10.082   2.163   1.408 -0.1307 -0.0245 -0.1856
 7255W        W26789  13.607   7.325  13.351 -0.0038  0.1340 -0.0332
 7256W        W26790  11.397  11.078  16.875 -0.0059 -0.3656  0.0421
 7257W        W26791  10.689   7.712   3.154 -0.0173  0.0707  0.1441
 7258W        W26792   1.514   2.287  15.407 -0.1194  0.0844 -0.2238
 7259W        W26793  17.289   4.783   5.230  0.0653  0.1190 -0.0311
 7260W        W26794   0.357   2.287  16.006  0.0660 -0.1612  0.0016
 7261W        W26795   2.360   3.022  12.849 -0.0837  0.3066  0.0055
 7262W        W26796   1.960   6.289  14.304 -0.0849  0.0768  0.0908
 7263W        W26797   5.386  10.577  12.940  0.0755  0.0945  0.2390
 7264W        W26798  15.853   1.433   0.528 -0.0784  0.1065 -0.0394
 7265W        W26799  17.393   8.959   3.501 -0.0922 -0.1834  0.1383
 7266W        W26800   2.069   1.009   0.930 -0.3540 -0.0038 -0.2115
 7267W        W26801  13.880  10.976   2.712  0.3818  0.1612 -0.0069
 7268W        W26802   3.767  15.938  13.544  0.0603  0.0143  0.0518
 7269W        W26803  12.820   1.737   3.293 -0.0402 -0.0886 -0.0718
 7270W        W26804   0.355   5.601  15.511 -0.2649 -0.0510 -0.1009
 7271W        W26805   6.419  12.968  13.880  0.2354 -0.3293  0.0603
 7272W        W26806   3.053   3.369  16.421  0.2458  0.0015  0.3158
 7273W        W26807  16.802  15.553   2.844  0.0671  0.0831  0.0405
 7274W        W26808   3.103  13.618   1.653 -0.0153 -0.1523 -0.0394
 7275W        W26809   2.687   6.111   0.406 -0.1933 -0.1187  0.0416
 7276W        W26810  14.448  14.258  16.321 -0.0336 -0.0359  0.0697
 7277W        W26811   6.645   7.040  14.508  0.1268  0.0297 -0.4270
 7278W        W26812  11.998   8.018   1.896  0.0195 -0.0638 -0.2796
 7279W        W26813   9.998   6.183   4.105  0.2804 -0.2447 -0.0174
 7280W        W26814  13.599  14.947  16.030 -0.1256 -0.0300  0.0047
 7281W        W26815   9.186  12.396   2.545  0.3202  0.2570 -0.0614
 7282W        W26816   0.057  10.432  17.161  0.2308  0.0393 -0.1083
 7283W        W26817   0.624   5.683   3.803 -0.0465 -0.0987  0.2847
 7284W        W26818   3.879  14.824  17.177  0.1832 -0.1257 -0.1397
 7285W        W26819   5.947  10.618   4.017 -0.3506 -0.2680  0.1710
 7286W        W26820   8.824   1.778   2.869  0.2493  0.2170  0.0025
 7287W        W26821  16.242  12.709  16.813  0.2340  0.2111 -0.0403
 7288W        W26822  12.731  11.763  16.636 -0.1014 -0.2649  0.1615
 7289W        W26823   2.170   2.975  15.838  0.1240 -0.0200  0.0315
 7290W        W26824  10.897   0.439  16.161 -0.1442  0.0262  0.1000
 7291W        W26825   7.313  11.936  16.690  0.2565 -0.2801  0.1442
 7292W        W26826  14.805  14.488   0.583 -0.0226  0.0504 -0.2252
 7293W        W26827  12.669  12.449   4.942 -0.0743 -0.3453 -0.0699
 7294W        W26828   2.845   3.161  12.676  0.0771  0.0536  0.0321
 7295W        W26829  12.762  17.142  14.618  0.0500 -0.2195  0.1232
 7296W        W26830   7.916  12.832  12.880  0.1171  0.1237 -0.1738
 7297W        W26831  11.500  12.871  12.960  0.0993  0.1181 -0.0199
 7298W        W26832  15.631   2.416  13.266 -0.0029  0.0795  0.1707
 7299W        W26833   3.211   2.258   4.859 -0.2178  0.0036 -0.0321
 7300W        W26834   1.896  14.731   3.604 -0.2323  0.1720 -0.1099
 7301W        W26835  13.687  15.680  12.429  0.0278 -0.2630 -0.0030
 7302W        W26836   9.303   7.211  14.017  0.1104 -0.3112  0.2267
 7303W        W26837  10.018   5.747  11.465 -0.1310  0.1990  0.1934
 7304W        W26838  17.333   7.779   2.758 -0.3384 -0.1134 -0.0065
 7305W        W26839  10.443   8.497   3.544  0.3396 -0.1187 -0.0734
 7306W        W26840  16.907  12.694   4.588  0.1311  0.0172 -0.1047
 7307W        W26841   4.791  14.411  14.218 -0.0184  0.1356 -0.1603
 7308W        W26842   5.280  12.773   1.149  0.0400 -0.1454  0.2073
 7309W        W26843   2.263  17.116  14.228  0.2488  0.1671  0.0157
 7310W        W26844  11.852   4.011   3.195  0.0059 -0.1472  0.1369
 7311W        W26845   1.249  15.858  14.457 -0.0228  0.2356 -0.0970
 7312W        W26846  12.317   8.155   1.501  0.5176  0.1045  0.1957
 7313W        W26847  15.229   1.615   3.271 -0.2496 -0.3498  0.0172
 7314W        W26848   9.413  12.999  17.097 -0.1220  0.1262 -0.1143
 7315W        W26849  12.028  11.376  16.411 -0.4133 -0.0721 -0.3253
 7316W        W26850  10.561   2.350   3.013  0.0424  0.1388  0.0779
 7317W        W26851  13.821   6.640  15.289  0.1772 -0.0073  0.1660
 7318W        W26852   6.430   5.132  15.120  0.1759 -0.0265  0.1467
 7319W        W26853   0.377  13.706   4.562 -0.2061 -0.1042  0.0144
 7320W        W26854   7.619   7.106  12.484 -0.0862 -0.1779 -0.0550
 7321W        W26855  17.467   9.450   4.507  0.1723  0.1383 -0.1643
 7322W        W26856  12.026   9.571   2.836  0.0943 -0.0817  0.1286
 7323W        W26857   5.855  15.796   3.248 -0.3204  0.3010  0.1869
 7324W        W26858   0.316  13.931   1.817  0.5128  0.0440 -0.0252
 7325W        W26859  10.460  11.698  16.634  0.2116  0.1019  0.0076
 7326W        W26860   5.093   9.164  16.264  0.0731 -0.1717  0.0083
 7327W        W26861   3.521   3.640   1.066 -0.1510  0.0572  0.3459
 7328W        W26862   2.275   3.826  14.160 -0.2842  0.1787  0.0464
 7329W        W26863  10.479   1.212  13.020  0.0436  0.1768  0.1448
 7330W        W26864   7.665   7.378  12.947 -0.0427 -0.0063 -0.3145
 7331W        W26865   5.411   3.660   0.057  0.0987 -0.3004 -0.1437
 7332W        W26866  17.144  16.554   3.095 -0.0869  0.0359  0.0429
 7333W        W26867  12.972   6.832   1.150  0.4969 -0.3854  0.0173
 7334W        W26868   6.648   3.106   4.450  0.0983  0.1229  0.0127
 7335W        W26869   3.959  16.589   0.754  0.1019 -0.2568 -0.2505
 7336W        W26870   5.507  12.344   0.226  0.1292  0.2021  0.0323
 7337W        W26871   6.980   8.590  14.064  0.0510 -0.0695 -0.1167
 7338W        W26872   7.823  16.278   5.396 -0.1625  0.1139  0.2079
 7339W        W26873  16.414  11.652   2.378  0.0428 -0.1393  0.1486
 7340W        W26874   9.041   3.349   0.027 -0.0452 -0.0526  0.0711
 7341W        W26875   7.430   4.607  16.711  0.0440 -0.0148 -0.1089
 7342W        W26876  12.002  14.001  12.350  0.0313  0.0057  0.4538
 7343W        W26877  17.296  11.608   0.965 -0.4200  0.0978  0.0301
 7344W        W26878   9.339   7.097  13.452  0.0531  0.0091  0.3659
 7345W        W26879  13.281  11.807   0.183 -0.0092  0.0849 -0.1080
 7346W        W26880  16.206  11.650   0.918 -0.3313  0.0413 -0.2242
 7347W        W26881   8.673  12.790   4.019 -0.2691 -0.2741 -0.1232
 7348W        W26882   6.315   0.880  15.562 -0.0619 -0.0675  0.0655
 7349W        W26883  13.705   6.421  13.882 -0.4182  0.0503 -0.1003
 7350W        W26884  16.365   0.291   3.607 -0.1838  0.0821  0.1340
 7351W        W26885  14.487   0.140   4.685 -0.0058 -0.1515 -0.1813
 7352W        W26886  17.203   1.895  14.091 -0.0502 -0.1963  0.1440
 7353W        W26887  14.247   5.612   0.501  0.0991 -0.2542  0.0246
 7354W        W26888  12.134  15.064   1.937 -0.0103 -0.2394  0.1041
 7355W        W26889   5.616  11.003  12.714  0.0338  0.1240  0.0135
 7356W        W26890  17.376   7.805  15.089 -0.0554 -0.3602  0.2586
 7357W        W26891  14.408  14.775   0.893 -0.0010  0.2206 -0.1817
 7358W        W26892   5.679   7.336  16.770 -0.0126 -0.1782 -0.2372
 7359W        W26893   7.409   2.838  14.233 -0.3349  0.0222  0.1167
 7360W        W26894  12.760   5.196   2.852 -0.1219  0.1748  0.1186
 7361W        W26895  10.178  14.233  13.010 -0.2779 -0.0077 -0.0212
 7362W        W26896   0.523   1.049  13.065  0.0172  0.0369 -0.1414
 7363W        W26897   9.571   1.069  17.111  0.2508 -0.1827 -0.1690
 7364W        W26898   6.790   9.488   3.330  0.1970 -0.1934  0.1571
 7365W        W26899  11.521   4.875   2.607 -0.1802 -0.2347 -0.5530
 7366W        W26900   3.601   7.939   0.994 -0.1611 -0.0392  0.1950
 7367W        W26901  11.078   4.898  15.714 -0.1441 -0.1040  0.2107
 7368W        W26902  15.336   0.456  12.049 -0.1253  0.0427 -0.0370
 7369W        W26903   6.935   5.869  12.702  0.1773 -0.2233 -0.1514
 7370W        W26904  17.298  14.596   3.316  0.1080 -0.2525  0.0613
 7371W        W26905   0.261   6.369  14.210 -0.0856 -0.0438  0.0540
 7372W        W26906   5.344  14.474  17.159 -0.0040  0.3317  0.0471
 7373W        W26907   9.157  15.487  16.905 -0.1568  0.1619  0.2154
 7374W        W26908   7.067  16.478  13.710  0.1695  0.0357  0.3197
 7375W        W26909   2.420  16.510  13.140 -0.2520 -0.0196  0.0401
 7376W        W26910   7.426  17.218  17.300  0.0552  0.0584 -0.0223
 7377W        W26911   3.329  16.094  16.412  0.0974 -0.0695  0.3890
 7378W        W26912   4.010  15.686   1.664 -0.1444  0.0264  0.0636
 7379W        W26913  11.261  17.381  16.330 -0.0486 -0.1611 -0.5332
 7380W        W26914  13.503   7.812  14.809 -0.1838  0.0550  0.2940
 7381W        W26915   7.726   7.132  15.476  0.0628  0.0808  0.0542
 7382W        W26916  13.682   6.189  12.543  0.0136 -0.2945 -0.0291
 7383W        W26917   7.353  11.700   3.050  0.2375  0.1823 -0.1342
 7384W        W26918  15.515  16.093  17.265  0.1373  0.1118  0.2831
 7385W        W26919  10.424   0.526  13.680  0.0404  0.0979  0.0380
 7386W        W26920  13.056   2.216   1.307 -0.3533 -0.0199  0.0511
 7387W        W26921   8.302  17.160   4.837 -0.0851 -0.0588 -0.0261
 7388W        W26922   9.991  15.393   3.510 -0.3363  0.0337  0.0007
 7389W        W26923   8.263  13.072   4.408  0.1895 -0.3175 -0.2156
 7390W        W26924   2.402   7.402  14.557  0.1127 -0.3549  0.0073
 7391W        W26925   6.753   6.302   4.515 -0.0782 -0.3045 -0.2595
 7392W        W26926   6.747   5.087   2.646  0.0041  0.2326 -0.0594
 7393W        W26927   8.936  12.587  15.840 -0.2520  0.0711 -0.0977
 7394W        W26928   0.716   3.193   5.060  0.3017  0.2717  0.2317
 7395W        W26929   7.609   6.010  15.621 -0.1420  0.3054 -0.0222
 7396W        W26930  15.485   5.618  14.176 -0.0523 -0.0027  0.1909
 7397W        W26931   4.168   8.469  12.610 -0.4369 -0.0794 -0.0972
 7398W        W26932   4.573  13.437  12.608 -0.1728 -0.0646 -0.1196
 7399W        W26933  12.604   4.904   3.797 -0.0225  0.2790 -0.2576
 7400W        W26934   1.274   0.267   4.332 -0.2656  0.3218  0.0631
 7401W        W26935   6.872  11.860  17.020  0.2036 -0.0223 -0.1147
 7402W        W26936  12.757  17.103   3.700 -0.1352 -0.0031 -0.2548
 7403W        W26937   1.356   8.689   2.998  0.3281  0.0467  0.0113
 7404W        W26938  12.915   3.768  16.248  0.0185 -0.0638 -0.0170
 7405W        W26939  12.038  10.735   1.040  0.0767  0.0738  0.1079
 7406W        W26940  16.880  16.609  16.376  0.0446 -0.2181  0.0049
 7407W        W26941  16.592  16.827   0.950 -0.2902  0.0754  0.1018
 7408W        W26942   6.094  15.879   2.168 -0.1148 -0.0189 -0.0595
 7409W        W26943   4.270  17.187  12.725 -0.1825 -0.0301  0.1305
 7410W        W26944  14.798   5.693   1.688 -0.0082 -0.1392 -0.0807
 7411W        W26945  14.941   6.516  13.915 -0.2815  0.2045  0.1183
 7412W        W26946   0.745   5.329  12.447  0.0780  0.2954  0.0475
 7413W        W26947  11.868  13.381  14.061 -0.1574 -0.2256 -0.0553
 7414W        W26948   6.271  15.463  16.248  0.1906  0.1373 -0.0265
 7415W        W26949   3.248   2.423   4.376  0.4295 -0.2505  0.0052
 7416W        W26950   8.208   4.663   3.297  0.1818 -0.1520  0.1168
 7417W        W26951   3.183  14.047  13.581  0.0557  0.3061 -0.1631
 7418W        W26952  16.602   3.109   0.398  0.0467  0.4048 -0.0001
 7419W        W26953   4.050  11.398  16.285 -0.3571 -0.0054  0.1218
 7420W        W26954   3.229  16.838  16.893 -0.1385  0.2314  0.1237
 7421W        W26955  15.637  11.192   4.488 -0.0092 -0.0082 -0.0311
 7422W        W26956  16.711  10.309   2.797  0.0812 -0.0832  0.0320
 7423W        W26957   4.719   7.518  14.933 -0.0615  0.0626 -0.1151
 7424W        W26958  14.238   1.271  12.964 -0.0091 -0.0495  0.0833
 7425W        W26959  12.206   3.635  13.800  0.1191  0.2314  0.3967
 7426W        W26960   7.818  12.581   1.474 -0.2266 -0.0875  0.2041
 7427W        W26961   9.895   8.992  14.672  0.1211  0.0009  0.0366
 7428W        W26962  14.680   7.596  15.292 -0.0443  0.0035 -0.5002
 7429W        W26963   4.678  10.838   5.442  0.0108 -0.3316 -0.1297
 7430W        W26964  14.139   3.053   0.473  0.0541 -0.0370 -0.1323
 7431W        W26965  13.971   2.156  16.163  0.1595  0.3861 -0.2391
 7432W        W26966  14.837  10.727   1.683  0.0202 -0.0482  0.1365
 7433W        W26967   1.585  11.566   0.138 -0.2759 -0.3135 -0.0387
 7434W        W26968  14.983  10.610  14.345 -0.1475  0.0656  0.0862
 7435W        W26969  14.447  11.448   4.981 -0.1898 -0.0641 -0.1663
 7436W        W26970  13.371  11.820   2.879 -0.0944  0.1888 -0.2491
 7437W        W26971   0.530   0.492   6.171  0.1248  0.0852  0.0783
 7438W        W26972  10.726   3.731  16.671 -0.1634 -0.2754  0.1579
 7439W        W26973  13.397   3.626  15.047  0.1178 -0.0079  0.0476
 7440W        W26974  12.552  12.908   3.636  0.5187  0.0514  0.2732
 7441W        W26975   4.054  10.791  13.497 -0.0107 -0.2929  0.1217
 7442W        W26976   8.353   0.720   0.393  0.0501 -0.2080 -0.2027
 7443W        W26977  11.702   5.748   3.778 -0.3102  0.1685 -0.0824
 7444W        W26978   5.011   5.125   2.868  0.1421 -0.0951 -0.0421
 7445W        W26979  14.745  11.421  13.237 -0.1612  0.2460 -0.0790
 7446W        W26980  14.697   8.111   2.436 -0.1734 -0.0384  0.4476
 7447W        W26981   0.122   5.519  12.924  0.0060 -0.0886  0.0783
 7448W        W26982  11.070   1.996  12.078 -0.2157  0.3129  0.0074
 7449W        W26983  11.896  11.987  16.988 -0.0395 -0.0609 -0.3099
 7450W        W26984   3.679   7.191   5.021  0.0779 -0.3346  0.1357
 7451W        W26985  14.001  10.689   2.008  0.1061  0.2018  0.2349
 7452W        W26986   0.415   7.523  14.945 -0.0762  0.1035 -0.2022
 7453W        W26987  11.344   3.293  13.377 -0.0257  0.2246  0.2446
 7454W        W26988   4.689   7.061   1.486  0.0389 -0.0328  0.0573
 7455W        W26989  11.166  16.576   4.160 -0.4028 -0.0045 -0.0120
 7456W        W26990  14.554  10.603   2.583 -0.0788 -0.1077  0.0854
 7457W        W26991   7.668   3.428  14.211 -0.1101  0.1856  0.0576
 7458W        W26992   8.507   1.757  14.603 -0.2817  0.0271 -0.1819
 7459W        W26993   9.436   6.539  16.054 -0.0499  0.0649 -0.2313
 7460W        W26994   9.755   3.453  16.797 -0.2183 -0.2349  0.0309
 7461W        W26995  15.937   0.015   0.136 -0.0220  0.2588 -0.0791
 7462W        W26996  13.801  10.607   4.058  0.0553  0.0971 -0.0348
 7463W        W26997   1.343  11.845  13.630 -0.2455 -0.0661  0.1404
 7464W        W26998  16.303   0.825   0.014  0.1294  0.0410  0.1542
 7465W        W26999  15.438  14.085  16.268 -0.1266 -0.0324  0.1536
 7466W        W27000   7.215   0.997   4.396  0.1154  0.0411  0.2957
 7467W        W27001   1.315   8.782  12.731  0.3222 -0.1510  0.0055
 7468W        W27002  11.303  12.285  13.538 -0.3162  0.3990  0.0913
 7469W        W27003   1.432   6.813   1.347 -0.0151 -0.0310 -0.3895
 7470W        W27004   1.991   7.282  14.125 -0.2471 -0.2099  0.0402
 7471W        W27005   5.568   2.144   0.353 -0.1261  0.0936 -0.0803
 7472W        W27006   4.685   1.263   4.686 -0.1659  0.3966  0.5528
 7473W        W27007   9.692   9.637   0.278 -0.0216 -0.1329  0.2358
 7474W        W27008   3.397  10.974   3.580 -0.0693 -0.0440  0.3984
 7475W        W27009  17.152  11.547  12.129  0.1218  0.2086 -0.1113
 7476W        W27010   9.181  14.522   2.102 -0.0995 -0.1446  0.3171
 7477W        W27011  14.977  15.796  15.412 -0.1767  0.1780 -0.0347
 7478W        W27012  10.017   3.375   3.313  0.0431  0.1669 -0.1198
 7479W        W27013  12.000  10.962   2.294  0.1431 -0.0390 -0.2125
 7480W        W27014   1.760  14.405  11.719  0.1159 -0.2053 -0.1781
 7481W        W27015   3.569  12.395   2.207 -0.2073  0.1884  0.1372
 7482W        W27016  10.900  12.389   4.502  0.0460  0.0699 -0.1560
 7483W        W27017  12.450   9.052   3.359 -0.1172  0.1504 -0.1709
 7484W        W27018   1.491   2.775   2.846 -0.1207 -0.0395 -0.2296
 7485W        W27019   5.266  16.062   1.711  0.1912 -0.1134  0.1605
 7486W        W27020  13.387  11.180  13.666  0.1367  0.0121  0.0467
 7487W        W27021   5.596  12.501  12.980 -0.0435  0.1715 -0.0624
 7488W        W27022  16.982   2.040   3.787  0.0173 -0.1496  0.0970
 7489W        W27023   2.232  15.783  14.144  0.3009  0.5429 -0.3981
 7490W        W27024  15.926   4.005   2.792 -0.1616 -0.0257 -0.1346
 7491W        W27025   7.784  16.129   3.756  0.2224  0.0768  0.2250
 7492W        W27026  14.261   8.946   4.944  0.2492 -0.0718  0.1049
 7493W        W27027   7.753  13.976  16.569 -0.1377  0.1605  0.3844
 7494W        W27028   1.344  10.549   1.533 -0.2580  0.2737 -0.1796
 7495W        W27029   5.115  13.704   4.585 -0.3496 -0.1080 -0.2797
 7496W        W27030   0.413  17.307   3.925 -0.1806  0.0848  0.0706
 7497W        W27031   7.598   5.186   1.048 -0.2506 -0.2349 -0.0059
 7498W        W27032   7.367  13.769  17.122  0.0300 -0.1312 -0.2439
 7499W        W27033  14.420   2.593   0.176  0.0182  0.1219  0.0006
 7500W        W27034   0.583  13.941  14.840  0.0720 -0.3671  0.0220
 7501W        W27035   7.534   6.859   4.879  0.3213  0.0350  0.1719
 7502W        W27036  13.875  13.424  15.928  0.0254 -0.0469 -0.0710
 7503W        W27037   9.753   9.205   2.021 -0.2379 -0.1806 -0.2767
 7504W        W27038  10.112  11.063   3.853  0.3159  0.0733  0.0275
 7505W        W27039   1.438   1.296   4.494 -0.0102 -0.1683  0.0835
 7506W        W27040  12.386  10.907   1.704 -0.1522  0.1099  0.1063
 7507W        W27041   0.919  11.300  16.776 -0.1386  0.1111  0.0252
 7508W        W27042  12.394  12.251  16.602  0.2924  0.0854 -0.2993
 7509W        W27043   0.422   9.824  13.409  0.1790  0.1685  0.0718
 7510W        W27044  12.257   9.471   3.579 -0.2284 -0.2257 -0.2285
 7511W        W27045   6.345  15.932  12.681 -0.3060  0.0564  0.0337
 7512W        W27046   0.261   4.103   4.630 -0.0888 -0.0719 -0.0766
 7513W        W27047  16.474   7.781   4.572 -0.0075  0.0919  0.0531
 7514W        W27048  12.993  14.287  13.459  0.0888 -0.0382 -0.0599
 7515W        W27049   8.977   7.501   3.582 -0.1658 -0.2117  0.0412
 7516W        W27050   7.746  16.097   1.863 -0.2507 -0.1197 -0.0618
 7517W        W27051   2.957  14.744  15.303 -0.3329 -0.0306  0.1730
 7518W        W27052   4.332  14.808  12.562  0.1960  0.0077  0.0618
 7519W        W27053   7.462   0.667   4.630 -0.1143 -0.0620 -0.0851
 7520W        W27054   7.149   7.314   5.126  0.0305 -0.0056 -0.3654
 7521W        W27055   0.143   7.139   0.602 -0.2129  0.0588 -0.3670
 7522W        W27056   0.297   6.251   4.261  0.1005  0.0153 -0.2343
 7523W        W27057   1.598   4.988  14.243 -0.5554  0.2788 -0.1403
 7524W        W27058  11.724   8.442  14.579 -0.1263  0.3055 -0.3354
 7525W        W27059   2.176   9.445  15.180 -0.0939  0.2125  0.3270
 7526W        W27060   5.831  11.947   2.788 -0.0578  0.1343 -0.1511
 7527W        W27061   7.284   9.367   1.589  0.4097 -0.0667 -0.0287
 7528W        W27062   6.545  10.551  17.241  0.0549  0.0444 -0.0698
 7529W        W27063   2.281  13.994   2.385  0.0125 -0.1183 -0.2472
 7530W        W27064  15.913   4.978   0.742  0.1793  0.1797  0.2494
 7531W        W27065   4.177   0.617   1.033 -0.1011  0.0176  0.2369
 7532W        W27066   2.919  12.417   4.061  0.0033 -0.1771  0.0862
 7533W        W27067   8.170  14.833  13.386 -0.2765  0.2327 -0.3223
 7534W        W27068   2.068  11.214   2.579  0.1434  0.1113  0.1829
 7535W        W27069   0.843  13.905  15.497  0.0951 -0.1608 -0.0746
 7536W        W27070   4.132  10.342   4.952  0.1834  0.3196 -0.0631
 7537W        W27071  13.992   5.360   3.921 -0.2662  0.1377  0.2005
 7538W        W27072   3.725   9.019   4.153 -0.1662 -0.1040 -0.0581
 7539W        W27073  16.227   7.084  14.688  0.0713  0.1516 -0.1601
 7540W        W27074   8.736   1.076   5.178  0.1819  0.1200  0.0524
 7541W        W27075   7.232   9.664   4.690 -0.0192  0.1944 -0.0179
 7542W        W27076  11.657   8.324   2.111  0.0617  0.1713  0.0132
 7543W        W27077   5.732   6.117  13.886  0.1630 -0.0144 -0.0377
 7544W        W27078   6.289   7.170   2.950  0.0331 -0.1848  0.0543
 7545W        W27079   7.525   1.575  14.410 -0.0567 -0.1269  0.0530
 7546W        W27080  13.600  14.316  12.595 -0.0490  0.1156 -0.1171
 7547W        W27081  12.262   6.427   0.452 -0.2509  0.1575 -0.0992
 7548W        W27082  14.754   3.751  15.655 -0.1202  0.4769 -0.0775
 7549W        W27083   4.796  15.779   4.821  0.1117  0.0679  0.1690
 7550W        W27084  16.161  11.319   4.351 -0.0314 -0.0556 -0.1793
 7551W        W27085  13.472  14.253   0.484  0.3774  0.0287  0.2740
 7552W        W27086  10.730   1.891  14.367  0.3879  0.2399  0.2258
 7553W        W27087   6.052   5.812   4.548  0.0921 -0.1071  0.1490
 7554W        W27088   6.052   0.541   4.184  0.0250 -0.0135 -0.2269
 7555W        W27089  13.712  16.697  14.224  0.0029 -0.0897  0.1354
 7556W        W27090   5.102   9.273   0.235 -0.2669  0.0623  0.2813
 7557W        W27091   3.016   9.339  12.372 -0.1443  0.1872  0.0665
 7558W        W27092   3.370   8.334   1.152 -0.0192  0.1519  0.0954
 7559W        W27093  12.531   4.718   2.676  0.0830 -0.2209  0.0067
 7560W        W27094  11.734   0.112  16.989  0.0228 -0.0349 -0.3291
 7561W        W27095   7.877   2.230   4.436 -0.2858 -0.0461 -0.1071
 7562W        W27096   8.457   1.267   0.411  0.0180 -0.2350 -0.1149
 7563W        W27097  10.334  10.745   3.575 -0.2182  0.0351 -0.0526
 7564W        W27098   6.243  14.300  13.978 -0.1188  0.0571  0.3143
 7565W        W27099   5.622  16.224  14.231 -0.2717  0.2318 -0.1136
 7566W        W27100  12.456  16.291  12.504  0.2792 -0.0506  0.0859
 7567W        W27101   2.374  13.081   2.182  0.0565 -0.2390  0.0453
 7568W        W27102   5.002   7.871  14.639  0.0347  0.1271 -0.1233
 7569W        W27103  15.288  11.154   0.811 -0.0968 -0.0593 -0.1698
 7570W        W27104   5.936   9.450   0.036 -0.0300  0.0245 -0.1105
 7571W        W27105  15.292   4.885  11.605  0.3735  0.1139 -0.0476
 7572W        W27106  11.009   2.604  13.802  0.4084 -0.1526 -0.1511
 7573W        W27107  17.072   8.871  12.623 -0.1222  0.2874  0.2738
 7574W        W27108   1.255   7.189   4.709 -0.1482 -0.3287  0.1772
 7575W        W27109  10.884  12.169  11.847  0.1954 -0.1091 -0.0808
 7576W        W27110   1.121   6.154   1.722  0.0211  0.2916  0.0530
 7577W        W27111  14.189   8.047  12.523 -0.0800 -0.1353 -0.0536
 7578W        W27112  16.347  17.336  14.090  0.1771  0.1550  0.0917
 7579W        W27113  14.573   8.750  12.598 -0.2650  0.0057 -0.2420
 7580W        W27114   5.576  11.043  16.582  0.1177  0.1029 -0.0056
 7581W        W27115  11.438   3.919   3.946  0.0070  0.0499 -0.1721
 7582W        W27116  13.423  13.547  15.576  0.2643  0.1825 -0.3233
 7583W        W27117  16.688  15.170  14.858  0.2068 -0.4316  0.0644
 7584W        W27118  16.420  12.710   4.495  0.3514 -0.0232 -0.0011
 7585W        W27119   2.519   9.525  12.143 -0.0814  0.1239 -0.2154
 7586W        W27120   0.154  12.172   3.245 -0.2580  0.1412  0.0404
 7587W        W27121  12.037   8.920  15.692 -0.1027 -0.2142 -0.1648
 7588W        W27122  13.944  11.071   0.839 -0.0666 -0.2244 -0.2219
 7589W        W27123   5.543   0.538  12.619  0.0572  0.2435 -0.3088
 7590W        W27124  13.149  15.511  14.244 -0.0742 -0.0355 -0.0134
 7591W        W27125   9.636  13.339   2.438 -0.1606  0.1689 -0.2981
 7592W        W27126  15.699  11.949   0.818 -0.1995  0.1283 -0.0216
 7593W        W27127   9.451   1.989   3.944  0.0631  0.1905  0.1721
 7594W        W27128   2.942   8.208   0.449  0.0045  0.0282 -0.1238
 7595W        W27129   6.505   9.914   1.188 -0.1362 -0.0583 -0.0491
 7596W        W27130  15.325  14.539  16.323  0.0852 -0.0605 -0.0547
 7597W        W27131   3.474   3.719  12.200 -0.1327  0.0461 -0.1683
 7598W        W27132   2.734  11.945  13.098  0.0321  0.1164  0.0685
 7599W        W27133   9.539  14.800  16.824  0.2041  0.1217 -0.1647
 7600W        W27134   5.122  10.638   1.154  0.0612 -0.0103 -0.1890
 7601W        W27135  11.987   6.789  13.581  0.0390 -0.0040 -0.0727
 7602W        W27136   2.374  16.397   1.436  0.0711  0.1077  0.0661
 7603W        W27137   3.410  15.618  13.244  0.0667  0.1102  0.0900
 7604W        W27138  16.384   6.340  13.027 -0.0231  0.0102  0.0853
 7605W        W27139   1.803   1.563  15.327 -0.0818  0.0321 -0.0173
 7606W        W27140   6.423  13.391  14.171  0.0822  0.0221  0.1487
 7607W        W27141   5.845   4.102  16.069  0.0850 -0.2998  0.0884
 7608W        W27142   4.537   0.242  15.766  0.1591 -0.0711  0.0970
 7609W        W27143  10.362   3.376   2.939  0.2407 -0.1189  0.3024
 7610W        W27144   4.753  14.944   3.085 -0.0876  0.0947  0.0910
 7611W        W27145   0.634   6.913  16.673  0.1328 -0.2060 -0.2414
 7612W        W27146  11.186  17.151   5.176 -0.4159 -0.1549 -0.2734
 7613W        W27147   7.587  12.613  15.316  0.2118  0.0906 -0.1692
 7614W        W27148   2.851  17.350  13.479  0.3877 -0.2112  0.2191
 7615W        W27149  12.068   1.374  16.270 -0.0411 -0.1952  0.1478
 7616W        W27150  12.476  14.365   0.631 -0.1860  0.1014 -0.0610
 7617W        W27151   7.310  12.258  13.811  0.2061  0.1298  0.1571
 7618W        W27152   8.916   4.409  15.410  0.0279 -0.1452  0.1153
 7619W        W27153  15.390  13.784   0.577 -0.2040 -0.2658 -0.1511
 7620W        W27154  12.251   5.340  16.388 -0.0259  0.2380  0.1029
 7621W        W27155  16.660  12.820  12.422  0.3059 -0.0548  0.0621
 7622W        W27156   9.745  17.456  12.175  0.0202 -0.1650  0.3488
 7623W        W27157  17.360  15.495  13.887  0.2185 -0.0443  0.0006
 7624W        W27158   8.703   3.273  14.213  0.1076 -0.0692 -0.3647
 7625W        W27159   1.051   7.101   5.157  0.1001 -0.0172  0.1270
 7626W        W27160   3.760  12.620  12.974 -0.0175 -0.1921 -0.0338
 7627W        W27161  12.578   8.260   5.231 -0.0459  0.0108  0.0925
 7628W        W27162  10.174  14.946  16.100 -0.0779 -0.1834 -0.3436
 7629W        W27163   6.231   5.742  13.411 -0.1247 -0.2325  0.1673
 7630W        W27164   6.000  14.280   2.962  0.2631 -0.1194 -0.1591
 7631W        W27165   5.232   6.107  16.181 -0.0254  0.0611 -0.1550
 7632W        W27166   2.017   7.651   4.346 -0.0223  0.2336 -0.0401
 7633W        W27167  11.475  10.572  17.016 -0.0077  0.0758 -0.0045
 7634W        W27168   2.571   2.432  15.824 -0.1482  0.2259 -0.1285
 7635W        W27169  17.052  10.960  15.842 -0.1921 -0.1122 -0.1559
 7636W        W27170   6.364   6.278  12.717 -0.1004 -0.1639  0.0912
 7637W        W27171  11.314  17.161   2.974 -0.1046 -0.0592 -0.1326
 7638W        W27172  15.456  12.686  16.482 -0.1507  0.1530 -0.0537
 7639W        W27173   6.692   2.766   2.908 -0.2061  0.2584  0.0422
 7640W        W27174  17.193   6.348   5.223  0.0065 -0.0078 -0.1006
 7641W        W27175   1.000   3.838  15.989 -0.0772  0.1974 -0.0406
 7642W        W27176   9.782  13.165  14.530 -0.1381  0.1270 -0.0619
 7643W        W27177  17.078   2.732  16.497  0.0744 -0.1398  0.1348
 7644W        W27178   8.988  12.395  14.444  0.0282  0.1169  0.0111
 7645W        W27179   2.114   8.305   5.062  0.1565  0.1173  0.1449
 7646W        W27180   0.567  13.454  12.920 -0.0320  0.1665  0.2556
 7647W        W27181  17.403   9.721   2.340  0.0021 -0.3510  0.1934
 7648W        W27182   8.535   7.000  15.059 -0.0394  0.1198 -0.0425
 7649W        W27183   3.657   8.244  17.044 -0.0745  0.1965 -0.2109
 7650W        W27184   8.290  15.866  17.043  0.0145  0.0249  0.1720
 7651W        W27185  11.871   0.396  11.868 -0.2878 -0.1799 -0.1629
 7652W        W27186   2.241   2.053  13.311 -0.0928  0.1506 -0.0033
 7653W        W27187  13.305   8.740   5.124  0.2950  0.2611  0.1764
 7654W        W27188  10.559   8.021  15.184 -0.1733  0.2213 -0.0460
 7655W        W27189   2.799  13.717  11.927 -0.1447  0.0486 -0.2786
 7656W        W27190   5.130  13.285   4.279  0.1989  0.0093 -0.0684
 7657W        W27191  16.975   4.993   0.864  0.0288 -0.1950  0.4401
 7658W        W27192   5.317   5.733  13.609 -0.0924 -0.2258 -0.3763
 7659W        W27193   8.450   1.921   3.560 -0.0038 -0.2650  0.1205
 7660W        W27194   3.673   1.322   0.725 -0.0872  0.1849  0.0501
 7661W        W27195  14.100   3.650   0.562  0.3246 -0.4113 -0.1471
 7662W        W27196   2.804  17.290   4.465 -0.2470  0.2163 -0.2111
 7663W        W27197  16.121  13.037  15.370 -0.0520 -0.0878  0.2627
 7664W        W27198   5.820   1.517   4.708  0.0481  0.0985  0.0530
 7665W        W27199   4.290  10.145  16.917  0.1623 -0.3310  0.0147
 7666W        W27200   5.580   6.115  14.820  0.4244 -0.1937 -0.0011
 7667W        W27201  14.442  16.144   3.861  0.0061  0.2776  0.1431
 7668W        W27202   7.660   0.099  16.111  0.0268 -0.0934 -0.0476
 7669W        W27203   1.822   1.513  16.009  0.4057 -0.2757  0.2392
 7670W        W27204  10.256  10.883  16.759  0.1110  0.0657 -0.1290
 7671W        W27205   5.601  15.460  14.674 -0.2744  0.0476  0.1721
 7672W        W27206   3.506   3.581  14.732 -0.0292  0.0689 -0.1558
 7673W        W27207   1.453   3.037   1.346 -0.0638 -0.0484 -0.0438
 7674W        W27208   1.707   7.037  13.664  0.0648  0.3787  0.2397
 7675W        W27209   6.644   0.288  15.638 -0.1654 -0.4660  0.0443
 7676W        W27210   8.356  16.146   0.909 -0.0322 -0.0919 -0.0263
 7677W        W27211   1.024   0.551   1.307  0.0848  0.1638 -0.3241
 7678W        W27212  15.476   0.145   1.717  0.3412 -0.0569 -0.2795
 7679W        W27213   9.423   7.995  15.195  0.0844  0.0310  0.2307
 7680W        W27214   9.455   5.379   0.578 -0.3116  0.1092 -0.1411
 7681W        W27215  10.918  15.738  16.938 -0.2124 -0.2592  0.2937
 7682W        W27216   9.058  11.245  15.089  0.1116  0.2885  0.0993
 7683W        W27217   8.413  11.548  13.787 -0.4397 -0.1879 -0.0754
 7684W        W27218   3.895   6.493  14.454  0.1024  0.3771 -0.1453
 7685W        W27219   4.110   7.655  15.207  0.0440  0.2245 -0.0492
 7686W        W27220   9.678  13.887   3.317  0.1761  0.1939  0.2020
 7687W        W27221  16.099   2.406  14.816 -0.0166  0.2601 -0.1603
 7688W        W27222  15.000   0.899  13.205  0.1512 -0.1997 -0.3196
 7689W        W27223  15.912   2.064  15.230  0.3624  0.0965  0.4865
 7690W        W27224  15.523   4.171   3.014 -0.0936 -0.0788  0.1910
 7691W        W27225  15.761   9.156   0.894 -0.3313 -0.0941 -0.0815
 7692W        W27226   0.594  15.203   0.726 -0.1267 -0.1721  0.2951
 7693W        W27227   3.134   6.880  14.474  0.0050  0.4354  0.0769
 7694W        W27228   0.399  15.476  14.743 -0.0141  0.0206  0.1759
 7695W        W27229   6.984   1.863  14.518 -0.0090  0.1281  0.0638
 7696W        W27230   4.101   1.553   0.655 -0.2841 -0.1015 -0.0080
 7697W        W27231  14.628  13.203  16.950 -0.0952 -0.1174  0.2296
 7698W        W27232   8.331   1.382  13.252  0.1547  0.1228  0.0994
 7699W        W27233  10.009   8.846   1.769  0.0232 -0.1781 -0.0502
 7700W        W27234  15.437  16.412   1.175  0.1352  0.2307 -0.0064
 7701W        W27235   8.351   4.701   0.135 -0.0088  0.1696 -0.1933
 7702W        W27236   0.200  11.217   3.096  0.1124  0.1516  0.0295
 7703W        W27237   1.803   4.829  17.306  0.0658  0.1959 -0.2633
 7704W        W27238  15.423   1.210   5.098 -0.1369 -0.4549 -0.0470
 7705W        W27239  12.679   8.364  15.474 -0.0707  0.0414  0.0131
 7706W        W27240   1.378  10.800  13.816 -0.2112  0.0673  0.2556
 7707W        W27241  17.180   9.010   1.015  0.1178  0.0094 -0.0613
 7708W        W27242   4.108   2.229   0.003 -0.1810 -0.2676 -0.0754
 7709W        W27243  12.142   0.199   3.861  0.0564  0.0736  0.1225
 7710W        W27244   7.602   6.801  16.796 -0.1669  0.0091 -0.1232
 7711W        W27245   2.929   1.697  13.612 -0.1885 -0.0880  0.0285
 7712W        W27246   0.914  17.378   0.030  0.3566  0.1935  0.2754
 7713W        W27247  12.906  11.017   4.409 -0.2774 -0.4161 -0.0394
 7714W        W27248   2.031  11.349   4.092 -0.2871 -0.0373  0.1231
 7715W        W27249  11.628  11.777   2.351  0.1233 -0.0783  0.1134
 7716W        W27250  12.625   7.823  12.423  0.0732  0.1560 -0.1411
 7717W        W27251   2.071   8.714   0.329 -0.1023 -0.0457  0.0734
 7718W        W27252   4.299   7.329   1.298 -0.0513 -0.1400 -0.2018
 7719W        W27253   9.751  13.887  13.017 -0.3657  0.0409 -0.1566
 7720W        W27254   0.065  12.307  13.185  0.1803 -0.2719  0.4275
 7721W        W27255  15.095   0.945   1.333 -0.0072 -0.0332 -0.1289
 7722W        W27256  13.535   4.126   0.637  0.4293 -0.0977 -0.1199
 7723W        W27257  15.702   3.113  16.138  0.1964 -0.1302  0.1531
 7724W        W27258  15.267   2.584  14.849  0.1942  0.0988  0.1614
 7725W        W27259   6.722  10.375   2.839  0.0669  0.3317 -0.0072
 7726W        W27260  15.020   7.262   2.237  0.0550  0.0455 -0.2861
 7727W        W27261  10.472   7.074   6.097  0.0137 -0.1174 -0.0762
 7728W        W27262  17.329   1.089   2.396 -0.0720  0.0188 -0.0569
 7729W        W27263  17.223   6.405  12.589 -0.0488 -0.1397 -0.1886
 7730W        W27264  15.179  10.722  16.537  0.3892  0.0817  0.3828
 7731W        W27265  14.117   3.063  13.356 -0.0230  0.0421  0.0699
 7732W        W27266   2.317  10.726  14.035 -0.1272 -0.2265 -0.1272
 7733W        W27267   2.385   3.070  12.337 -0.0473 -0.0253  0.2339
 7734W        W27268   9.769  12.331  15.338  0.1616 -0.4363  0.1848
 7735W        W27269   1.656   3.578  17.299 -0.1138  0.0689  0.3543
 7736W        W27270   0.711   7.305   2.354  0.0004  0.3363 -0.1641
 7737W        W27271   2.497   8.951  15.426 -0.0391 -0.0519 -0.1006
 7738W        W27272  16.364  16.719   1.909 -0.1861  0.1248  0.0213
 7739W        W27273  13.349   8.990  14.137 -0.0866 -0.1833 -0.1114
 7740W        W27274   1.280   2.423   1.093  0.0341  0.1467  0.3011
 7741W        W27275  13.449   7.996  15.827 -0.1974  0.2453  0.0117
 7742W        W27276  16.421   2.040   4.877 -0.1058 -0.2089 -0.0430
 7743W        W27277   4.179   5.080   0.254  0.1467  0.0235 -0.0819
 7744W        W27278  10.749   1.800   2.888 -0.0241  0.0282 -0.0358
 7745W        W27279  16.441   0.045  16.566 -0.0136 -0.0983  0.1141
 7746W        W27280   7.533   4.976  11.862  0.1386  0.0302  0.0482
 7747W        W27281   5.148  16.948  14.029  0.0700  0.0791  0.2290
 7748W        W27282   1.254   4.152  13.076  0.0326 -0.1309 -0.1352
 7749W        W27283   2.399   2.059   2.426  0.1369  0.2491 -0.2441
 7750W        W27284   5.938   1.975   0.754  0.1655 -0.1670  0.1814
 7751W        W27285   8.433   4.482  16.052  0.1235 -0.1200  0.1296
 7752W        W27286  16.702   8.690  13.032  0.0438  0.0405  0.2089
 7753W        W27287  11.449  15.507   3.578 -0.1854 -0.1124 -0.1119
 7754W        W27288   9.494  14.514  12.675 -0.0795 -0.1250  0.0518
 7755W        W27289  10.723   6.643  15.498 -0.1430 -0.0924  0.4528
 7756W        W27290   3.067  15.900   3.236 -0.1516  0.0916  0.1658
 7757W        W27291   5.704  15.719  13.501 -0.0975 -0.1310  0.0710
 7758W        W27292   5.392  12.467   4.008 -0.1651 -0.3580 -0.0220
 7759W        W27293  16.879   2.895  12.299 -0.0347 -0.1499  0.4200
 7760W        W27294  10.532   1.722   3.889  0.2426 -0.1688  0.3834
 7761W        W27295  14.819   8.919  16.551  0.0467 -0.1205 -0.3572
 7762W        W27296  14.029   7.394  16.277  0.0820  0.1219 -0.0393
 7763W        W27297   8.990   9.024   2.735 -0.0613  0.0244 -0.0091
 7764W        W27298  17.320   7.601   1.516  0.0947 -0.1188  0.1123
 7765W        W27299   1.751   3.117   0.933  0.3186 -0.2917  0.2361
 7766W        W27300  15.741  15.296  13.397  0.0049  0.1095  0.3772
 7767W        W27301   0.256  10.364   1.698 -0.0362 -0.2513 -0.1224
 7768W        W27302   9.097   3.263  14.620  0.1024 -0.2378  0.0581
 7769W        W27303   0.648  13.426  17.254  0.0762  0.0698 -0.1625
 7770W        W27304   4.544   6.311  16.415 -0.1940 -0.1069  0.0773
 7771W        W27305   4.479   3.404   1.492 -0.1110  0.0725  0.2432
 7772W        W27306  10.330   8.643  16.563  0.3141  0.0422 -0.1475
 7773W        W27307   1.744   2.140   3.997 -0.0964 -0.3747  0.0388
 7774W        W27308   4.230   0.631  13.709 -0.0934 -0.0155  0.0806
 7775W        W27309   1.104   4.940   2.242 -0.2707 -0.0186  0.2089
 7776W        W27310   3.405   3.163  12.492  0.1786 -0.2424 -0.2673
 7777W        W27311  17.430   6.823  16.593 -0.2835  0.1161 -0.3040
 7778W        W27312  11.397  15.526  13.553 -0.2448  0.1569  0.1021
 7779W        W27313   6.771  17.201   2.196 -0.1298 -0.2735  0.2327
 7780W        W27314  10.957  10.706  13.573 -0.0895  0.1877 -0.2071
 7781W        W27315  15.951   7.075   4.649  0.1690  0.0830 -0.0620
 7782W        W27316   7.742  10.291   3.986  0.1829  0.1205  0.1648
 7783W        W27317   8.922  12.019   2.810  0.1816 -0.2411 -0.2132
 7784W        W27318   7.616  16.164   2.383 -0.2113 -0.1955  0.2757
 7785W        W27319   4.492  16.051   3.572 -0.0962  0.0363  0.0953
 7786W        W27320   7.695   6.036  16.802  0.0133 -0.1327  0.0641
 7787W        W27321   8.719   6.767   4.203 -0.3900  0.1055  0.0475
 7788W        W27322   2.488   3.890  15.743 -0.0279 -0.1347  0.1655
 7789W        W27323   9.288  13.957   4.161 -0.1125  0.3151  0.2658
 7790W        W27324   7.883  11.468  12.855 -0.0919 -0.0084  0.2497
 7791W        W27325   1.949   8.641   4.667  0.1127  0.0214 -0.1261
 7792W        W27326   5.259   1.958  15.058 -0.0480 -0.0380  0.1801
 7793W        W27327  15.914   9.910   4.284  0.2037 -0.2354  0.2552
 7794W        W27328   5.653  11.126   2.319 -0.1747 -0.1627 -0.1293
 7795W        W27329  15.249   8.454   0.325 -0.0882  0.0471  0.1950
 7796W        W27330  13.135   7.764   1.978  0.2448 -0.1186  0.3483
 7797W        W27331   9.966  14.476  13.867 -0.1396 -0.3475  0.0814
 7798W        W27332  16.223   8.639   4.948 -0.0118  0.1131  0.1455
 7799W        W27333   3.871  10.873  17.059 -0.0160  0.0079 -0.2645
 7800W        W27334   8.831  11.741   5.055  0.0297 -0.0690 -0.0728
 7801W        W27335   5.797   0.601  13.446 -0.1957 -0.0883 -0.3136
 7802W        W27336   3.295   9.251   0.371  0.0162 -0.2266  0.0229
 7803W        W27337   3.227   4.508   2.735  0.0332  0.3024  0.2308
 7804W        W27338  11.762   2.822   5.026 -0.1224 -0.1390  0.1525
 7805W        W27339   5.020   1.808  12.633  0.2731 -0.2334  0.0658
 7806W        W27340  12.772  11.881   1.521  0.2150  0.0158  0.1821
 7807W        W27341  14.037  11.993  15.148  0.2250  0.1930 -0.2621
 7808W        W27342  16.721   0.662   2.375 -0.1860  0.0276 -0.1176
 7809W        W27343   3.383   9.986  15.860  0.2899  0.0790 -0.0791
 7810W        W27344   1.909   5.850  17.015 -0.0016 -0.0797 -0.0403
 7811W        W27345   6.942   4.415  13.435  0.2269 -0.2305  0.0650
 7812W        W27346   0.804  17.090  15.111 -0.1772 -0.3641 -0.3332
 7813W        W27347   3.963  12.220  13.963  0.0637  0.1845  0.2648
 7814W        W27348   1.942   3.710  15.138  0.1275 -0.0150  0.0117
 7815W        W27349  15.384  10.786   2.899  0.1047 -0.1467 -0.4505
 7816W        W27350   9.990   4.149   2.357 -0.0575  0.0296  0.2037
 7817W        W27351   5.790   9.219  15.665  0.1453 -0.1125 -0.4548
 7818W        W27352  15.379  11.284   0.336  0.3752 -0.0790 -0.1594
 7819W        W27353  14.056   3.031  14.827 -0.0687 -0.3173  0.2133
 7820W        W27354   4.062  15.834   3.786 -0.1018 -0.1505  0.0034
 7821W        W27355  15.557   0.399  14.603  0.1342 -0.2475 -0.2369
 7822W        W27356   0.548  15.839  13.557  0.0051  0.0316 -0.0253
 7823W        W27357   7.625  12.112  15.264 -0.1184 -0.0522 -0.0637
 7824W        W27358   4.041  11.297  13.616 -0.1606  0.1966 -0.1079
 7825W        W27359  14.748  15.691  13.318  0.2524 -0.0375  0.2489
 7826W        W27360   8.514  14.819   1.077 -0.1608 -0.1432  0.3013
 7827W        W27361  17.148   7.649   3.265  0.0949 -0.1489 -0.3201
 7828W        W27362   0.004   7.658   4.715 -0.2106  0.2089  0.1044
 7829W        W27363   7.589  17.425   1.973  0.0599  0.0926  0.3074
 7830W        W27364  11.080  14.328   0.798 -0.2687  0.0484  0.0892
 7831W        W27365  14.883   7.936  13.575 -0.2725 -0.0417  0.0244
 7832W        W27366  14.014   1.751   2.670 -0.1244  0.2741  0.1460
 7833W        W27367   2.668   8.847   1.157 -0.1655 -0.3281 -0.0479
 7834W        W27368   3.177   3.069   5.043  0.0370  0.0101  0.0184
 7835W        W27369  12.505  13.052   2.017 -0.0188  0.1004  0.0162
 7836W        W27370   1.110  11.581   0.355  0.0201  0.0817  0.0050
 7837W        W27371  10.672  17.189  14.179 -0.2215  0.1944  0.1407
 7838W        W27372   4.564   5.325   3.000 -0.1629  0.2326  0.0202
 7839W        W27373  16.260   0.751  16.765  0.2394 -0.1718 -0.1726
 7840W        W27374  14.152   2.118  14.836  0.0962 -0.0774  0.1803
 7841W        W27375   6.490   4.558  13.201  0.3001  0.0446 -0.3299
 7842W        W27376   2.142   2.125  13.886 -0.2082 -0.4320 -0.1730
 7843W        W27377  11.711   7.985  15.372  0.1481  0.1040  0.0123
 7844W        W27378   1.173   4.469   4.911 -0.0893 -0.1492 -0.0112
 7845W        W27379  16.749  16.916   2.935  0.0176  0.3969 -0.0032
 7846W        W27380   7.662   8.017   4.570  0.2181  0.1229 -0.2439
 7847W        W27381   2.385   3.200  16.896 -0.1250  0.1305 -0.0938
 7848W        W27382  15.445  15.033   2.154 -0.2695  0.2032 -0.0540
 7849W        W27383   8.022  13.502  13.066 -0.0334 -0.1252 -0.0521
 7850W        W27384   4.549  10.845  15.799  0.1261  0.1092  0.0700
 7851W        W27385  14.472   6.255   1.797 -0.2388  0.4621  0.0667
 7852W        W27386  16.128   1.266  13.556 -0.2299  0.1474  0.0924
 7853W        W27387   3.146   5.630  16.029 -0.0978 -0.2170  0.0761
 7854W        W27388  14.779   0.323  17.291 -0.0580  0.1011  0.0524
 7855W        W27389  11.799   0.265  13.869  0.1832 -0.1400  0.1863
 7856W        W27390   6.095  10.368  15.876  0.0038  0.1372 -0.0764
 7857W        W27391  13.145   1.999   0.423 -0.5041  0.2875  0.0795
 7858W        W27392   2.426   9.390  14.316 -0.1014  0.4138  0.4845
 7859W        W27393  13.924   2.757   0.037  0.1334  0.3583  0.0384
 7860W        W27394   7.811  15.726  17.241 -0.2960 -0.1391 -0.1013
 7861W        W27395   0.382  11.413   1.885 -0.1370 -0.0307 -0.1641
 7862W        W27396   4.871  13.528  16.227 -0.1292  0.0975  0.2588
 7863W        W27397   7.268  17.007   2.119  0.1123 -0.0727 -0.1803
 7864W        W27398  10.165   1.483   0.016 -0.1657 -0.0850  0.2879
 7865W        W27399  16.036  15.525  15.528  0.0285 -0.2003  0.1712
 7866W        W27400   5.321   6.487  12.662 -0.1089  0.2443 -0.3556
 7867W        W27401   9.834   3.309   2.647  0.1120  0.0200 -0.2067
 7868W        W27402   9.973   7.096   5.408  0.1913 -0.1424 -0.3244
 7869W        W27403  12.876  15.175   3.954  0.1809 -0.0178  0.0960
 7870W        W27404   6.581  16.951   4.835 -0.0373  0.3104  0.0014
 7871W        W27405  17.256  12.120   0.792  0.1847 -0.1803 -0.0519
 7872W        W27406   1.685  15.607  16.822 -0.0098 -0.0018 -0.1080
 7873W        W27407   1.806  14.977   3.142  0.0965 -0.0431  0.1442
 7874W        W27408   3.949  14.651  12.219  0.2952  0.0901  0.1578
 7875W        W27409   6.322   2.422   2.885  0.1082  0.1903 -0.1508
 7876W        W27410   1.117  15.195  14.460 -0.1433  0.1576  0.3782
 7877W        W27411  16.450  11.689  13.184 -0.0719  0.1799 -0.1326
 7878W        W27412   7.341  10.392   3.655  0.1928  0.2385 -0.1591
 7879W        W27413  13.585  15.874   4.352 -0.1350  0.2643  0.1933
 7880W        W27414   3.467  13.133  13.734 -0.1176  0.0376 -0.1214
 7881W        W27415  10.369  17.205   1.950 -0.0438 -0.0397  0.0906
 7882W        W27416  13.849  12.629   2.874 -0.0330 -0.0342  0.2730
 7883W        W27417   3.832   7.997  14.932 -0.1029  0.1166 -0.1495
 7884W        W27418   2.593   8.477  15.571 -0.0260 -0.1865  0.1121
 7885W        W27419  15.840  16.223   2.853  0.0606  0.0886  0.3769
 7886W        W27420   6.306  10.225  14.391 -0.0472  0.1995 -0.1678
 7887W        W27421   8.331  14.741   2.342 -0.1092 -0.0093  0.2625
 7888W        W27422  15.006   1.637  12.705  0.1258 -0.0090 -0.1344
 7889W        W27423   6.948   1.833   4.619  0.1394  0.2014  0.4440
 7890W        W27424  16.986   6.109  17.045 -0.2563 -0.3151 -0.0801
 7891W        W27425   1.070  15.921   3.337  0.1704  0.3979  0.2664
 7892W        W27426  13.975   7.877   5.302 -0.3463 -0.0020  0.1274
 7893W        W27427   3.252  15.101  14.413 -0.3182 -0.0646 -0.0607
 7894W        W27428   0.884   6.332  14.293  0.0914 -0.1714 -0.1495
 7895W        W27429   3.795  11.132   5.589 -0.2859 -0.0642  0.0148
 7896W        W27430   2.837   7.047   0.399 -0.1343 -0.1173 -0.1483
 7897W        W27431   3.176  10.945  13.216 -0.3284 -0.1880  0.0115
 7898W        W27432  12.661   1.635   2.800  0.1166  0.0550 -0.1167
 7899W        W27433   6.712   2.372  14.638 -0.1432 -0.0330  0.1114
 7900W        W27434  12.472  14.996   4.418  0.2268 -0.1418  0.1467
 7901W        W27435   7.916   0.187  12.765 -0.1519  0.2497 -0.2816
 7902W        W27436   2.400  15.794  16.270 -0.3966  0.1320 -0.0992
 7903W        W27437   7.711   1.157   0.998 -0.2139 -0.2613  0.3374
 7904W        W27438  11.479  16.488  16.582 -0.2200  0.1051 -0.2260
 7905W        W27439  17.332   7.154   4.397 -0.0465 -0.1325  0.2374
 7906W        W27440   3.318  13.558  15.769  0.1358  0.0171  0.2502
 7907W        W27441   0.990  15.733   3.803  0.0162  0.1310 -0.1509
 7908W        W27442  13.177   6.978  12.635  0.1393 -0.1052 -0.0244
 7909W        W27443  10.974  15.216   2.964  0.3022  0.0787 -0.0913
 7910W        W27444   9.083  17.169   4.368  0.0097 -0.4100 -0.1594
 7911W        W27445   9.944  11.647  15.787 -0.1082 -0.0152 -0.2031
 7912W        W27446   9.183   8.896   3.314 -0.1608 -0.1314  0.0768
 7913W        W27447  10.867  16.077   2.905  0.3479  0.0540 -0.2314
 7914W        W27448   5.252  11.141   0.280 -0.2782  0.1522  0.0197
 7915W        W27449  14.302   6.342  15.131  0.1322  0.2461 -0.0298
 7916W        W27450  11.937   6.710  16.118 -0.0899  0.1846 -0.0329
 7917W        W27451  12.373  15.859  14.365 -0.2255 -0.0663  0.1076
 7918W        W27452   7.094   8.603  13.565  0.0090 -0.1263  0.0786
 7919W        W27453   7.729  12.479   2.465  0.2130  0.2008  0.0923
 7920W        W27454   9.370   5.144   3.525 -0.2943  0.4431  0.0963
 7921W        W27455  14.576   7.764  17.189  0.1501 -0.0292  0.0622
 7922W        W27456   8.868   5.839  15.976  0.0049  0.0502 -0.1811
 7923W        W27457   9.753  15.610  13.882  0.1175 -0.0941  0.0400
 7924W        W27458   8.258   5.119   1.993  0.0044 -0.3206 -0.1519
 7925W        W27459  15.405   3.533   0.114  0.0648 -0.2392  0.3995
 7926W        W27460   3.963   2.668   5.108  0.1734 -0.0856 -0.2390
 7927W        W27461  12.789   0.498   1.010  0.1885 -0.1878 -0.0449
 7928W        W27462  13.192   5.559   4.068  0.0483 -0.2156 -0.0901
 7929W        W27463   5.992  13.739   0.661  0.1616 -0.0886  0.3105
 7930W        W27464  12.512  13.773  12.279  0.2171 -0.1575 -0.3163
 7931W        W27465   7.457   1.799  15.640  0.0444  0.0022 -0.2647
 7932W        W27466   5.766  16.809   0.662  0.2146  0.3876  0.0493
 7933W        W27467  16.144   8.215   0.031 -0.2847 -0.1350  0.2257
 7934W        W27468  10.579  10.819  15.950  0.1390  0.0042 -0.1725
 7935W        W27469   6.686   5.259  14.538 -0.1120 -0.0150  0.1773
 7936W        W27470  15.452   7.187  16.916 -0.1123 -0.2429 -0.1915
 7937W        W27471  12.965  13.430  13.243  0.2691  0.0468  0.1291
 7938W        W27472   8.039  17.245  15.237  0.0757  0.1185 -0.2702
 7939W        W27473  16.256  16.582  16.603  0.1954  0.2816 -0.0744
 7940W        W27474   4.160   5.521  12.299  0.0318  0.0545 -0.2806
 7941W        W27475  16.121  17.292   1.098 -0.0289  0.1129  0.1331
 7942W        W27476   3.643   2.910  15.934 -0.2912  0.0712  0.2312
 7943W        W27477  15.060  14.184  12.891 -0.0091  0.2021  0.1851
 7944W        W27478   3.604   1.715  16.345 -0.2100  0.2585  0.2507
 7945W        W27479  13.349   5.496   1.100 -0.0698 -0.0697  0.1050
 7946W        W27480  14.928  13.721  13.224  0.0810  0.0736  0.1620
 7947W        W27481  12.308  14.230   4.707  0.2330  0.3169 -0.1582
 7948W        W27482  12.954   6.341   1.233  0.1318 -0.0209  0.0340
 7949W        W27483   1.012   8.019   1.580  0.0922 -0.2811  0.2946
 7950W        W27484   8.623  10.701   5.305  0.2780 -0.0381 -0.2355
 7951W        W27485   4.411  15.165  13.645  0.0106  0.2586  0.1409
 7952W        W27486  11.977   6.142  15.783  0.3634 -0.0270  0.1407
 7953W        W27487  16.684   5.897  12.101  0.2138  0.1030 -0.1067
 7954W        W27488   9.300   1.554  15.959 -0.1866  0.2159 -0.2247
 7955W        W27489  10.681  11.201   6.003  0.3892  0.0842  0.0595
 7956W        W27490   3.196   8.351   2.682  0.0971 -0.1222  0.0688
 7957W        W27491  12.480   6.493  14.951  0.0742  0.1575 -0.0209
 7958W        W27492   5.853  17.382  15.581  0.0094  0.1792 -0.1436
 7959W        W27493   5.776  14.605   1.587  0.2398  0.0902 -0.1238
 7960W        W27494  12.804  10.036   0.031 -0.2100  0.0541 -0.0209
 7961W        W27495  14.536   7.640   2.402 -0.1436 -0.0488 -0.0663
 7962W        W27496  11.793   9.335  14.962 -0.1187 -0.0252 -0.3909
 7963W        W27497  11.253  13.701   3.885  0.0120  0.0919 -0.2542
 7964W        W27498  16.138  11.268  16.414 -0.0877  0.0070 -0.2963
 7965W        W27499  11.589  16.781   4.420  0.2579  0.0230 -0.1411
 7966W        W27500  12.326  13.763  12.863  0.1212 -0.1838  0.0279
 7967W        W27501   7.170  13.218  14.402 -0.0270 -0.0459  0.0452
 7968W        W27502   0.564   8.951  11.676 -0.4957 -0.3064 -0.0614
 7969W        W27503  13.053  13.559  15.172 -0.1551  0.1898  0.0772
 7970W        W27504   0.579   1.500  15.538  0.2316 -0.1196 -0.1960
 7971W        W27505  10.578   4.149  14.693 -0.0335  0.0403  0.0174
 7972W        W27506   1.621   0.950   0.675  0.0046 -0.2573 -0.1195
 7973W        W27507   0.006   1.196   4.732  0.2388 -0.2444 -0.0822
 7974W        W27508  12.380   6.560  13.792  0.2140 -0.1370 -0.2050
 7975W        W27509   4.954   5.093  16.006  0.0120  0.2813  0.0075
 7976W        W27510   1.648   0.979  15.101  0.0944  0.1258 -0.3845
 7977W        W27511  11.702  12.940  12.342 -0.0673 -0.1257 -0.1760
 7978W        W27512   0.765   4.300   4.573  0.4927  0.0943 -0.1377
 7979W        W27513  12.872   5.122   0.392 -0.1149  0.2262  0.0537
 7980W        W27514  16.782   7.661  12.999 -0.2070  0.1697 -0.0194
 7981W        W27515  10.909   6.280  17.113 -0.1582  0.0491  0.1272
 7982W        W27516  11.687   7.357   1.731  0.2603 -0.0546  0.1817
 7983W        W27517  13.082   5.089   3.855  0.1437 -0.0554 -0.0765
 7984W        W27518   0.342  15.575   0.908 -0.0078  0.1534 -0.1241
 7985W        W27519   7.606   9.522   2.765 -0.4210 -0.1272  0.0170
 7986W        W27520  17.171   7.534  17.197  0.2267  0.0504 -0.0716
 7987W        W27521  14.913  11.148  14.624 -0.1257  0.0827  0.0830
 7988W        W27522   8.157   1.427  15.533  0.0757  0.3365  0.0887
 7989W        W27523   2.243   5.267   3.606 -0.0867  0.0241 -0.0747
 7990W        W27524  14.600  10.945   4.695 -0.0024  0.1266  0.0892
 7991W        W27525   2.837   7.905   4.121  0.3547  0.3322  0.0211
 7992W        W27526   5.908   6.425  15.013  0.0797  0.1384 -0.0260
 7993W        W27527  17.244   4.189  12.323 -0.1219 -0.0597 -0.1201
 7994W        W27528  10.818   5.308   0.050 -0.1637  0.1331 -0.0028
 7995W        W27529   1.583   6.945  12.622 -0.3605 -0.0457 -0.1130
 7996W        W27530   5.950  15.826  14.950 -0.1182 -0.1698  0.1791
 7997W        W27531   7.016   4.349   5.150 -0.0139  0.2747 -0.4498
 7998W        W27532   3.768   3.417  16.759 -0.0813 -0.3436  0.2702
 7999W        W27533   6.128   1.511   1.655  0.1005  0.1076 -0.5708
 8000W        W27534   6.387   6.832  13.672 -0.1338 -0.1879  0.5017
 8001W        W27535  15.413   4.105   4.698  0.0327  0.0242 -0.1598
 8002W        W27536  11.518  14.082   3.646  0.2390  0.0383 -0.0854
 8003W        W27537   2.524  16.032   2.944  0.3151  0.0105 -0.0308
 8004W        W27538   8.173   0.157   5.126  0.0131 -0.1723  0.0144
 8005W        W27539   7.831   8.171  13.811 -0.2536 -0.0769  0.0829
 8006W        W27540  14.356   9.865  16.436 -0.1591 -0.0196 -0.2603
 8007W        W27541  12.240   4.055   4.562  0.0401  0.0108  0.1378
 8008W        W27542   5.473  15.804   2.071 -0.0777  0.2732 -0.2048
 8009W        W27543   9.209   2.953  14.069 -0.0676 -0.0142  0.0073
 8010W        W27544   6.458   9.657  17.157 -0.0457 -0.0290  0.2493
 8011W        W27545   2.531   9.812   1.017 -0.0137  0.0441  0.0372
 8012W        W27546   1.808  12.721   0.025  0.3240  0.2675  0.0879
 8013W        W27547   2.254  11.640  15.273  0.1276  0.0860  0.1728
 8014W        W27548  15.584  15.477  16.044 -0.3071  0.0037 -0.0082
 8015W        W27549  12.191   6.826   3.008 -0.2060  0.1988  0.3240
 8016W        W27550  15.140   6.383  14.716 -0.0531  0.4350  0.2205
 8017W        W27551   2.751   5.886  17.216 -0.2791 -0.3334  0.4061
 8018W        W27552   3.376   9.852   4.150  0.1322 -0.2382 -0.1611
 8019W        W27553  11.726   9.718  14.476 -0.1842 -0.1696  0.1283
 8020W        W27554   1.101  10.998  15.144 -0.1297 -0.1951 -0.1801
 8021W        W27555   1.112   0.517   4.743 -0.2010  0.2104  0.0062
 8022W        W27556   3.953  13.199   1.668 -0.0836 -0.1405 -0.0152
 8023W        W27557   2.381   5.300  16.509  0.1607  0.0541 -0.1101
 8024W        W27558   1.435  16.512  12.131 -0.0653  0.2932 -0.2951
 8025W        W27559   9.931   3.330  15.917  0.1574  0.2522  0.0891
 8026W        W27560  11.005   3.494   4.362  0.0010 -0.1644  0.2207
 8027W        W27561  13.681  12.779  14.294  0.0232  0.0446  0.1892
 8028W        W27562  16.182   3.097   3.025  0.1789 -0.2625 -0.1468
 8029W        W27563   6.788   1.470  14.734 -0.0142  0.2608  0.2454
 8030W        W27564   8.649   8.459  15.424 -0.0430  0.0497 -0.0213
 8031W        W27565   8.573   9.216   2.649 -0.0281  0.2363  0.0610
 8032W        W27566   8.700  17.361  13.463  0.0780  0.3096  0.2365
 8033W        W27567   0.484  14.463  13.134  0.2183  0.1995 -0.0818
 8034W        W27568   0.834  16.885   1.665  0.2859  0.0223 -0.0771
 8035W        W27569  11.362   6.556   2.169 -0.0613 -0.1930  0.0961
 8036W        W27570   7.644   8.585  13.509  0.1357 -0.3340 -0.1143
 8037W        W27571   2.547   4.841  16.114  0.2736  0.2144  0.0033
 8038W        W27572  12.815   6.715  14.121 -0.1169  0.0530  0.0370
 8039W        W27573  12.618  16.154   4.132  0.0413 -0.0757 -0.1072
 8040W        W27574   0.555   3.696   4.692 -0.1717 -0.0756  0.1615
 8041W        W27575   1.220   6.536  14.538  0.2290  0.0002 -0.0876
 8042W        W27576   2.299   8.373  16.560  0.0115  0.0622 -0.0592
 8043W        W27577   0.334  11.673  13.046 -0.3433 -0.0746  0.0804
 8044W        W27578   9.974   2.674   4.943 -0.2145 -0.2058  0.1076
 8045W        W27579   4.351  16.562  13.850  0.1022  0.2160  0.2411
 8046W        W27580   9.280  13.970   4.649  0.1253 -0.1007 -0.0648
 8047W        W27581   7.044   1.300  11.050  0.2039 -0.1444 -0.2324
 8048W        W27582   4.877  14.738  15.880 -0.3670 -0.0767 -0.0046
 8049W        W27583   2.191   2.811   3.885  0.0174  0.0411  0.3068
 8050W        W27584   3.976   1.183   5.062  0.1252  0.1381  0.1701
 8051W        W27585   2.078   9.193   2.315  0.3024  0.0328 -0.0832
 8052W        W27586  15.947   1.054   4.892 -0.0099  0.1832 -0.3318
 8053W        W27587   4.503   7.550  12.453 -0.2815 -0.0071 -0.3201
 8054W        W27588   7.511   0.965   0.557 -0.0380 -0.0662 -0.2534
 8055W        W27589   9.195   4.628  16.770  0.1056 -0.1854  0.3164
 8056W        W27590   6.424  14.083  16.441 -0.0022  0.3292  0.0676
 8057W        W27591   4.297   1.639   2.142  0.0229 -0.1713 -0.0248
 8058W        W27592  15.599   8.808   2.710 -0.0639 -0.1048 -0.4623
 8059W        W27593  12.795  10.399  15.242 -0.2602  0.3134 -0.0007
 8060W        W27594   6.255   5.815  16.185  0.2743  0.1289 -0.2752
 8061W        W27595  16.828  15.660   4.233  0.2155 -0.0427  0.1235
 8062W        W27596   6.191   5.830  12.763 -0.0826  0.3228 -0.0639
 8063W        W27597   7.189  13.667   1.775 -0.0653 -0.1219 -0.1511
 8064W        W27598   8.792   9.025   2.132 -0.0682  0.5009 -0.2448
 8065W        W27599  17.296  17.272   4.246  0.3453  0.0329  0.1528
 8066W        W27600   5.610  13.566  14.690  0.0148 -0.1409  0.0184
 8067W        W27601   2.790  14.919  17.112 -0.1401 -0.0359  0.1094
 8068W        W27602  12.183  10.115   3.861  0.2100  0.0691 -0.0314
 8069W        W27603  16.932   9.449   0.752 -0.1643  0.1632 -0.2591
 8070W        W27604   7.059   1.032  15.134  0.0390  0.0895 -0.2979
 8071W        W27605   7.360   2.650  11.917  0.2517  0.0103 -0.0480
 8072W        W27606   7.841   9.006  15.607  0.2101  0.0904  0.1092
 8073W        W27607   3.253   4.578   4.559 -0.0420  0.1795  0.0118
 8074W        W27608   2.414   8.907   0.033  0.1546 -0.0094 -0.0296
 8075W        W27609  16.332   1.922   1.596 -0.3994  0.0437 -0.0726
 8076W        W27610  16.134   8.649  16.814 -0.0298  0.0694 -0.0557
 8077W        W27611   7.367  11.796   2.019  0.0836  0.1147 -0.0094
 8078W        W27612  14.555   5.272   2.556 -0.2902  0.0985  0.2580
 8079W        W27613   7.237   4.807   1.261  0.0468  0.1722 -0.1536
 8080W        W27614  13.125   3.862  14.287 -0.2713 -0.0023  0.0889
 8081W        W27615   1.135   0.364  13.711  0.1195 -0.1268  0.2083
 8082W        W27616  13.024   1.058  16.229  0.1607  0.2037 -0.2608
 8083W        W27617   1.530  15.916  16.379  0.1257 -0.2364 -0.0187
 8084W        W27618  14.883   3.747   1.383 -0.1332 -0.0523 -0.2233
 8085W        W27619   9.037   4.530   0.482  0.0369  0.1657  0.0171
 8086W        W27620  12.571  15.985   4.619  0.1109  0.0046  0.0310
 8087W        W27621  10.937   2.257   4.865  0.0739  0.0441  0.1981
 8088W        W27622   8.080   6.879  14.858  0.2230  0.0083  0.0075
 8089W        W27623  17.036  16.096   4.064  0.0473 -0.0086 -0.0416
 8090W        W27624  10.338   4.707   4.127 -0.0487  0.2564  0.0684
 8091W        W27625   3.000   3.370  14.418  0.1374 -0.0490  0.1827
 8092W        W27626   0.761   0.091  15.238  0.0231  0.2492  0.3516
 8093W        W27627   2.272   4.513   2.525 -0.0612  0.1954 -0.0211
 8094W        W27628   7.290  10.347  14.622 -0.1051 -0.0118  0.1483
 8095W        W27629   3.166   4.015  13.755 -0.2063 -0.0145 -0.1456
 8096W        W27630   9.623   2.602  13.810 -0.3097 -0.0048 -0.0691
 8097W        W27631  14.157  13.398   4.720 -0.1162 -0.1328 -0.0380
 8098W        W27632   1.231  14.615  16.178  0.1470  0.1396  0.1972
 8099W        W27633   3.977  11.794   3.497  0.3670 -0.2975 -0.0976
 8100W        W27634  10.464  12.581   4.654 -0.0417  0.4374  0.0219
 8101W        W27635   1.536   7.403   1.473  0.0271  0.0193  0.2939
 8102W        W27636   2.517  16.282   4.965 -0.0846  0.0865 -0.1694
 8103W        W27637   1.601  16.243   5.367 -0.3071  0.3230 -0.1253
 8104W        W27638  12.866  13.745  16.224  0.0224 -0.2378 -0.0866
 8105W        W27639   2.903  10.882   4.762 -0.2049 -0.0536 -0.1773
 8106W        W27640  11.573  17.449   4.872  0.0941 -0.0572  0.1368
 8107W        W27641   0.378   8.048  15.135 -0.2837 -0.0534  0.2148
 8108W        W27642  12.090  16.800  15.961  0.0154 -0.1165 -0.2510
 8109W        W27643   7.690   2.682  16.101  0.0168 -0.0255 -0.0173
 8110W        W27644   8.336   4.879   1.457  0.3552  0.1774 -0.0784
 8111W        W27645   4.224   9.741  16.612  0.0721 -0.2632 -0.0446
 8112W        W27646   1.005   5.317   3.740 -0.0850 -0.2391  0.0936
 8113W        W27647  16.505  10.716  15.726 -0.2839 -0.0429 -0.2390
 8114W        W27648   1.544   2.963   0.474  0.0706  0.0658  0.2139
 8115W        W27649   3.542   7.813   1.523 -0.2381 -0.0314  0.1476
 8116W        W27650  11.189   4.096   0.140  0.1440 -0.2360  0.1408
 8117W        W27651   5.356  16.517   2.272  0.4461  0.0313  0.2234
 8118W        W27652  10.891  16.489   0.599 -0.2089  0.0595  0.0826
 8119W        W27653   7.868   1.832  14.683  0.0237 -0.0760 -0.0246
 8120W        W27654  15.832   0.466   4.751  0.0035 -0.0128 -0.1011
 8121W        W27655  10.693   2.969  12.664 -0.0413 -0.0839 -0.3280
 8122W        W27656   6.303   7.159   1.721 -0.1521  0.2620 -0.1713
 8123W        W27657   2.016   2.563   1.564  0.0194  0.1540  0.0835
 8124W        W27658   8.623  10.836  12.300  0.2090 -0.0112  0.0391
 8125W        W27659   8.615  10.469   1.468 -0.0412  0.0605 -0.0600
 8126W        W27660   7.534   1.311   1.534  0.0207 -0.0354 -0.0199
 8127W        W27661  16.840  13.767  15.315 -0.0254  0.1415  0.2025
 8128W        W27662   5.449   5.780   3.406 -0.3779  0.2621 -0.1844
 8129W        W27663   9.225  12.062   3.677  0.1800 -0.0239 -0.2325
 8130W        W27664  13.652   4.661  16.102 -0.1724 -0.2323 -0.0387
 8131W        W27665   8.665  12.565   1.772  0.0618 -0.2863  0.1580
 8132W        W27666   7.643  15.593   1.609  0.2313  0.0628 -0.0263
 8133W        W27667   8.417  16.675   4.692 -0.0535 -0.3355  0.1118
 8134W        W27668  12.793   0.210   2.656  0.0208  0.0684 -0.2039
 8135W        W27669   7.498  11.984  15.744 -0.0328  0.0262  0.2607
 8136W        W27670   9.392  17.185  12.339  0.1236  0.1242 -0.1434
 8137W        W27671  13.648  12.062   0.449 -0.3642  0.3004  0.1830
 8138W        W27672  11.869  12.232   0.151 -0.0736  0.0003 -0.0880
 8139W        W27673   9.410   4.197  15.322  0.3655  0.0954  0.1681
 8140W        W27674   5.357   9.827   1.723  0.0050 -0.0455 -0.0364
 8141W        W27675  14.823   4.900   0.732  0.0776  0.0697 -0.1159
 8142W        W27676   3.589  14.755  14.790 -0.0678  0.3610 -0.1485
 8143W        W27677   5.585   6.039  15.821 -0.3009 -0.0515  0.1953
 8144W        W27678  14.656   7.231  17.128  0.2112  0.3409  0.1133
 8145W        W27679   4.885   1.486  13.522 -0.2715  0.1196 -0.1837
 8146W        W27680   9.102  14.204  14.184 -0.2265  0.0042 -0.2866
 8147W        W27681   3.139  11.707   3.484  0.0475 -0.1267 -0.2913
 8148W        W27682  16.804  16.949  14.309  0.0506 -0.0176  0.0399
 8149W        W27683  15.507   5.480  16.258  0.1161 -0.2068 -0.0649
 8150W        W27684   7.216   3.108   2.108  0.3411 -0.1823 -0.1044
 8151W        W27685  13.510   3.333   2.043  0.0594  0.2083 -0.0903
 8152W        W27686   8.969   5.821  14.404 -0.0464  0.3114 -0.1051
 8153W        W27687   9.732   7.424  13.248 -0.0171  0.0360 -0.1561
 8154W        W27688   3.423  14.713  13.064  0.0717 -0.0393  0.3134
 8155W        W27689   3.182  12.007   2.181  0.0280 -0.0444 -0.2093
 8156W        W27690   7.539   3.792   0.976 -0.0138 -0.2744  0.0570
 8157W        W27691  10.569   1.205   0.046 -0.0167 -0.0436 -0.3600
 8158W        W27692   8.619   3.208  16.300  0.0037  0.1506  0.2137
 8159W        W27693  13.729   3.810   2.386 -0.0184 -0.2190  0.1470
 8160W        W27694  12.198  12.705   1.529  0.0799 -0.0517 -0.3836
 8161W        W27695  14.180   0.203  17.284  0.2358  0.1064 -0.3596
 8162W        W27696   5.595   9.811   0.213  0.1043  0.2074  0.1981
 8163W        W27697   2.518  11.375  12.724 -0.1119 -0.0377  0.0068
 8164W        W27698   6.657   0.284  13.522 -0.3056 -0.2132  0.0450
 8165W        W27699  16.239  11.583   4.963  0.0733  0.0412  0.2101
 8166W        W27700  14.085  14.972  15.888  0.2098 -0.1637 -0.2466
 8167W        W27701  10.197   5.103   4.819  0.1101  0.0255  0.1594
 8168W        W27702   7.315  12.809  13.062 -0.1441  0.0813  0.3980
 8169W        W27703  13.227   5.582  16.354  0.1916  0.1689 -0.1395
 8170W        W27704   9.731   4.130   1.614  0.2486  0.0052 -0.2067
 8171W        W27705  15.772   2.160   3.609  0.1819 -0.1326 -0.3322
 8172W        W27706   0.682   6.308  16.168  0.1602  0.1628 -0.0914
 8173W        W27707  16.609  13.391   0.173 -0.0346 -0.0495  0.0269
 8174W        W27708  11.534  15.627  12.775  0.1700  0.2898  0.0973
 8175W        W27709  12.980   2.310   3.773 -0.2209 -0.0396 -0.2596
 8176W        W27710  12.415   5.892   0.208 -0.1543  0.0242  0.3597
 8177W        W27711  14.126   6.316   0.069  0.0696  0.0424 -0.2484
 8178W        W27712   9.118   9.635   0.893  0.1083  0.0679 -0.0085
 8179W        W27713  10.319  14.089  15.183  0.1538  0.1567  0.3612
 8180W        W27714  14.349   5.316  14.226  0.0001 -0.1527 -0.0019
 8181W        W27715   9.789   8.782   4.687 -0.0659  0.1420  0.0463
 8182W        W27716   5.013  16.345   5.371 -0.0877 -0.2248  0.1227
 8183W        W27717   5.168  15.417   4.757 -0.0451  0.0915  0.0030
 8184W        W27718   1.426   1.937   2.376 -0.0489  0.2220 -0.2721
 8185W        W27719   8.246   0.582   2.917 -0.2495 -0.0731  0.2014
 8186W        W27720   4.914  14.777   5.027 -0.0936  0.2192  0.3857
 8187W        W27721   3.590   4.497  14.325  0.2370 -0.0325 -0.0659
 8188W        W27722   6.491   0.703   2.080  0.0619  0.1926  0.1534
 8189W        W27723  14.730   3.870  16.743 -0.1007 -0.0925 -0.0894
 8190W        W27724   5.375   3.798   6.247 -0.1513 -0.0147 -0.1322
 8191W        W27725   1.080   6.919  15.831 -0.1762 -0.3382  0.1218
 8192W        W27726  11.445  12.567   4.588  0.0666  0.1344 -0.0359
 8193W        W27727  13.025   0.188   4.268  0.0199 -0.3571 -0.1692
 8194W        W27728  17.140   7.627   0.959  0.0168 -0.0548  0.1766
 8195W        W27729  12.461   9.960   4.882 -0.0322  0.2153  0.2647
 8196W        W27730  16.828   2.997  14.017 -0.0510 -0.4228  0.2070
 8197W        W27731  15.807  16.780  16.875  0.3373 -0.1359  0.1536
 8198W        W27732   9.569   0.780   1.055  0.0337  0.1170 -0.3061
 8199W        W27733   6.800   6.930   0.856  0.0182  0.2699 -0.1403
 8200W        W27734  17.242  11.407  14.434 -0.2281  0.0087  0.0007
 8201W        W27735  15.268  15.041  14.714 -0.0342  0.1670  0.1149
 8202W        W27736  13.289  16.534   0.106 -0.0584 -0.2276  0.0361
 8203W        W27737  11.246  12.049  14.030 -0.1102  0.1828  0.3466
 8204W        W27738   1.969   9.560  14.047  0.1833 -0.0018  0.0258
 8205W        W27739  10.727  14.277  14.218  0.2482  0.1055 -0.0485
 8206W        W27740  10.718  15.024   2.513  0.1221  0.0235 -0.0063
 8207W        W27741  11.018   7.296   4.983 -0.1220  0.3230  0.0642
 8208W        W27742  11.801   0.050  14.865 -0.1827 -0.2228  0.2638
 8209W        W27743  15.393   1.286   3.676 -0.0661  0.0129 -0.1223
 8210W        W27744   8.345   0.875   1.792 -0.0748 -0.2686  0.1723
 8211W        W27745  16.872  17.202   2.302 -0.0204  0.1652  0.3337
 8212W        W27746  16.010   0.676  12.703  0.1055  0.5421 -0.0304
 8213W        W27747   3.880   6.262   1.274  0.1717 -0.0603  0.0111
 8214W        W27748   1.146   9.067  13.169 -0.2529  0.2431  0.2257
 8215W        W27749  16.927   7.572   0.460 -0.0661  0.1197 -0.0816
 8216W        W27750  10.584   1.463   4.389  0.0135  0.1025  0.0338
 8217W        W27751   4.521   2.801  14.337  0.0667 -0.2273 -0.0928
 8218W        W27752   5.532  10.118   4.785  0.0856 -0.1392 -0.0425
 8219W        W27753   8.752  14.242  17.131  0.1739 -0.2538 -0.0314
 8220W        W27754   5.800  11.095  13.226  0.1750 -0.1343 -0.1796
 8221W        W27755   6.563   9.028  12.136 -0.2023  0.2714 -0.2756
 8222W        W27756  13.204   9.232   0.354 -0.0813  0.1306 -0.0958
 8223W        W27757   7.588   7.863   1.534  0.0102  0.0220  0.1506
 8224W        W27758   6.145   5.220   1.780  0.1961  0.1621 -0.1497
 8225W        W27759   3.363   6.404  14.437  0.1301  0.3870 -0.2445
 8226W        W27760  12.678   2.036  16.339  0.3045 -0.2683  0.2445
 8227W        W27761   0.724   6.938  13.520  0.1308  0.1915  0.1501
 8228W        W27762  11.800  15.453  15.487 -0.4466 -0.1561 -0.0522
 8229W        W27763  13.073   2.342   2.320 -0.0335  0.0277 -0.0483
 8230W        W27764   1.561   3.853   0.354  0.0460  0.1096 -0.0311
 8231W        W27765   3.778   8.593  16.677  0.1176 -0.0594  0.0502
 8232W        W27766  11.808   1.136  15.133  0.1712 -0.1099 -0.1881
 8233W        W27767   0.698   2.785   4.743  0.1766  0.2499  0.2198
 8234W        W27768  12.333   7.811   2.756 -0.2378 -0.2526 -0.3275
 8235W        W27769  12.712   8.507   1.334 -0.5075 -0.1178 -0.1383
 8236W        W27770   5.155   6.229  13.180  0.0550 -0.1828 -0.1249
 8237W        W27771   4.437   3.789  13.088 -0.1672  0.3245  0.0057
 8238W        W27772  14.125   0.962  15.521  0.2311  0.0652 -0.0791
 8239W        W27773   5.763  14.761   1.103  0.0848 -0.3540  0.1163
 8240W        W27774   0.409   0.867  16.926 -0.1090 -0.2720  0.0933
 8241W        W27775   5.715   9.111  13.804 -0.1848 -0.0818  0.0828
 8242W        W27776  13.758  13.451   1.518  0.2872 -0.1752 -0.0997
 8243W        W27777  14.171  10.532  12.232  0.1359 -0.0789 -0.0484
 8244W        W27778  17.311   2.899  14.196  0.0766 -0.3436 -0.0176
 8245W        W27779   2.575  11.024   5.090 -0.2973 -0.2986 -0.0816
 8246W        W27780  13.279  15.913   0.295 -0.1293  0.0014  0.3600
 8247W        W27781  15.813  11.640   4.454  0.0262 -0.0417  0.2109
 8248W        W27782   0.812   5.324  16.306  0.0038  0.2054 -0.0782
 8249W        W27783   2.962   9.224   2.099  0.0838 -0.0117 -0.0706
 8250W        W27784  13.699  16.142   0.999 -0.4225  0.1945 -0.1281
 8251W        W27785   0.320  10.733  15.785 -0.3071 -0.2159 -0.0009
 8252W        W27786   5.970   8.313   2.290  0.1927  0.1229  0.3336
 8253W        W27787   5.733  10.028   3.827  0.2009  0.0314  0.1074
 8254W        W27788   5.383  11.894   1.325  0.2591 -0.1763  0.0440
 8255W        W27789  16.813  13.420  14.882 -0.0767 -0.0462  0.3987
 8256W        W27790   2.424  15.066   1.118  0.1658 -0.1506 -0.2454
 8257W        W27791   4.546   2.157   4.797  0.0169 -0.0689  0.1609
 8258W        W27792  14.770  12.179   3.839 -0.5996 -0.0943 -0.1434
 8259W        W27793   1.668   9.504   5.083  0.2774 -0.0907 -0.0596
 8260W        W27794   0.181   3.705   0.578  0.0721 -0.1228  0.0479
 8261W        W27795   0.607  16.488   3.128 -0.5584  0.0705 -0.1020
 8262W        W27796   5.989  12.081   5.173 -0.0529 -0.1368  0.3527
 8263W        W27797  16.514  15.666   4.611 -0.0076  0.0321 -0.0334
 8264W        W27798   2.148   5.464   3.074  0.0817 -0.1560  0.0497
 8265W        W27799   9.945   3.500   4.148  0.0408  0.1493  0.3707
 8266W        W27800   3.848  10.931  16.454 -0.1338 -0.1129 -0.0565
 8267W        W27801   7.704   7.971  16.552  0.0014  0.0813 -0.3833
 8268W        W27802  16.650  13.241   1.046  0.0587 -0.1868 -0.3018
 8269W        W27803   5.350   1.782   4.076  0.0473  0.0171 -0.0455
 8270W        W27804  14.846   0.894  17.253 -0.1673  0.2210  0.1665
 8271W        W27805  11.886   3.441  14.505 -0.0335 -0.0147  0.1879
 8272W        W27806   5.324  12.860   4.797  0.0753 -0.1498 -0.0612
 8273W        W27807   0.540  10.873   3.235 -0.0189  0.0283 -0.4114
 8274W        W27808   1.126   2.913  16.721 -0.1797 -0.1277  0.1160
 8275W        W27809   2.493  12.210  16.759  0.0051 -0.3756  0.0556
 8276W        W27810   5.393   5.673  15.046 -0.0074  0.1037  0.1324
 8277W        W27811   8.792   6.222   4.321  0.1023 -0.1081  0.1657
 8278W        W27812   8.456  16.090   4.857 -0.1309 -0.0019 -0.1108
 8279W        W27813   9.110   5.350  14.563  0.1165  0.0993 -0.1256
 8280W        W27814   8.840   9.195  16.007  0.1488  0.3166  0.4107
 8281W        W27815   6.546   0.168  14.246 -0.1651  0.1601 -0.0424
 8282W        W27816   2.919  10.428   4.957  0.0592 -0.3130  0.2612
 8283W        W27817  14.772   5.761  13.415 -0.0725 -0.0122 -0.0956
 8284W        W27818   2.931  10.857  16.077  0.1124  0.1244 -0.2299
 8285W        W27819   4.811   8.014  14.182  0.1365 -0.0143  0.0530
 8286W        W27820  16.091  12.712  13.551 -0.0577  0.0130  0.0338
 8287W        W27821   6.666   0.653  17.008  0.1970  0.2019  0.0325
 8288W        W27822   9.314   9.540   5.175  0.2166  0.1675 -0.0994
 8289W        W27823   1.789  13.499  11.321 -0.1184 -0.0482 -0.0227
 8290W        W27824  11.855  10.666   5.329  0.0963  0.0798 -0.1337
 8291W        W27825   4.671   0.772   3.284 -0.1256 -0.2455 -0.4421
 8292W        W27826   9.876   7.659   0.053 -0.4964  0.1591 -0.0364
 8293W        W27827   6.616   1.809  13.165  0.2120 -0.1357  0.0796
 8294W        W27828  11.979  11.950  15.197 -0.2856 -0.1622  0.1247
 8295W        W27829   1.466  15.206   0.769  0.1468 -0.3633  0.1000
 8296W        W27830   8.508   4.393  13.032 -0.3768  0.0566 -0.2480
 8297W        W27831  16.769   9.160   1.236 -0.1881  0.1771  0.3677
 8298W        W27832  10.389   2.541   1.300  0.0563  0.0395  0.1326
 8299W        W27833  15.074   0.419  13.304  0.2766  0.3172 -0.0370
 8300W        W27834   5.425  14.019  15.999 -0.2601 -0.0463 -0.1803
 8301W        W27835   2.412  12.084  15.482  0.1548  0.1189  0.1152
 8302W        W27836   6.868  13.615   1.377 -0.1219 -0.1121 -0.1417
 8303W        W27837   9.746   2.843  12.968 -0.2207  0.3268  0.0143
 8304W        W27838   4.932   0.762   2.779  0.1596  0.0055 -0.1451
 8305W        W27839   2.559  16.991  13.327  0.0355 -0.2588 -0.1633
 8306W        W27840   7.210  16.156  15.748  0.3367  0.1932 -0.2240
 8307W        W27841   0.135   2.045   2.334  0.2099  0.1449 -0.1138
 8308W        W27842   6.734  11.197   0.418 -0.0958  0.0807 -0.0464
 8309W        W27843   7.111  16.256   0.566  0.2531  0.1761 -0.1883
 8310W        W27844   5.001   2.309  12.571 -0.0199  0.0906 -0.1996
 8311W        W27845  15.791  16.782   0.945  0.1867  0.0113  0.0198
 8312W        W27846   3.666  10.041  13.471  0.2817  0.2398 -0.0078
 8313W        W27847  16.468   9.352   3.111  0.0200  0.2126  0.0218
 8314W        W27848   7.222   8.795  12.612 -0.1480 -0.3032  0.0319
 8315W        W27849  11.415   1.877  15.912  0.1401 -0.0561  0.2171
 8316W        W27850  13.343  16.154  15.893  0.1088 -0.0666  0.0851
 8317W        W27851   7.504   7.909   0.075 -0.4429 -0.1630  0.0632
 8318W        W27852   8.667   5.686   4.162 -0.3329  0.0043 -0.0646
 8319W        W27853  17.473  11.856  15.725  0.2900 -0.2277  0.1426
 8320W        W27854  13.808   2.373  15.569  0.1214  0.1905 -0.0283
 8321W        W27855   1.094  14.308  15.703  0.0709 -0.0314  0.1499
 8322W        W27856   6.868   2.559  17.169 -0.3407  0.2327 -0.0439
 8323W        W27857   7.982  15.347   4.706 -0.0650 -0.1155 -0.0145
 8324W        W27858   2.344   2.798  15.151 -0.3776 -0.1930 -0.0660
 8325W        W27859   3.694   0.101   0.017 -0.1553  0.0017 -0.1480
 8326W        W27860   6.162   1.448  14.059 -0.2393  0.0210  0.0464
 8327W        W27861   8.328  17.075  16.274 -0.1396  0.1618  0.1947
 8328W        W27862   4.503   0.214   2.531  0.2747 -0.1263 -0.1246
 8329W        W27863   9.460   9.616   3.542  0.1894  0.3484  0.2194
 8330W        W27864  13.516   9.367  13.264  0.1880 -0.2657 -0.1421
 8331W        W27865   2.890   6.190   3.465  0.0714  0.1667 -0.0846
 8332W        W27866   9.599   1.698  15.572  0.1341  0.0390 -0.5141
 8333W        W27867  13.853  13.129  14.622  0.1049  0.1006 -0.0714
 8334W        W27868   4.629  13.687  13.872 -0.0719  0.0048  0.0325
 8335W        W27869  12.825   5.054  16.990 -0.3084 -0.3079  0.1653
 8336W        W27870  17.082  16.764   1.198  0.0480  0.0952 -0.0471
 8337W        W27871   4.525   0.423  15.300 -0.1674 -0.4198  0.1869
 8338W        W27872  10.460   2.730  16.675  0.3837 -0.1326 -0.0303
 8339W        W27873   0.251  14.596   4.671 -0.1865  0.1978  0.1643
 8340W        W27874  10.086   3.031   4.111  0.1163  0.1134 -0.1982
 8341W        W27875  13.260   4.896   5.052  0.4341  0.0071  0.1161
 8342W        W27876  12.670  12.077  14.096 -0.0664  0.0778 -0.3204
 8343W        W27877   3.409   8.644   1.979 -0.0739 -0.2167  0.1412
 8344W        W27878   6.391   1.806   1.244 -0.1128 -0.2414 -0.0133
 8345W        W27879   8.514   8.610   1.831 -0.5277 -0.3848 -0.1462
 8346W        W27880   6.623   5.011   1.801 -0.0704  0.0332  0.0380
 8347W        W27881   4.805   9.765   4.494  0.1765 -0.0336  0.2933
 8348W        W27882   7.845   3.045  14.603 -0.3292 -0.1476 -0.1410
 8349W        W27883   2.903   4.857  16.976 -0.0263  0.0082 -0.2674
 8350W        W27884   9.316   5.277   0.107 -0.2062 -0.0458 -0.3011
 8351W        W27885  14.447  10.755   3.863 -0.1772  0.0812 -0.0259
 8352W        W27886  13.457   5.346  13.326  0.1433 -0.0547 -0.2526
 8353W        W27887   3.732  15.720   3.434 -0.2077  0.3228 -0.3134
 8354W        W27888   5.597  10.842   1.164  0.0258  0.1104  0.0288
 8355W        W27889   3.383   5.178   1.893 -0.3755 -0.0565 -0.0795
 8356W        W27890   8.174   1.012   5.095 -0.1615  0.0475 -0.1890
 8357W        W27891  10.780  14.293  15.228  0.0261  0.1727  0.0531
 8358W        W27892   1.837  12.004  12.808  0.0284  0.0051 -0.1056
 8359W        W27893  12.465  10.763   5.215 -0.0754  0.1668 -0.1297
 8360W        W27894   5.375  16.913   1.976 -0.0670 -0.3426 -0.0201
 8361W        W27895   3.640  12.642  16.108  0.2071  0.0403 -0.2535
 8362W        W27896   8.132   8.027   0.247 -0.2340  0.1525 -0.1356
 8363W        W27897   8.633   2.362  13.904  0.4015 -0.0179  0.3158
 8364W        W27898   9.440  16.000  15.769  0.2636 -0.2316 -0.1063
 8365W        W27899   3.356   2.198   0.742  0.2234 -0.0759 -0.0737
 8366W        W27900   1.772  11.739   4.841 -0.0644  0.0433  0.0835
 8367W        W27901  10.821  12.277  13.854 -0.2936 -0.0480 -0.0813
 8368W        W27902  13.306   3.729  16.575 -0.1694  0.0181 -0.0366
 8369W        W27903  11.960  12.867  12.794 -0.0953 -0.1659 -0.1376
 8370W        W27904   9.819  12.186  14.877  0.0877 -0.1839 -0.2194
 8371W        W27905   0.133  16.190   0.175 -0.2388 -0.1419  0.0749
 8372W        W27906   1.525   0.934   2.915 -0.2167 -0.0208  0.3182
 8373W        W27907  15.228   3.100   0.489  0.1330 -0.0439  0.3731
 8374W        W27908   2.180  15.083   2.242 -0.1873 -0.2063 -0.0171
 8375W        W27909  16.019  15.871   4.555 -0.0322 -0.3050 -0.1649
 8376W        W27910   3.561   3.370  15.661 -0.0661  0.0831 -0.0590
 8377W        W27911   4.960   3.868   0.818  0.2620  0.0665  0.1055
 8378W        W27912   8.176   2.035  14.362 -0.1384  0.0908 -0.0402
 8379W        W27913   9.956  17.148   2.277 -0.0566 -0.1167  0.2520
 8380W        W27914   8.115  15.426  16.747 -0.2248  0.0502 -0.0015
 8381W        W27915   9.820   4.637   1.307 -0.0644  0.1971 -0.4442
 8382W        W27916   3.340   8.213  14.780 -0.0225 -0.1617  0.0397
 8383W        W27917  11.051  11.294   1.346 -0.1522 -0.2050 -0.1958
 8384W        W27918   6.544   1.219  16.508 -0.2867 -0.2409  0.0501
 8385W        W27919  14.213   8.697  15.569 -0.1391  0.0243 -0.2523
 8386W        W27920   1.693   5.629   0.602 -0.2469 -0.1646 -0.1548
 8387W        W27921  11.952  12.322   3.987 -0.1581  0.0654 -0.1517
 8388W        W27922   0.388  15.087  14.379  0.1186 -0.0641  0.3077
 8389W        W27923   2.886   0.301   3.263  0.1117 -0.2314  0.0320
 8390W        W27924   6.396   5.456  15.823 -0.0624 -0.1993 -0.0936
 8391W        W27925  17.239   4.811  16.922  0.0038 -0.1140  0.0681
 8392W        W27926   7.436  10.957   4.423 -0.1073 -0.0203  0.0302
 8393W        W27927  12.901   6.603   1.729 -0.0875 -0.1834 -0.0412
 8394W        W27928   7.851  15.502   2.930  0.0063  0.1401  0.2267
 8395W        W27929   6.230  12.841   0.512 -0.0920  0.3041 -0.2482
 8396W        W27930   3.230   1.458  15.430  0.0559  0.0162 -0.1736
 8397W        W27931  13.613  16.971   0.096 -0.0751  0.0776 -0.3534
 8398W        W27932   3.807  11.778  15.583  0.0197 -0.3236  0.0194
 8399W        W27933   0.746   8.886  12.967  0.0222  0.0301  0.0754
 8400W        W27934  14.763  15.772   5.066  0.0929 -0.3141 -0.0367
 8401W        W27935   5.641   6.332   2.826 -0.3503 -0.2144  0.0089
 8402W        W27936  13.441  14.493  16.395  0.1094 -0.4081  0.0922
 8403W        W27937   3.632   6.979  13.663 -0.2376 -0.0792  0.2829
 8404W        W27938  17.093   3.868   3.838 -0.0198 -0.1353  0.2174
 8405W        W27939   9.347  12.396   4.861  0.1268  0.1028 -0.2741
 8406W        W27940   1.531  10.920  16.716 -0.2410 -0.1116 -0.0233
 8407W        W27941  11.315   4.250   4.897  0.1327  0.3434  0.0024
 8408W        W27942  11.020   2.162   2.679 -0.3081  0.1209  0.0014
 8409W        W27943  14.918   8.188   0.560 -0.1654  0.0294 -0.0115
 8410W        W27944  11.902  12.724  13.860  0.1034  0.0454  0.0318
 8411W        W27945   1.532  12.098  14.762 -0.0631 -0.0885  0.2751
 8412W        W27946  13.318  15.612  16.164  0.1685  0.0777  0.1646
 8413W        W27947   8.979   4.739   4.201 -0.0162 -0.1076 -0.2301
 8414W        W27948  14.225  10.703  16.145 -0.3450  0.1899  0.1393
 8415W        W27949   2.301   6.851  15.168 -0.0081 -0.3452 -0.3878
 8416W        W27950  13.314  11.635  12.860 -0.1088  0.0576 -0.2016
 8417W        W27951  13.108  13.847   2.802 -0.1443  0.0345  0.3327
 8418W        W27952  12.558   7.246   2.866 -0.4485 -0.1105  0.0890
 8419W        W27953   9.919   4.844   5.197 -0.3484 -0.1284  0.1134
 8420W        W27954   3.062  11.392  16.313  0.0703 -0.1803 -0.1576
 8421W        W27955   6.722   7.077   4.905 -0.1664  0.1503  0.1173
 8422W        W27956  10.450   2.327  12.595 -0.0621 -0.0136  0.2794
 8423W        W27957   0.002  10.345   3.562  0.1139  0.2107 -0.0779
 8424W        W27958   9.568  17.433   2.454 -0.1072 -0.2101 -0.0922
 8425W        W27959  10.457   2.082   0.991  0.0497  0.0286  0.4283
 8426W        W27960   3.912   0.897  16.753 -0.0561 -0.1201 -0.1707
 8427W        W27961  16.949   1.529   2.084 -0.0916 -0.1439 -0.0068
 8428W        W27962  15.500  16.429  14.619 -0.0291  0.1083 -0.0142
 8429W        W27963  13.727   1.578   1.497 -0.0777 -0.1262 -0.0603
 8430W        W27964   0.582   3.852  15.405 -0.1017 -0.0989  0.0764
 8431W        W27965  13.025   9.031  13.727 -0.0976  0.0054  0.1122
 8432W        W27966   0.680   0.423  12.326  0.0308 -0.1273 -0.1293
 8433W        W27967   9.944  14.599   3.775 -0.0525  0.1325  0.2358
 8434W        W27968   9.219   1.829   1.384 -0.0060  0.0187 -0.1417
 8435W        W27969  14.347  16.824  15.606  0.2465  0.2643  0.1192
 8436W        W27970  14.466   6.651  12.877 -0.0129 -0.2530  0.0510
 8437W        W27971  12.397  16.043  17.172  0.1346  0.0543 -0.1096
 8438W        W27972   8.405   9.208  17.168  0.2069 -0.0376 -0.0901
 8439W        W27973   3.973  11.599  12.317 -0.1427 -0.0374 -0.0166
 8440W        W27974  15.025  13.203  16.531  0.1050  0.0931 -0.1450
 8441W        W27975  15.103  12.140  15.508  0.0301 -0.1167 -0.3795
 8442W        W27976   5.273   5.638   0.132  0.0882 -0.2282 -0.3869
 8443W        W27977   8.520  14.835  15.488 -0.2113 -0.0581 -0.2587
 8444W        W27978  11.570  11.186  16.390 -0.3765  0.1895  0.0644
 8445W        W27979   6.272   0.424   2.446 -0.0050 -0.0130 -0.1037
 8446W        W27980  10.182   4.574  16.772 -0.1502 -0.2269 -0.0643
 8447W        W27981   2.944  16.413  13.218  0.2291  0.1630 -0.1440
 8448W        W27982   1.438  15.120  16.558 -0.0308 -0.1196 -0.4604
 8449W        W27983  12.903   1.327   3.597  0.0277 -0.0328 -0.0948
 8450W        W27984   9.438   8.502   4.492  0.0166 -0.0035  0.0138
 8451W        W27985   6.795  15.235   4.895  0.3953 -0.2569 -0.1965
 8452W        W27986   7.371  13.986  14.690 -0.2338 -0.0569 -0.2829
 8453W        W27987   2.853   3.987   0.164  0.3340 -0.0384 -0.0706
 8454W        W27988  11.450  16.943   4.869 -0.1511 -0.1003  0.2070
 8455W        W27989   8.797   3.098  16.782  0.1447  0.1371  0.1042
 8456W        W27990   1.469   0.454  15.298  0.0359 -0.0917 -0.0725
 8457W        W27991   5.444  14.442  14.358 -0.0637  0.0762  0.0369
 8458W        W27992  12.786  16.367  14.016  0.0758 -0.2668 -0.4353
 8459W        W27993   7.980   4.675   5.164  0.1472  0.1049 -0.0109
 8460W        W27994  13.501  15.769   2.683  0.1722  0.1483 -0.1984
 8461W        W27995  11.790   8.942  14.517 -0.3208  0.1544 -0.1279
 8462W        W27996  14.419   4.062   1.748  0.1668  0.0123 -0.1293
 8463W        W27997   7.110  17.474   4.106 -0.1401 -0.0600  0.1812
 8464W        W27998   0.417   5.125   3.028  0.2399 -0.1328 -0.2599
 8465W        W27999   7.785   4.866  14.158  0.1970  0.0493 -0.0129
 8466W        W28000  11.561  13.653   0.285 -0.1841  0.0079 -0.0380
 8467W        W28001  12.153   0.015  15.290 -0.2191 -0.1920  0.2455
 8468W        W28002  11.579   9.523   2.630  0.2338  0.0753 -0.0813
 8469W        W28003  14.393  15.833  15.642 -0.0915  0.0546  0.0565
 8470W        W28004   5.538  12.927  15.699  0.0059 -0.0391 -0.2253
 8471W        W28005   8.311   2.399  15.350 -0.1390  0.0413 -0.2553
 8472W        W28006  11.442   7.616   1.406  0.2648 -0.1196 -0.0273
 8473W        W28007  12.435  13.917  16.338  0.1701  0.0841 -0.3044
 8474W        W28008   8.748  11.747   4.422  0.3171 -0.0359  0.1437
 8475W        W28009  10.313   7.348   2.383 -0.1045 -0.0285  0.0069
 8476W        W28010   9.484   2.551   4.987 -0.1291 -0.3081 -0.0247
 8477W        W28011   7.131  10.261  16.032 -0.1895  0.0118  0.1102
 8478W        W28012   4.601   7.044  17.265  0.0322 -0.0945  0.2912
 8479W        W28013   2.853   0.543   1.224 -0.1536 -0.0753  0.1345
 8480W        W28014  10.919   0.120  15.711 -0.1063 -0.1869 -0.0715
 8481W        W28015  12.053  10.636   1.899 -0.1006 -0.0368 -0.0831
 8482W        W28016   2.600   2.887   6.411 -0.0125  0.0024  0.2506
 8483W        W28017   6.655   2.265   3.282 -0.0046 -0.0622  0.4621
 8484W        W28018  16.779   6.521  14.267 -0.0055 -0.2092  0.3224
 8485W        W28019   8.939  16.739  12.938  0.2170 -0.1043  0.1323
 8486W        W28020   9.988  15.448  17.233  0.2739  0.0644 -0.0849
 8487W        W28021  15.158   4.364   5.056 -0.2061 -0.1011 -0.0520
 8488W        W28022   7.745  10.460   0.830  0.0099 -0.2944 -0.0347
 8489W        W28023   3.904   5.312   1.005  0.0140 -0.0742  0.0721
 8490W        W28024  10.087  15.360   4.223 -0.1377 -0.0475  0.0728
 8491W        W28025  13.191  13.410  12.740 -0.2547 -0.1693 -0.1909
 8492W        W28026   5.019   6.972   5.278 -0.0335 -0.1069  0.1041
 8493W        W28027  16.970  13.371  16.343  0.2148  0.2298  0.1284
 8494W        W28028   0.028   1.975  16.244  0.0948  0.1502 -0.3353
 8495W        W28029  11.997   9.538   0.441 -0.3520  0.3717 -0.0902
 8496W        W28030   2.781  16.990  13.972  0.0180 -0.1043 -0.0085
 8497W        W28031  11.186  13.691  16.735 -0.0592  0.1708  0.1613
 8498W        W28032  17.336  15.335   3.691  0.2896  0.1644  0.0516
 8499W        W28033   5.393   7.519  17.176 -0.0033 -0.2587  0.0785
 8500W        W28034   4.390   6.098   0.878  0.1685  0.0017 -0.3754
 8501W        W28035   1.473  11.345  15.208 -0.3111  0.1944 -0.2618
 8502W        W28036  11.304  15.565   4.355 -0.1233  0.1444 -0.2105
 8503W        W28037  11.608   0.446  14.658 -0.1505 -0.0204 -0.0261
 8504W        W28038  13.602  13.320  12.404 -0.3030 -0.1803  0.0873
 8505W        W28039  14.338   8.110  14.225 -0.1415  0.2351  0.0282
 8506W        W28040   4.091  10.203  14.734 -0.1028 -0.0881  0.3950
 8507W        W28041   1.102   2.461   2.750  0.0951  0.1752 -0.0690
 8508W        W28042  10.234   4.077   4.999  0.0413  0.1523 -0.2344
 8509W        W28043  15.008   8.712   5.035 -0.0964 -0.0712  0.2068
 8510W        W28044  17.160  13.071   0.927  0.0554 -0.0479 -0.3355
 8511W        W28045  11.629   0.969  13.369  0.2631  0.0893  0.1209
 8512W        W28046   5.218   4.970   3.275 -0.4030 -0.2465  0.0109
 8513W        W28047   3.082  14.311  14.655 -0.3634  0.0157 -0.1770
 8514W        W28048   8.557  17.431   2.458 -0.0882 -0.0034 -0.0754
 8515W        W28049  12.728   8.856   0.442 -0.0539  0.1955 -0.0628
 8516W        W28050  14.832  13.445   4.869 -0.2170 -0.0232 -0.1426
 8517W        W28051  10.619  14.569  12.974  0.2613  0.1397 -0.0383
 8518W        W28052   3.864  17.268  15.292 -0.0147  0.0866  0.0065
 8519W        W28053   6.035   2.457   0.430  0.0169  0.0332 -0.1435
 8520W        W28054  15.115  11.201  16.290  0.0188 -0.0264  0.0742
 8521W        W28055   6.465   6.568   1.045  0.0939 -0.0453 -0.2545
 8522W        W28056   5.083  16.874   1.613 -0.1281  0.1747 -0.1154
 8523W        W28057   7.232   0.654   3.044  0.0576  0.2668  0.2608
 8524W        W28058   5.802  15.564   3.734  0.1233 -0.0763  0.2802
 8525W        W28059   7.438   1.560  13.765 -0.2945  0.2933 -0.1900
 8526W        W28060   8.994   3.555   2.907 -0.1093  0.5108 -0.0962
 8527W        W28061   1.346   0.494   2.603  0.1570  0.2909 -0.0157
 8528W        W28062   5.384   6.001   2.416  0.0507 -0.1209  0.1017
 8529W        W28063  11.235   2.665   5.222  0.0211 -0.0382  0.0791
 8530W        W28064   3.381   3.478   4.664 -0.1278 -0.0649  0.2143
 8531W        W28065  15.295   0.440   2.665  0.0133 -0.0848 -0.0632
 8532W        W28066   9.231  13.178   4.759  0.0225 -0.1107 -0.1512
 8533W        W28067   6.091  14.193   1.630 -0.0430  0.4029 -0.0092
 8534W        W28068   2.133   1.460  16.850 -0.1504  0.5513 -0.1159
 8535W        W28069  13.441   8.760  16.362  0.0274  0.0153 -0.0216
 8536W        W28070   2.353  13.492  12.241 -0.2824  0.0204  0.2686
 8537W        W28071  14.260   2.362  15.300 -0.3843  0.2252 -0.0519
 8538W        W28072  13.228   7.093  15.850 -0.0009 -0.2622 -0.2779
 8539W        W28073  12.232  10.669  12.417 -0.2324  0.1591 -0.3768
 8540W        W28074  11.542   5.968   0.321 -0.1475  0.0203  0.1253
 8541W        W28075   9.515  13.898  15.524  0.6296 -0.2058 -0.0559
 8542W        W28076   2.729   7.260  13.538  0.2169 -0.1563  0.2275
 8543W        W28077   1.872   5.574   3.912  0.2491 -0.0732 -0.1423
 8544W        W28078  14.738   9.093   4.983 -0.3527  0.0685  0.1264
 8545W        W28079  17.306   2.232  14.530  0.0790 -0.0869 -0.0376
 8546W        W28080  14.522  10.054  16.878 -0.0888 -0.0540  0.0913
 8547W        W28081   5.184  12.289  15.431  0.0033 -0.0370 -0.0556
 8548W        W28082   8.628   7.534   4.423 -0.1131  0.3426  0.0345
 8549W        W28083  16.323  12.531  12.719 -0.2083 -0.1272 -0.0065
 8550W        W28084   3.427   0.472  12.003 -0.3361 -0.0229 -0.1104
 8551W        W28085   9.806   7.191   3.056  0.0538  0.2726  0.1917
 8552W        W28086   6.271   5.503   4.216 -0.2187  0.1997  0.0099
 8553W        W28087   1.569  12.091  15.259 -0.1370  0.1570 -0.0834
 8554W        W28088   4.808   6.178  15.311  0.1339 -0.1970 -0.0958
 8555W        W28089   9.039  14.806  12.132 -0.1800 -0.0212 -0.0521
 8556W        W28090   9.248  13.014   1.381  0.1965  0.2029 -0.2587
 8557W        W28091  10.844  11.478   0.902 -0.1712 -0.1536  0.1264
 8558W        W28092  15.082   4.561  12.926  0.0245 -0.0137 -0.1606
 8559W        W28093   4.902   0.879  14.376  0.3550 -0.2054  0.1864
 8560W        W28094   4.996  10.917   4.629  0.0204  0.2193 -0.0877
 8561W        W28095   1.625   3.016   4.017  0.0157 -0.0745 -0.2922
 8562W        W28096   5.043   0.203   2.634 -0.1168 -0.2897 -0.0400
 8563W        W28097  14.878  13.957   0.716  0.0862  0.0123  0.1568
 8564W        W28098   3.295   1.982  15.590 -0.0581  0.0476 -0.2413
 8565W        W28099   5.154   1.696   2.734  0.2054  0.1506  0.0034
 8566W        W28100   1.015  12.210   1.193 -0.0357  0.0980  0.0271
 8567W        W28101   5.901   7.634  15.643 -0.3283  0.0393  0.1217
 8568W        W28102  14.210  13.003  15.669  0.0223  0.0129 -0.0811
 8569W        W28103   7.305  11.266   2.005  0.2447  0.1545 -0.1175
 8570W        W28104   8.878  16.539   1.295 -0.2847 -0.1832 -0.1922
 8571W        W28105  14.491   1.322   5.984 -0.2533 -0.2074  0.3464
 8572W        W28106   9.860   4.774  12.369  0.1941  0.0466  0.1334
 8573W        W28107   1.896  11.864  14.472 -0.2322 -0.3426  0.2744
 8574W        W28108   7.532  11.470   5.252  0.2670  0.3893  0.2908
 8575W        W28109   4.112  16.081  12.178  0.1578 -0.0013 -0.1735
 8576W        W28110   4.507   0.183  12.914  0.2853 -0.1728 -0.3131
 8577W        W28111  10.209  10.653   4.568 -0.2050  0.1949 -0.3121
 8578W        W28112  15.396  13.822  12.190 -0.2603 -0.0582 -0.0926
 8579W        W28113   9.696   4.570   2.326 -0.0001 -0.0873 -0.1229
 8580W        W28114  11.539   4.685   2.149  0.0301  0.1557  0.0470
 8581W        W28115  14.027   9.566   1.023  0.0383  0.0669 -0.0029
 8582W        W28116   5.259   1.203   3.386  0.1016 -0.0248  0.1733
 8583W        W28117   8.571  14.308   4.112  0.0117 -0.2649  0.1684
 8584W        W28118  11.771   8.702  13.083 -0.0131 -0.1181 -0.1939
 8585W        W28119   2.849   3.007  16.884 -0.0370 -0.2747  0.1956
 8586W        W28120   5.429   5.034   1.104  0.0164 -0.0302 -0.0865
 8587W        W28121   0.125  17.450  16.266 -0.3511  0.0249 -0.1439
 8588W        W28122  11.601  15.087  14.767 -0.1200  0.2628 -0.1848
 8589W        W28123  15.141   8.312  14.316 -0.0451  0.0148 -0.1073
 8590W        W28124   6.773  12.249  12.417 -0.0497  0.1284  0.0284
 8591W        W28125  12.292  10.189  13.928  0.0936 -0.3385  0.1757
 8592W        W28126   6.353  14.531  13.173 -0.0504  0.0416  0.1287
 8593W        W28127   5.178   0.814  12.314  0.1620  0.2031 -0.1227
 8594W        W28128   2.795  10.069   2.437  0.2289  0.0949  0.2006
 8595W        W28129   1.919  13.537  12.715  0.1484  0.0671  0.1279
 8596W        W28130  10.415  17.285   2.490 -0.2864  0.0814  0.1043
 8597W        W28131  13.889  12.305  13.024 -0.2708  0.2563 -0.0735
 8598W        W28132   8.673  11.859  12.788 -0.1210 -0.0188 -0.1336
 8599W        W28133   9.329  16.306   1.016 -0.0581  0.0062  0.0615
 8600W        W28134  13.628  11.392  13.179 -0.1179 -0.2044  0.2098
 8601W        W28135   6.841  12.876   4.020  0.3022 -0.1010  0.2834
 8602W        W28136   3.312  17.100  12.879 -0.1293 -0.0142  0.0441
 8603W        W28137   9.973   9.289   0.509 -0.1529  0.0141  0.2071
 8604W        W28138  11.021  12.361   0.316  0.0023  0.0249  0.0940
 8605W        W28139  14.157   0.016   2.470  0.1475 -0.2288 -0.0950
 8606W        W28140   1.817  14.160   3.265 -0.3696  0.0699  0.1136
 8607W        W28141  11.967  12.014  15.745  0.1586 -0.4162 -0.3900
 8608W        W28142   3.710  17.315  14.520 -0.1796  0.2045  0.3851
 8609W        W28143   7.665  16.792  15.788  0.1282  0.2072  0.1377
 8610W        W28144   5.717   3.232  12.638  0.0345  0.0159  0.2761
 8611W        W28145  11.103  14.939  16.895  0.0633  0.1061  0.1460
 8612W        W28146   2.168   7.935   0.877 -0.1266 -0.0735 -0.1968
 8613W        W28147   3.410  16.055   0.845 -0.3210 -0.1853  0.1496
 8614W        W28148  16.442  17.173   2.628 -0.1941 -0.0503 -0.1905
 8615W        W28149   8.492  10.543  13.781 -0.1530  0.0436 -0.0905
 8616W        W28150   8.831   3.756  14.287 -0.2024  0.0858  0.0859
 8617W        W28151  12.794   5.353  15.063 -0.0188 -0.0400  0.2653
 8618W        W28152  13.329   9.607   0.647  0.0227  0.1993 -0.1387
 8619W        W28153   3.732  17.268  13.640  0.3037 -0.2114  0.1075
 8620W        W28154   6.134   6.205   0.791 -0.0572 -0.1703 -0.0570
 8621W        W28155  13.666   3.008  12.981 -0.1080 -0.0471  0.2734
 8622W        W28156   5.475   6.621  14.072  0.1091  0.2586  0.0668
 8623W        W28157   7.301   7.741  15.395  0.0953 -0.0297  0.0077
 8624W        W28158   2.701   7.485   2.795  0.1784 -0.0216  0.0240
 8625W        W28159   3.025   8.735   5.389 -0.1931 -0.0375 -0.1700
 8626W        W28160  12.076   1.166   1.088  0.0334  0.2844 -0.1833
 8627W        W28161   4.493   0.004   4.691  0.0277  0.1210 -0.1240
 8628W        W28162   9.439   7.199   3.863  0.1933  0.0227 -0.0817
 8629W        W28163   4.205  10.933   1.668  0.1193  0.0209  0.0536
 8630W        W28164   8.894   0.805  14.764 -0.0248 -0.1985 -0.1132
 8631W        W28165  11.287   8.200  12.111  0.2870  0.0744 -0.1004
 8632W        W28166   1.018   2.696   0.484 -0.0065  0.0638 -0.1016
 8633W        W28167   7.187   6.464   3.058  0.0319  0.1132  0.1175
 8634W        W28168   4.527   8.094   0.469 -0.1147 -0.1312 -0.1520
 8635W        W28169   3.478   5.327   0.509  0.1077  0.0680 -0.1871
 8636W        W28170  16.903  17.073  12.655  0.0498 -0.1880 -0.2799
 8637W        W28171  15.904  16.979  15.749 -0.0579  0.0507 -0.0222
 8638W        W28172  10.746   8.601  13.224  0.1413  0.0578 -0.1883
 8639W        W28173  14.998   7.564  14.238 -0.0723 -0.0489 -0.0107
 8640W        W28174  13.185   0.124  12.586 -0.1820  0.3291  0.0332
 8641W        W28175  11.986  17.059   4.619  0.2437  0.1911 -0.1023
 8642W        W28176  14.348   0.165  13.899  0.0736  0.0700 -0.0046
 8643W        W28177  15.137   3.402   3.476 -0.0531  0.4040 -0.2083
 8644W        W28178   1.124  10.434   3.906  0.0119 -0.2264 -0.1045
 8645W        W28179   2.655   3.901  13.881  0.0297 -0.0879 -0.0727
 8646W        W28180   8.771   6.859  17.111  0.1314  0.0541  0.0480
 8647W        W28181  12.613   7.192   1.059  0.1906 -0.1607 -0.3236
 8648W        W28182  11.075   5.924  16.647 -0.1175 -0.0498  0.1251
 8649W        W28183   1.020  14.006   5.045  0.1271 -0.0477 -0.1772
 8650W        W28184   8.896   2.691   0.374  0.0368 -0.0682 -0.1800
 8651W        W28185   3.422  14.024  16.305  0.3097  0.2788 -0.1345
 8652W        W28186  11.257   9.753  16.737  0.0094  0.3108  0.2408
 8653W        W28187   0.794   5.980   2.168 -0.0392  0.2291  0.1455
 8654W        W28188   5.405   9.534   2.672  0.0697 -0.3910 -0.0968
 8655W        W28189   4.919   5.824   2.097 -0.1539  0.0109  0.0877
 8656W        W28190   6.007  13.805   3.114 -0.0432 -0.1337 -0.0875
 8657W        W28191   2.828   0.913  14.898 -0.0251  0.1228 -0.3137
 8658W        W28192  11.028   8.907  12.836 -0.0710 -0.5313  0.1855
 8659W        W28193  15.628   3.981   1.585 -0.0051  0.2419  0.0356
 8660W        W28194   6.192   4.192  13.276  0.2631  0.0141 -0.1674
 8661W        W28195   3.807   7.332  16.069 -0.2945 -0.1509 -0.0536
 8662W        W28196  11.700  11.556  16.059  0.0584  0.1776 -0.2204
 8663W        W28197   5.310   1.224  16.652 -0.2717 -0.0562 -0.1219
 8664W        W28198  12.681  16.252  14.484 -0.1590  0.0473  0.0010
 8665W        W28199   4.177   7.829  13.606 -0.0680  0.1656  0.4913
 8666W        W28200   2.313  12.680  13.289  0.0481  0.1782  0.0718
 8667W        W28201  15.139   4.129  15.365 -0.2014  0.1990 -0.1171
 8668W        W28202  16.176  10.321  14.953  0.2252  0.0524  0.0218
 8669W        W28203  17.153  10.985  13.261  0.2060 -0.2999 -0.0678
 8670W        W28204   5.073   1.862   0.204  0.0426  0.2410  0.0498
 8671W        W28205   1.409  11.270  16.404 -0.2189  0.0491  0.0147
 8672W        W28206   1.715   7.760  15.292  0.1911  0.2173  0.1633
 8673W        W28207  12.708  15.134  13.362 -0.0986  0.3763 -0.0227
 8674W        W28208  13.928   2.634  16.295 -0.0082  0.1337  0.1247
 8675W        W28209  13.895   3.706  14.040  0.0410 -0.1605  0.1241
 8676W        W28210  11.905   2.393   0.092  0.1152 -0.0296 -0.0665
 8677W        W28211   0.201   5.764   4.484 -0.0603 -0.0974 -0.3764
 8678W        W28212   9.655   5.374  16.628 -0.0002  0.0213 -0.1323
 8679W        W28213  11.667   1.360   5.379 -0.0630 -0.2082  0.1337
 8680W        W28214   7.289   7.431   1.390 -0.3085 -0.2980 -0.4999
 8681W        W28215   4.851   2.225  13.031 -0.1877 -0.1331  0.0870
 8682W        W28216   8.849   3.018  15.897 -0.0015  0.2141 -0.0371
 8683W        W28217   6.668   5.874   4.379 -0.0080  0.1394  0.0528
 8684W        W28218   5.028  13.995  17.015 -0.1274 -0.1908  0.3438
 8685W        W28219   2.683   7.972  13.997  0.4541 -0.1163 -0.1611
 8686W        W28220  13.359   1.681   3.320  0.0344 -0.0321 -0.1177
 8687W        W28221   6.528   3.196   3.347  0.1575 -0.1377 -0.2737
 8688W        W28222  15.776   7.641  13.483  0.0923  0.0585 -0.1145
 8689W        W28223  10.391   8.880   4.001 -0.3661 -0.3090  0.0794
 8690W        W28224   2.033  12.662   1.921 -0.0492  0.0197 -0.1798
 8691W        W28225   9.844   2.438  14.426 -0.2785 -0.1593  0.0078
 8692W        W28226  14.551  13.408  15.213  0.0658  0.0158  0.0714
 8693W        W28227   9.851  15.092  13.351  0.3832  0.0545  0.0300
 8694W        W28228   6.488  16.154   3.189 -0.0406 -0.2111  0.1222
 8695W        W28229   0.679  10.964   1.801  0.0414  0.0070 -0.1329
 8696W        W28230  16.046  12.051   1.743  0.1609  0.0494  0.0413
 8697W        W28231   6.391  15.401  15.189 -0.2135 -0.1347  0.2784
 8698W        W28232   7.474  14.300   2.893 -0.2848 -0.2654 -0.1930
 8699W        W28233   3.598  17.439   0.482 -0.1586 -0.0475 -0.0922
 8700W        W28234  13.815   9.057   5.180  0.0228 -0.0126  0.0121
 8701W        W28235   8.532  12.658  14.449 -0.0457  0.1157 -0.0535
 8702W        W28236   6.874  14.075   3.444 -0.0950 -0.3007 -0.0637
 8703W        W28237   1.446  17.040  12.140 -0.2527 -0.1584  0.0831
 8704W        W28238  14.667   8.428   2.820 -0.0163  0.3454 -0.2752
 8705W        W28239   6.751  12.985  14.241 -0.0502  0.2147  0.0577
 8706W        W28240  16.682   0.462   4.769 -0.1051  0.0201 -0.0350
 8707W        W28241  15.221   5.785   4.495 -0.1378 -0.2062 -0.1267
 8708W        W28242   7.587  16.679   5.160 -0.2512  0.0892  0.3756
 8709W        W28243   0.317  15.222   1.448  0.0278  0.0672  0.0680
 8710W        W28244  15.486   7.613   1.819 -0.0560  0.2397 -0.0566
 8711W        W28245   0.331  15.138   4.537  0.1564 -0.2648  0.0365
 8712W        W28246   6.786  15.913  13.560 -0.2934 -0.1553  0.3117
 8713W        W28247   4.564   0.947   0.981 -0.2007  0.2434 -0.2035
 8714W        W28248  13.461   4.681   3.834  0.2454  0.0483  0.1256
 8715W        W28249  13.947  10.624  13.824  0.1616  0.3396  0.1164
 8716W        W28250   6.707  14.428  13.904 -0.0883 -0.0422  0.2827
 8717W        W28251  17.363   2.402  12.382 -0.0611  0.1131  0.3117
 8718W        W28252   4.430   8.422   1.484  0.0591  0.0306 -0.2428
 8719W        W28253   2.124   9.117  15.914 -0.0058  0.1645 -0.1392
 8720W        W28254   8.373   5.201  16.654 -0.2360  0.1728 -0.0559
 8721W        W28255  11.653  16.415   4.079  0.0402  0.0372 -0.2943
 8722W        W28256   0.434   5.643   2.925 -0.3386 -0.3417 -0.0598
 8723W        W28257  16.373  10.418  16.134 -0.0499 -0.1190 -0.1230
 8724W        W28258   8.647  14.107   1.620  0.1288 -0.0794 -0.2100
 8725W        W28259  11.034   2.398  14.261  0.1341  0.1526 -0.0783
 8726W        W28260  14.736  16.408   0.381 -0.3499  0.0358 -0.1472
 8727W        W28261   2.039   4.759  16.740  0.0894  0.1655 -0.2458
 8728W        W28262  13.867   0.816  13.460 -0.2525  0.2323  0.1040
 8729W        W28263   1.139  14.133   2.557 -0.3111  0.0196  0.2507
 8730W        W28264   3.738  14.025   4.556 -0.0102  0.0902  0.2770
 8731W        W28265  11.593   2.351  12.189  0.1276 -0.0669  0.2367
 8732W        W28266  12.632   3.656  14.057  0.1401 -0.0721 -0.0336
 8733W        W28267  14.395  16.644  15.078 -0.0693 -0.0904 -0.2939
 8734W        W28268  15.501  13.716   0.109  0.1372 -0.2048 -0.1008
 8735W        W28269   9.339   7.041   2.896  0.1505 -0.1793 -0.1462
 8736W        W28270  10.614  16.105  12.521  0.2329 -0.1013 -0.0296
 8737W        W28271   3.109   5.430  15.525 -0.1054 -0.0824 -0.1673
 8738W        W28272   6.171  15.312   3.131 -0.1060  0.0868  0.0081
 8739W        W28273   2.922  10.446   0.144  0.0152 -0.1255 -0.3093
 8740W        W28274  17.307  11.556   3.154 -0.2632  0.0319  0.3190
 8741W        W28275  10.320   2.981   1.649 -0.1394 -0.1708  0.0228
 8742W        W28276   0.216  11.900   0.713 -0.2830  0.0545 -0.0969
 8743W        W28277  11.039  14.194   3.950  0.0408  0.0070 -0.2413
 8744W        W28278  11.700  16.304   3.063  0.0116 -0.2601 -0.3063
 8745W        W28279   1.322  14.985   3.368  0.2119  0.0373 -0.1636
 8746W        W28280  11.351   1.182  17.004  0.0613  0.2747 -0.4693
 8747W        W28281  12.093  15.139   0.816  0.1354 -0.1743 -0.0623
 8748W        W28282  10.653   2.209   0.164 -0.2045 -0.1564  0.1271
 8749W        W28283   4.027   1.069  14.846 -0.0900 -0.0489 -0.0903
 8750W        W28284  11.758   7.859   0.932 -0.0856  0.0427  0.0793
 8751W        W28285  16.494  14.779   0.058  0.0044 -0.0464  0.1365
 8752W        W28286  12.929  10.743  13.821 -0.1868 -0.4084  0.0031
 8753W        W28287  13.056   3.864   4.674  0.1729 -0.0905  0.1796
 8754W        W28288  10.231  13.109  12.464 -0.0712 -0.1659  0.1433
 8755W        W28289  14.536  15.729   2.408  0.1801 -0.0625  0.1542
 8756W        W28290  16.590   6.368  15.701 -0.0533  0.0193 -0.0788
 8757W        W28291  15.778  10.472  12.118  0.1053 -0.0417  0.1657
 8758W        W28292   5.292   6.239  15.277 -0.1180 -0.1162 -0.0507
 8759W        W28293   8.000  15.745   0.916  0.0042  0.0277 -0.2577
 8760W        W28294   0.980   2.847  14.895 -0.0678 -0.0608  0.1349
 8761W        W28295   6.754  16.435   2.228 -0.0710 -0.0460  0.2672
 8762W        W28296  12.973  12.758   1.715  0.2206 -0.2389  0.1021
 8763W        W28297   6.051  11.857   0.718  0.3674 -0.0153 -0.0134
 8764W        W28298  13.325   6.355   4.960 -0.0730 -0.0641 -0.3145
 8765W        W28299   0.579  16.386  12.281  0.4585 -0.0380  0.0958
 8766W        W28300   2.684  16.654  16.662 -0.0082  0.0954  0.1043
 8767W        W28301   3.036  14.925  15.763 -0.2579 -0.1414 -0.0742
 8768W        W28302   8.086   4.505   0.915  0.5603  0.1062  0.2047
 8769W        W28303  12.027   6.400  14.696 -0.0314  0.0378  0.1616
 8770W        W28304  10.274  12.623   0.479 -0.0381 -0.0995  0.1308
 8771W        W28305  12.135   7.012   4.280  0.1268  0.1709 -0.0877
 8772W        W28306  15.034   1.319  16.093 -0.0090  0.1030  0.1908
 8773W        W28307   0.866   5.763   0.206  0.0086  0.1257  0.1264
 8774W        W28308   4.306   3.944  14.751  0.0540 -0.0121  0.0902
 8775W        W28309   8.523   6.667  15.866 -0.1209 -0.0905  0.3541
 8776W        W28310   4.494   5.195  12.822 -0.0765 -0.0487 -0.1824
 8777W        W28311  12.602  14.759   0.282 -0.0202 -0.2913  0.2247
 8778W        W28312  16.250  15.141   0.774 -0.3134  0.1384 -0.2535
 8779W        W28313   7.481  12.130   3.305 -0.0771  0.0719 -0.0036
 8780W        W28314   9.818  15.757   0.284 -0.3373  0.1358  0.3311
 8781W        W28315   9.353  12.219  14.087  0.0029 -0.0380  0.2692
 8782W        W28316   3.687   1.746   0.440 -0.1579  0.2770 -0.1693
 8783W        W28317   8.138  16.954  14.858 -0.0096  0.2938  0.0575
 8784W        W28318   6.057   1.824  15.426 -0.2405 -0.5223 -0.2360
 8785W        W28319  12.818  11.705   2.106 -0.0923  0.1162 -0.1230
 8786W        W28320   5.037   7.110   0.330  0.0151 -0.0959 -0.0733
 8787W        W28321   4.646  12.535   4.188 -0.0956 -0.1854  0.4501
 8788W        W28322   8.199  12.268   5.055 -0.2135 -0.1413  0.1657
 8789W        W28323  15.285  10.865  14.017 -0.0967  0.3173 -0.0998
 8790W        W28324  10.528   9.843   4.986  0.1265  0.0569  0.1828
 8791W        W28325  12.220   9.144  15.234  0.3001  0.0193 -0.0538
 8792W        W28326  16.532  13.685   1.164 -0.3375 -0.2350  0.2809
 8793W        W28327   2.307   1.062  13.143 -0.1797  0.0639  0.1167
 8794W        W28328  15.158   3.865   3.843 -0.0049  0.0627  0.2617
 8795W        W28329   7.227   1.180  14.143  0.3985  0.1203 -0.1797
 8796W        W28330  16.358  16.930   3.280  0.1540  0.0584 -0.0012
 8797W        W28331  13.657  15.630   5.113  0.3401 -0.0828  0.3014
 8798W        W28332  16.819   7.734  16.859  0.0440  0.0998  0.1724
 8799W        W28333  14.542   0.516  13.273 -0.0409  0.2912 -0.0539
 8800W        W28334  14.281  10.816   4.329  0.0441 -0.0128  0.0550
 8801W        W28335   5.351   8.893   0.169 -0.0542  0.0853  0.1736
 8802W        W28336   6.426  13.570  13.620  0.2033 -0.1431  0.1070
 8803W        W28337   9.280  10.670  14.008 -0.1177  0.0514 -0.1543
 8804W        W28338  16.746   9.290   4.045 -0.0650 -0.0880  0.1106
 8805W        W28339   6.177   7.285  14.147  0.0851  0.1280  0.0630
 8806W        W28340  12.159   0.226  16.676  0.0378 -0.2384  0.1835
 8807W        W28341   6.164   9.707   3.712  0.1245 -0.0175  0.0373
 8808W        W28342  14.820  17.467  15.811 -0.2631  0.1791  0.0197
 8809W        W28343  11.907   9.717   2.316  0.2100  0.0528  0.2957
 8810W        W28344   9.599   8.262   2.150 -0.1122  0.0624  0.1278
 8811W        W28345  14.091   9.928   0.110 -0.0411 -0.0704 -0.1771
 8812W        W28346  11.045   8.801   1.757 -0.1818  0.3251  0.0745
 8813W        W28347   6.897  14.431   0.336 -0.1181 -0.2503  0.1606
 8814W        W28348  12.367  14.311   1.328  0.0690  0.1345 -0.1517
 8815W        W28349  16.128  17.036   4.603 -0.2526  0.0384  0.1693
 8816W        W28350  16.409  13.904  14.324 -0.0171 -0.1047  0.1434
 8817W        W28351  15.455   3.542   3.965  0.2223  0.5172 -0.0180
 8818W        W28352   3.531  14.786   2.762  0.2624 -0.1212  0.4131
 8819W        W28353   9.553  15.624  11.988  0.0952 -0.0236 -0.0641
 8820W        W28354   9.681  14.209  16.335  0.2140  0.0020 -0.3216
 8821W        W28355   7.643   9.879   4.989  0.1219  0.1202 -0.1514
 8822W        W28356  11.689  15.644   0.005  0.1143  0.0522 -0.0560
 8823W        W28357  16.435  10.949   4.142 -0.1179  0.3615  0.2028
 8824W        W28358  10.151   7.743   5.360 -0.0302  0.1291  0.0655
 8825W        W28359  12.594   5.251   4.651  0.3310  0.1359  0.2458
 8826W        W28360  10.911  14.454   1.837  0.2518  0.1006  0.1450
 8827W        W28361  16.516  11.664   4.543  0.1012 -0.1629  0.1887
 8828W        W28362   2.945  15.352  13.104 -0.2026 -0.3584 -0.2952
 8829W        W28363   9.450   7.045  15.811 -0.1331 -0.1387 -0.0761
 8830W        W28364  13.218   9.173  16.593  0.0097  0.1053 -0.0042
 8831W        W28365   6.987   4.622  14.525  0.3807 -0.0879 -0.0089
 8832W        W28366  16.725   5.761  14.957 -0.2047 -0.0042 -0.2359
 8833W        W28367   7.520   8.335   2.408 -0.2182  0.0008  0.1499
 8834W        W28368  12.097  15.057  12.204  0.1361  0.1515  0.0753
 8835W        W28369  14.172   4.514   1.932 -0.0225 -0.2441 -0.1234
 8836W        W28370   5.040  11.479   1.295  0.0211 -0.0331  0.0632
 8837W        W28371  11.810   5.526  15.080  0.0447 -0.0848  0.2715
 8838W        W28372   0.019   2.955  16.184  0.0159 -0.3514  0.0534
 8839W        W28373   0.057   5.846  14.235  0.3357  0.0118  0.2314
 8840W        W28374   7.139   0.418  12.247  0.1002 -0.0143 -0.1092
 8841W        W28375   7.123   7.239  14.466  0.3300  0.4807 -0.2282
 8842W        W28376   1.081  12.693  12.679  0.0476 -0.0705 -0.0610
 8843W        W28377  14.278   6.380  16.107 -0.2306 -0.2212 -0.0824
 8844W        W28378   5.202  15.458  15.456  0.2100  0.0353 -0.0388
 8845W        W28379   0.286  13.288   2.299  0.2336  0.3081  0.2233
 8846W        W28380  10.257   3.551  16.798  0.2856  0.0574  0.0611
 8847W        W28381   8.030   3.603  17.137  0.0656  0.1529 -0.0335
 8848W        W28382   4.714  12.614  13.117  0.0524 -0.0146  0.0727
 8849W        W28383  14.281   6.677   2.122 -0.1130 -0.0045  0.2628
 8850W        W28384   4.397  13.352   3.931 -0.2574 -0.1887 -0.1163
 8851W        W28385   7.290  11.767  14.602  0.2958  0.1841 -0.3019
 8852W        W28386   9.103  10.670  12.143  0.2464  0.2089  0.0748
 8853W        W28387  11.225  16.236  13.413  0.5935  0.2656 -0.1203
 8854W        W28388  14.972   9.767  13.813 -0.1799  0.1569  0.0145
 8855W        W28389  10.499  16.138   1.919 -0.2212 -0.1999  0.2702
 8856W        W28390   7.973   9.456  15.683 -0.0529 -0.1373  0.3049
 8857W        W28391   7.732   4.372  14.924  0.1044 -0.1706  0.0017
 8858W        W28392   2.956   7.851   0.060  0.2546  0.0621 -0.0611
 8859W        W28393   5.376  11.052   4.915 -0.1301  0.1114  0.3087
 8860W        W28394   1.145   9.933   3.952 -0.0609  0.1896  0.1701
 8861W        W28395   7.466   4.121   4.159  0.3173  0.0385  0.2740
 8862W        W28396   3.365   3.778   0.185  0.0077  0.4905 -0.1103
 8863W        W28397  12.291   5.389   3.680  0.2820  0.1015 -0.0610
 8864W        W28398  10.531   6.486  12.346  0.0147  0.0140 -0.3541
 8865W        W28399   8.378  17.297  14.621 -0.1275  0.1388  0.3150
 8866W        W28400  12.674   1.502   1.677  0.0565  0.1111  0.1319
 8867W        W28401   4.206  11.956  16.365  0.1227  0.2604 -0.1837
 8868W        W28402  11.521  16.008  12.359 -0.0426 -0.0845 -0.2306
 8869W        W28403   2.312   5.688  16.173 -0.2316  0.1733 -0.0352
 8870W        W28404  14.956   2.943  15.115  0.0254 -0.1807  0.1463
 8871W        W28405  14.445  14.091   4.431 -0.0104  0.1201 -0.1383
 8872W        W28406   3.392   0.406   0.524  0.1601 -0.2056  0.1767
 8873W        W28407  11.213   9.913  12.976 -0.0960 -0.2379  0.0892
 8874W        W28408   2.250   0.954   3.224 -0.0321  0.4327  0.1742
 8875W        W28409   2.027   2.916  13.682  0.0128  0.0439  0.0922
 8876W        W28410  16.016   5.829   4.662  0.1921  0.1071 -0.3916
 8877W        W28411  15.952   2.284  14.331  0.2461  0.3605 -0.0113
 8878W        W28412  16.985  14.988   5.110 -0.0370  0.1651 -0.0184
 8879W        W28413  13.579   0.815  13.858 -0.0741  0.1946  0.0596
 8880W        W28414   8.759   4.631   1.478  0.3180 -0.1191  0.0060
 8881W        W28415  11.835   3.057  13.352 -0.3783 -0.0696 -0.0467
 8882W        W28416  11.495   6.846  13.970 -0.2011  0.4138 -0.1168
 8883W        W28417  11.958   2.870  16.091  0.0367 -0.1104 -0.0548
 8884W        W28418  12.899   3.310   2.736 -0.0582  0.2708  0.1672
 8885W        W28419  15.537  14.481   2.222  0.0602 -0.1065  0.1180
 8886W        W28420   3.690   9.552   0.105 -0.1040 -0.0326  0.1436
 8887W        W28421  15.718  13.433  15.499  0.0384 -0.4852  0.1434
 8888W        W28422   7.879   3.709   1.403 -0.0498  0.0893  0.0235
 8889W        W28423  14.538  10.053   0.222 -0.0837 -0.2613  0.2063
 8890W        W28424   5.319   1.319  16.122 -0.0172  0.0074  0.0701
 8891W        W28425  16.681   6.413   0.162 -0.0945 -0.1813 -0.0834
 8892W        W28426   0.548   2.010  12.689  0.0837  0.2398 -0.0671
 8893W        W28427   8.019  10.042   5.345  0.0016  0.1184 -0.0619
 8894W        W28428   6.173  13.563  13.186  0.0941 -0.2297 -0.2674
 8895W        W28429   7.949   9.417  16.724 -0.0866 -0.0130  0.1153
 8896W        W28430   2.527  16.751  15.105  0.2556  0.1420 -0.0791
 8897W        W28431   8.677  13.088  14.670  0.4026  0.2401  0.1493
 8898W        W28432  15.774  13.903  13.569  0.2838 -0.0391  0.1853
 8899W        W28433   8.985   4.161   1.444  0.4575 -0.0207  0.0542
 8900W        W28434   5.291   6.360  14.457  0.0098  0.3360 -0.1345
 8901W        W28435   8.575   1.838   4.216  0.0998  0.0094  0.1904
 8902W        W28436   7.005   8.093  13.894  0.2879 -0.2568 -0.1979
 8903W        W28437  11.680  16.120  14.869  0.0525  0.2341 -0.2391
 8904W        W28438   0.415  12.789  15.335  0.5836  0.0348  0.0358
 8905W        W28439  10.575   4.896   1.160  0.2593 -0.2099  0.1904
 8906W        W28440  15.565   4.029   0.590 -0.0594  0.0263 -0.0311
 8907W        W28441   4.615   1.523  17.300 -0.0303 -0.1016 -0.0441
 8908W        W28442  12.615  10.832  15.388 -0.1044  0.0064  0.0279
 8909W        W28443  14.780   3.983   4.155  0.2672  0.1002  0.0692
 8910W        W28444   6.883   0.279   0.758 -0.1501  0.0342  0.0084
 8911W        W28445   7.518   3.739  13.717  0.0415 -0.1857  0.2936
 8912W        W28446   8.865  10.183   0.933  0.1412 -0.0674 -0.2299
 8913W        W28447   8.702  15.203   3.661  0.0331  0.2084 -0.0902
 8914W        W28448  14.538  16.129  14.160  0.0705 -0.3531  0.1647
 8915W        W28449   4.749   0.585  12.070  0.0673 -0.0390  0.2182
 8916W        W28450   2.807   6.890  15.177  0.0761 -0.0645  0.0075
 8917W        W28451  11.958   6.989   4.804 -0.0498  0.1557 -0.1308
 8918W        W28452  15.961   4.300   3.372 -0.1625  0.1730  0.2365
 8919W        W28453   6.913  15.287  12.995  0.2842 -0.2009  0.0459
 8920W        W28454  14.091   0.346  14.699  0.1300 -0.3228  0.0575
 8921W        W28455  16.059  13.699   1.766  0.0768  0.1751 -0.0468
 8922W        W28456   0.558   1.603  15.037  0.0050  0.0849 -0.2367
 8923W        W28457  10.608   4.229   5.337  0.1593 -0.0025  0.2508
 8924W        W28458  17.369  14.622  13.792 -0.0894 -0.2912  0.0383
 8925W        W28459  11.814   8.782   2.271 -0.2135  0.0474  0.0283
 8926W        W28460  11.817  13.685  16.463 -0.1987 -0.3076  0.0559
 8927W        W28461   9.786   3.112   5.148 -0.0051  0.3627 -0.2221
 8928W        W28462   0.259   7.874   1.446  0.0643  0.1597 -0.0962
 8929W        W28463   7.208  15.268   1.626  0.3482 -0.3445 -0.0289
 8930W        W28464  17.454   4.195  15.660 -0.1337  0.3138 -0.2166
 8931W        W28465  14.111   1.651  12.391  0.0319  0.1443  0.1206
 8932W        W28466   8.563  13.001  15.685 -0.3515 -0.1706 -0.1518
 8933W        W28467  14.194   4.762   4.541 -0.0766 -0.2070 -0.0842
 8934W        W28468  15.957   1.609  16.829 -0.1766  0.1087  0.0767
 8935W        W28469   6.286   6.702   3.346  0.0128 -0.1770  0.0691
 8936W        W28470  10.034  16.890  13.652 -0.1224 -0.0252  0.3889
 8937W        W28471  14.986  14.265   2.716  0.2016  0.1633 -0.0953
 8938W        W28472   0.139  10.612   5.290 -0.3532 -0.0203 -0.2073
 8939W        W28473   6.584   5.440  16.333  0.1375  0.0545  0.1977
 8940W        W28474   5.977   1.928   5.316  0.0184  0.0071 -0.3683
 8941W        W28475   2.042   6.286   3.841  0.1294 -0.0361  0.0816
 8942W        W28476  15.844  12.618  16.139  0.2366 -0.0713 -0.0084
 8943W        W28477   5.319   5.512  15.991  0.1800 -0.2014 -0.3078
 8944W        W28478   8.491  16.856  12.557  0.3284  0.1337  0.3270
 8945W        W28479  13.378   3.333   5.350 -0.1523 -0.1982 -0.0288
 8946W        W28480  15.048   0.781  12.417  0.1022  0.5314 -0.1205
 8947W        W28481   6.883   0.930   0.674  0.1974  0.0471 -0.3019
 8948W        W28482   9.311   2.887   0.100  0.0484 -0.0158  0.1236
 8949W        W28483  15.236   6.260  15.611  0.1665  0.2167  0.0379
 8950W        W28484   3.417   6.915  16.509 -0.2823 -0.1237  0.3664
 8951W        W28485   4.905   3.497   0.442 -0.1283 -0.1171 -0.0863
 8952W        W28486  17.336  11.470  13.025 -0.2491 -0.1458  0.1887
 8953W        W28487   5.894  11.752  12.485  0.0468  0.0942 -0.0418
 8954W        W28488   9.937  17.207  14.759  0.2567  0.0040  0.0160
 8955W        W28489   3.329  10.735  16.921 -0.2289  0.2189 -0.0803
 8956W        W28490   6.272   2.724   1.257  0.0212  0.2104 -0.3265
 8957W        W28491  10.478  12.657   3.627 -0.0013 -0.0798  0.2563
 8958W        W28492   6.410  10.454   1.442  0.1240  0.2163 -0.1648
 8959W        W28493   7.412   6.026  14.139 -0.1076 -0.2983  0.1758
 8960W        W28494   8.552   2.951  12.847 -0.0467  0.0806 -0.0587
 8961W        W28495  15.284   0.594   1.648 -0.2078 -0.0102  0.2103
 8962W        W28496   6.706  13.111  17.044 -0.0379  0.1735 -0.2099
 8963W        W28497  11.998   4.624   4.374 -0.0388  0.3784 -0.2204
 8964W        W28498   5.177  11.890  16.507  0.0184  0.1505  0.2149
 8965W        W28499  17.064  14.477   5.142  0.1015  0.1002  0.2286
 8966W        W28500   1.355  12.934   2.458 -0.1160  0.1800 -0.0074
 8967W        W28501   3.518   7.244  14.465 -0.0185 -0.1829  0.0979
 8968W        W28502   4.605  12.164   0.243  0.2480 -0.2077  0.0599
 8969W        W28503   9.033   8.577   2.002  0.0883  0.0306  0.1587
 8970W        W28504  10.376   8.943   0.473  0.0228  0.1832  0.1032
 8971W        W28505  13.459  14.457  13.355  0.0064 -0.1225  0.1710
 8972W        W28506   9.448  12.834   0.543 -0.0404 -0.1578 -0.2404
 8973W        W28507  10.317  16.788   2.610  0.0622  0.2228  0.1426
 8974W        W28508   1.536  15.824   2.063  0.1441  0.4224 -0.3884
 8975W        W28509   1.068  10.367   1.981  0.1710  0.0559 -0.0040
 8976W        W28510  10.480   9.764  16.111  0.0461 -0.1808 -0.1532
 8977W        W28511   6.357   7.936   2.752  0.3113  0.2229  0.0885
 8978W        W28512  10.637   2.120  13.165  0.2224 -0.0147 -0.1508
 8979W        W28513  10.221  14.354   0.715 -0.0960 -0.1864 -0.0873
 8980W        W28514  15.517  17.347   0.427  0.0767 -0.2248 -0.0505
 8981W        W28515  15.048  16.153   1.490  0.0988  0.1289  0.3859
 8982W        W28516   5.497   2.044  17.151 -0.2080  0.0250  0.1781
 8983W        W28517  10.740  13.748   4.988 -0.0685 -0.0892  0.1136
 8984W        W28518   9.580   3.931  13.733 -0.0270  0.4014 -0.0162
 8985W        W28519  11.202  14.975  15.809  0.3188  0.0203  0.2934
 8986W        W28520  11.973   8.787  14.945  0.2335  0.2413 -0.3258
 8987W        W28521   4.215  11.405  15.465 -0.1766  0.0999 -0.1508
 8988W        W28522  14.011   8.512  16.826 -0.4087  0.1240 -0.0852
 8989W        W28523  17.173   2.409  14.001  0.1590 -0.4571 -0.1056
 8990W        W28524   2.286   8.030   4.051  0.4356 -0.2431  0.0253
 8991W        W28525   7.689   7.321   3.220 -0.2269  0.2077  0.0796
 8992W        W28526   8.047  13.611  14.397 -0.1955  0.0089 -0.0324
 8993W        W28527  16.121  12.544   1.809  0.2146  0.3529  0.1185
 8994W        W28528  11.989   7.156   5.346  0.0581  0.0938  0.1263
 8995W        W28529   4.282   6.211  12.920 -0.3434 -0.0199 -0.1404
 8996W        W28530  10.520  15.845   2.643  0.1502 -0.1272 -0.0087
 8997W        W28531   6.067  10.166   4.158  0.0121 -0.0160 -0.0909
 8998W        W28532   4.585  15.688  16.378  0.1680  0.0004 -0.0964
 8999W        W28533   7.171  15.780  13.218  0.0653  0.3139  0.0663
 9000W        W28534  11.353  11.998  15.052 -0.0763 -0.1070  0.2873
 9001W        W28535   1.756   0.046  15.311  0.0098 -0.1830 -0.0164
 9002W        W28536  16.657  16.306   1.101  0.1778  0.2326 -0.1227
 9003W        W28537  13.649  10.903   0.047 -0.0396 -0.2634 -0.1916
 9004W        W28538   5.634  16.818  13.888  0.1950 -0.2550  0.0373
 9005W        W28539   7.750   1.779   4.222 -0.2604  0.3715  0.1458
 9006W        W28540   8.979  13.972   0.126 -0.0052 -0.1039 -0.1837
 9007W        W28541  14.529   0.643  12.483  0.0299  0.3487  0.0352
 9008W        W28542  12.779  16.017   2.099  0.1531  0.2823  0.0787
 9009W        W28543   7.863  10.233  17.083  0.0334  0.0768 -0.1488
 9010W        W28544  15.978  14.790  13.642 -0.1946  0.0573  0.0117
 9011W        W28545   0.981   6.286  12.755 -0.0425  0.0787 -0.0988
 9012W        W28546  14.584   1.964   4.727  0.0117 -0.0508 -0.0970
 9013W        W28547   1.877   1.351   4.916  0.0883 -0.1260 -0.2485
 9014W        W28548  16.288  13.514  12.806 -0.2134  0.0712  0.1083
 9015W        W28549  16.316   3.042   1.631  0.1800  0.2067 -0.0761
 9016W        W28550   5.197   8.452  17.271 -0.1108  0.1915  0.0495
 9017W        W28551   7.700   7.270   4.535 -0.1512 -0.1245 -0.1755
 9018W        W28552  13.333  10.465   3.840  0.2344 -0.1883  0.0212
 9019W        W28553   0.900  12.834  15.118  0.1778  0.0158 -0.1384
 9020W        W28554   2.685   0.744  14.400 -0.0243  0.0624 -0.0055
 9021W        W28555  13.361   8.055   0.390 -0.1652 -0.0477 -0.2344
 9022W        W28556  10.366  16.480   0.650 -0.1272 -0.0659  0.2989
 9023W        W28557  12.880  11.142  13.550  0.1410 -0.2894  0.2104
 9024W        W28558   8.648   6.088  13.488  0.4461 -0.2960 -0.1996
 9025W        W28559   6.017   2.799   0.821  0.0291  0.3013  0.0548
 9026W        W28560   9.806   8.036   3.075  0.2078  0.0831 -0.0725
 9027W        W28561  10.624   2.100   3.480 -0.1583  0.0366  0.2791
 9028W        W28562   5.947   7.913  12.937 -0.0432  0.1878 -0.0392
 9029W        W28563  10.586  15.613  15.269  0.1293 -0.1280  0.0085
 9030W        W28564  13.884  17.375  13.876 -0.0445 -0.0828  0.1041
 9031W        W28565   3.630  15.290  16.886  0.0485  0.0671  0.3286
 9032W        W28566  16.849  11.860   2.193 -0.1694 -0.2977 -0.0539
 9033W        W28567   2.362   5.594  14.940 -0.3396 -0.0556  0.0362
 9034W        W28568   9.857   4.470  15.141  0.1584 -0.0948 -0.1159
 9035W        W28569   0.552   8.473  13.140  0.0809 -0.0176  0.0282
 9036W        W28570   7.498  16.872  13.947  0.1654  0.0142  0.0182
 9037W        W28571   6.972  14.093  15.642  0.1203 -0.0219  0.1952
 9038W        W28572  13.241   4.182  14.682 -0.4853  0.2471 -0.1033
 9039W        W28573   5.901   8.252  16.762 -0.0910 -0.0203  0.0645
 9040W        W28574   4.494  16.302  14.915 -0.0752 -0.1209  0.1699
 9041W        W28575   8.899  12.328  15.303  0.1507 -0.2084 -0.1466
 9042W        W28576   5.465  10.805  17.289 -0.2052 -0.0348  0.3115
 9043W        W28577  11.516  12.362   4.124  0.1409  0.0268  0.0436
 9044W        W28578   8.505   3.330  17.149  0.0657 -0.0999  0.1043
 9045W        W28579   3.918   4.203  13.344  0.0392 -0.3153  0.2306
 9046W        W28580  13.743  14.100  16.233  0.0347  0.3518 -0.0898
 9047W        W28581   0.376   6.359  17.314  0.1861  0.3464  0.0493
 9048W        W28582   0.239  11.667   3.437  0.0871 -0.1023  0.1682
 9049W        W28583   5.047   9.326   3.657  0.1414 -0.4403 -0.0057
 9050W        W28584   4.418   9.835  13.104  0.0066  0.2963 -0.1728
 9051W        W28585   0.111   6.198  16.512 -0.1120  0.2194 -0.0702
 9052W        W28586   3.037  11.148  14.455  0.1685  0.1676  0.2826
 9053W        W28587   0.227   1.048   5.363 -0.1200 -0.0181 -0.0149
 9054W        W28588   5.323   4.229  14.854 -0.1118 -0.0227  0.0864
 9055W        W28589  11.471   7.417  14.072 -0.1921  0.1899 -0.3036
 9056W        W28590   7.283  15.070  12.226 -0.0615  0.2762 -0.1848
 9057W        W28591  13.118  14.729   4.951  0.1210 -0.2719 -0.2984
 9058W        W28592  16.255  11.167  14.355  0.0067 -0.0121  0.0842
 9059W        W28593  12.834  15.096   3.430  0.1188 -0.2001  0.1128
 9060W        W28594   7.387  11.018  13.061  0.1931 -0.0794  0.1064
 9061W        W28595   0.826   5.109   0.289  0.0149  0.2217 -0.1446
 9062W        W28596   4.387  13.872  12.973 -0.0410 -0.0024  0.0103
 9063W        W28597  11.558  16.657   0.353  0.1847  0.0795  0.3361
 9064W        W28598  17.168   6.913  15.008 -0.4715  0.1254 -0.3840
 9065W        W28599   7.629  16.704   2.932  0.0396 -0.2473  0.0209
 9066W        W28600  12.489   2.931   2.361  0.0503 -0.0448  0.2520
 9067W        W28601  17.424   1.687   1.696 -0.1151 -0.0522  0.0708
 9068W        W28602  16.876  14.869   2.502  0.1669  0.0204 -0.0625
 9069W        W28603  10.852  12.651  13.553  0.2214  0.2600  0.1892
 9070W        W28604  11.162  14.409   4.381 -0.0393  0.0130 -0.3551
 9071W        W28605  11.888   2.665  13.817 -0.2925  0.2929  0.1331
 9072W        W28606   1.143  11.826   2.475 -0.0016 -0.0536 -0.1079
 9073W        W28607   8.264   0.801   3.592  0.0094  0.1473 -0.2604
 9074W        W28608   1.469   0.461   1.782  0.2354 -0.2580  0.0701
 9075W        W28609   4.435  10.659  13.990 -0.1614 -0.2475 -0.0084
 9076W        W28610   2.197   1.428  15.631  0.1351 -0.1330  0.1484
 9077W        W28611   2.277   0.304   2.333  0.1918  0.1478  0.2505
 9078W        W28612  15.609   3.965  14.492  0.3302  0.0745 -0.0313
 9079W        W28613  13.770   6.007  12.104  0.2823  0.1601  0.2365
 9080W        W28614  16.982   0.439  13.145 -0.2716 -0.2052 -0.0123
 9081W        W28615   4.963  16.062  12.598 -0.0111 -0.0163  0.2634
 9082W        W28616  10.841   6.698   2.275 -0.1603 -0.0593 -0.2017
 9083W        W28617   2.681  16.827   0.058  0.0510 -0.3113  0.0851
 9084W        W28618   6.781   0.751  12.312  0.1763  0.3849  0.0281
 9085W        W28619  13.529  12.847  17.095  0.2031  0.1363 -0.0118
 9086W        W28620   0.496   7.609   3.993  0.2560  0.0822 -0.0812
 9087W        W28621   1.034   5.256  15.857  0.1779 -0.0335 -0.1669
 9088W        W28622  11.840  10.243   1.090 -0.1441  0.0067 -0.0662
 9089W        W28623   3.397  13.213  15.390  0.0634  0.0808  0.0133
 9090W        W28624  16.748  11.609  14.601 -0.1956 -0.3396 -0.2051
 9091W        W28625  13.008   2.489  13.431  0.1430 -0.0076  0.0515
 9092W        W28626   9.093  11.637   0.761  0.0049 -0.2198 -0.0627
 9093W        W28627  14.139  13.858  14.570 -0.3227  0.1820 -0.2598
 9094W        W28628   1.474   1.405  14.994  0.1201 -0.1758 -0.0262
 9095W        W28629   4.283  14.147   2.631  0.1971  0.3525 -0.0451
 9096W        W28630  11.745  14.331   1.908 -0.0230 -0.4639  0.2302
 9097W        W28631   3.428   9.694   1.619 -0.0250  0.2723 -0.0409
 9098W        W28632   1.096   2.747  14.306  0.1473  0.0626  0.2745
 9099W        W28633   5.098  15.052   2.765 -0.2090 -0.0462 -0.0457
 9100W        W28634  11.229   0.179  14.795  0.0472 -0.3791  0.2389
 9101W        W28635   0.665   6.665  12.851 -0.1235  0.0070  0.1270
 9102W        W28636   3.862  15.359   4.020  0.0040 -0.2979 -0.0063
 9103W        W28637  16.253   0.640   4.942 -0.1871 -0.1571  0.1587
 9104W        W28638   7.067   5.612  16.209 -0.0167  0.1660 -0.0183
 9105W        W28639   9.014  14.422   1.246  0.0379 -0.2356  0.2350
 9106W        W28640   1.274   4.891   0.236  0.1942  0.1625 -0.1760
 9107W        W28641  16.829  11.436   1.900 -0.0552 -0.0780  0.0505
 9108W        W28642  13.485   1.810   0.052 -0.1724 -0.0797 -0.1442
 9109W        W28643  12.922   7.948   0.633  0.1779  0.0622 -0.1947
 9110W        W28644   9.953  14.311  14.851  0.0606 -0.0956 -0.0929
 9111W        W28645   9.927   3.272   2.149 -0.0530  0.2620  0.0640
 9112W        W28646  13.366   2.205   1.905 -0.2030 -0.0658  0.0421
 9113W        W28647  13.455  14.798  12.304 -0.1207 -0.1331 -0.1780
 9114W        W28648  16.335   6.699  14.986  0.0035  0.0761 -0.1439
 9115W        W28649   5.198   4.196  16.640  0.0290 -0.0950  0.0407
 9116W        W28650   6.268  12.223   1.436 -0.0094 -0.3481  0.2143
 9117W        W28651  16.282   1.251  16.237 -0.2268  0.1609 -0.1454
 9118W        W28652  11.769  11.386  13.915 -0.1014  0.0942  0.0150
 9119W        W28653   2.348  13.030  14.750  0.1619 -0.0147  0.0359
 9120W        W28654   2.996  10.517   3.909  0.1027 -0.0596  0.0166
 9121W        W28655   6.142  15.261  14.137  0.0420 -0.1472 -0.1742
 9122W        W28656   8.691   1.081   3.429  0.0061  0.1938 -0.0877
 9123W        W28657   8.380   1.776   0.403 -0.0871 -0.1854  0.3001
 9124W        W28658   3.619   8.181   1.926  0.1029  0.1293  0.0204
 9125W        W28659   2.120  16.746  15.427 -0.0941  0.0742 -0.3581
 9126W        W28660   4.340  15.811   1.279  0.1236 -0.0353  0.0131
 9127W        W28661   9.773   6.158   4.569 -0.0068  0.1701 -0.0284
 9128W        W28662   1.984   2.792   0.588 -0.1130 -0.1759  0.1690
 9129W        W28663   8.050  14.842   1.350  0.1956  0.1931  0.0234
 9130W        W28664   1.043  15.549   2.727  0.2332  0.0376  0.1913
 9131W        W28665   3.705   8.597   0.262  0.1481  0.0321 -0.0201
 9132W        W28666  10.884   8.407   2.181 -0.2276  0.3001  0.4748
 9133W        W28667  16.740  12.101  15.746  0.0578 -0.2003 -0.2052
 9134W        W28668   9.555   7.049  12.963  0.0407  0.1871  0.0870
 9135W        W28669   1.684  17.142   1.351 -0.2480  0.1373 -0.0379
 9136W        W28670  12.407  10.717  13.894 -0.0804 -0.1187  0.1199
 9137W        W28671   9.147   2.720  16.697  0.0961 -0.0749  0.0828
 9138W        W28672   4.274  13.878  15.749 -0.1074 -0.0493 -0.3227
 9139W        W28673  10.952  16.024  16.218  0.2410  0.1276 -0.1688
 9140W        W28674   0.086  16.902  13.795 -0.2939  0.0123 -0.3505
 9141W        W28675  10.138  14.773  14.719 -0.2155  0.1258 -0.0230
 9142W        W28676  11.982  10.539  17.024  0.6663 -0.0694 -0.2127
 9143W        W28677   3.989  13.557  13.265 -0.1712 -0.0207 -0.2506
 9144W        W28678   8.806  17.366   1.638  0.1855 -0.2080  0.2064
 9145W        W28679   9.140   9.419  14.094  0.0655  0.0789 -0.0392
 9146W        W28680   8.744   9.596  16.273 -0.1904 -0.0312  0.0447
 9147W        W28681  16.875   2.275  12.341  0.1831  0.0462  0.1384
 9148W        W28682  14.769   5.032   4.563 -0.0272  0.1451  0.2109
 9149W        W28683   8.104   8.175  14.642  0.2066  0.0772 -0.3539
 9150W        W28684   1.529   0.317  12.796  0.0563 -0.2762  0.0558
 9151W        W28685  12.598   0.894  13.062 -0.3037 -0.0852  0.0285
 9152W        W28686  10.278  14.365   5.187 -0.1885  0.0543  0.2722
 9153W        W28687   0.927   4.472  14.288 -0.1536 -0.0074  0.3149
 9154W        W28688   4.053  13.702   1.928  0.4231 -0.3961  0.0526
 9155W        W28689   1.810  13.563  14.115 -0.0584 -0.3782 -0.0315
 9156W        W28690   7.420   8.774  13.901  0.3072  0.0062 -0.0697
 9157W        W28691   8.205  17.253   0.951 -0.0897  0.0499  0.0679
 9158W        W28692   3.152   5.929  15.545 -0.0945 -0.1064 -0.0588
 9159W        W28693   8.651   3.514  14.676 -0.0375  0.1744  0.1154
 9160W        W28694  11.500   1.383   4.875 -0.0105  0.0690  0.0736
 9161W        W28695  14.771  12.864   2.195 -0.2261 -0.1731 -0.0272
 9162W        W28696  10.555   2.977   3.938  0.0886 -0.0063 -0.0277
 9163W        W28697   7.025   3.249   4.117  0.0611  0.0929  0.1727
 9164W        W28698   0.397   6.048   1.633  0.2095 -0.1530  0.0963
 9165W        W28699   8.470  14.911  16.005 -0.2569  0.0703 -0.1524
 9166W        W28700  16.572   5.783  17.068 -0.1745  0.1572  0.0289
 9167W        W28701   2.127  12.625  14.423  0.0671 -0.1499  0.3239
 9168W        W28702   3.585  15.205   3.584 -0.1881 -0.0198  0.0054
 9169W        W28703  10.110   9.002   0.918 -0.1276  0.1883  0.0832
 9170W        W28704   4.815   4.275   3.848 -0.2995 -0.2034 -0.2765
 9171W        W28705  13.008  13.759  15.733  0.1093 -0.0033  0.1448
 9172W        W28706  14.242  14.972   2.676  0.2311  0.2237  0.2491
 9173W        W28707  10.964   8.674   0.921 -0.0049 -0.2286 -0.1219
 9174W        W28708   7.796  17.428  16.971 -0.2382  0.0468 -0.1355
 9175W        W28709   2.426  16.798   0.536  0.2015 -0.0364  0.1178
 9176W        W28710  16.951   3.398  12.164 -0.1640 -0.1153 -0.2045
 9177W        W28711   3.251  11.347  13.506  0.4280 -0.1152 -0.1058
 9178W        W28712   1.775   2.411  11.908  0.1148  0.0879  0.1584
 9179W        W28713   8.250   6.768   0.513  0.3570  0.1416 -0.1617
 9180W        W28714   1.272   4.330   3.657 -0.0680  0.0797  0.1363
 9181W        W28715  14.138   7.351  14.747  0.0417  0.2094  0.1945
 9182W        W28716   6.159   3.698  16.182 -0.1405 -0.0440 -0.1774
 9183W        W28717   4.944   8.072   2.853  0.1025  0.2470 -0.2731
 9184W        W28718   4.053  11.929   1.709  0.2132  0.0154 -0.1847
 9185W        W28719   4.381  10.146   1.565  0.2776  0.0534 -0.1470
 9186W        W28720   8.997   6.396  12.174 -0.0870  0.1642 -0.0017
 9187W        W28721  12.478  13.901   1.537  0.0692  0.1430 -0.0902
 9188W        W28722   8.442   7.948  17.178  0.3662  0.1022 -0.1058
 9189W        W28723   4.017  16.596   1.996 -0.1622 -0.0569 -0.0247
 9190W        W28724  16.572   7.542  14.424  0.0323 -0.2064  0.1718
 9191W        W28725  11.093  10.133   3.886  0.3124  0.1587 -0.1610
 9192W        W28726   1.918   5.844   2.846  0.0773 -0.3400 -0.0591
 9193W        W28727  13.507   0.186  15.147  0.5187  0.1292 -0.0960
 9194W        W28728  10.984  16.841   3.188  0.1785  0.2788 -0.0648
 9195W        W28729   4.468  10.161  13.961 -0.1349 -0.1826  0.0827
 9196W        W28730   8.468   7.197   0.698 -0.6014 -0.1666 -0.3466
 9197W        W28731   1.265   3.991   1.094  0.1890  0.2429  0.1820
 9198W        W28732  13.455  15.403   1.616 -0.1124  0.0167  0.0037
 9199W        W28733   7.354   7.789   3.356 -0.3943 -0.0638 -0.0016
 9200W        W28734  16.477  16.848  12.853 -0.2258  0.3040 -0.1951
 9201W        W28735   0.479  10.025  17.098  0.2590  0.0304 -0.3003
 9202W        W28736   8.981   9.178  16.522  0.2594  0.0334  0.1990
 9203W        W28737  10.213  16.354  13.799  0.2449 -0.0320  0.1145
 9204W        W28738   2.716   9.464   2.887  0.0703  0.0256 -0.1891
 9205W        W28739   5.248  11.569   4.744 -0.1175 -0.2194 -0.2548
 9206W        W28740  10.092   8.744  16.007 -0.1293  0.0071 -0.0623
 9207W        W28741  11.705   6.131  16.197 -0.0643 -0.1154 -0.0299
 9208W        W28742  15.494  13.076  13.183 -0.0422 -0.0392  0.0620
 9209W        W28743  16.528   8.607  17.127 -0.2453  0.0735  0.1535
 9210W        W28744  11.983   5.151  17.196  0.0994 -0.1229 -0.2317
 9211W        W28745  17.022  12.223   1.902 -0.2081 -0.0632  0.2540
 9212W        W28746   8.274   8.731   3.438 -0.0686 -0.1322 -0.3624
 9213W        W28747   7.497   5.823  13.354  0.1053  0.0348  0.0842
 9214W        W28748   5.329  10.600   2.590 -0.1283  0.2050  0.1857
 9215W        W28749  12.346  11.706  14.839 -0.0532 -0.1985  0.2267
 9216W        W28750  14.507   6.023   3.680 -0.2863  0.1817 -0.0726
 9217W        W28751   3.603   0.933  17.125  0.0359  0.5174 -0.0395
 9218W        W28752  11.682  15.403   0.941  0.0283  0.0704  0.1509
 9219W        W28753  12.942   1.056   0.407 -0.2012 -0.1204  0.1063
 9220W        W28754   7.971   0.447   1.629  0.2731  0.0552 -0.0614
 9221W        W28755  12.493  16.791  13.893 -0.1185  0.1813  0.0288
 9222W        W28756  10.148   8.213   3.948  0.1438 -0.0889 -0.0342
 9223W        W28757   7.556  11.128  16.478 -0.1105 -0.0114 -0.0062
 9224W        W28758   4.838   7.230   2.557  0.0853 -0.3677  0.0259
 9225W        W28759   4.209   1.595  13.014 -0.0299 -0.0419  0.0381
 9226W        W28760   4.147  15.615  15.295  0.2831 -0.0308  0.0850
 9227W        W28761   8.470   4.128  15.275  0.0811 -0.2366 -0.0797
 9228W        W28762   6.581  10.569   3.932  0.1872  0.3358  0.1088
 9229W        W28763   4.246   6.539   2.956  0.1300  0.1033 -0.1148
 9230W        W28764  15.265  12.943  11.903  0.2410 -0.3239 -0.0807
 9231W        W28765  11.803   1.770   2.363  0.1482 -0.1020  0.1675
 9232W        W28766   6.264  15.860  15.945 -0.1081 -0.0381 -0.1175
 9233W        W28767  16.918   4.966   1.460 -0.0503 -0.1427 -0.1243
 9234W        W28768  13.497   4.107  16.932  0.1190 -0.0675 -0.1917
 9235W        W28769  13.976  11.714   3.496 -0.3120  0.1733 -0.0517
 9236W        W28770  11.305   0.127  17.287 -0.0235  0.1314  0.0624
 9237W        W28771   2.279   4.885  15.627  0.1355  0.5112 -0.0365
 9238W        W28772   6.508  17.341  12.960 -0.0407  0.2043  0.0164
 9239W        W28773  10.635   2.637  13.424  0.3819  0.0364  0.1430
 9240W        W28774   0.973   8.528   1.797 -0.0673  0.3043  0.1717
 9241W        W28775   7.562   4.718   2.810  0.3200 -0.2491  0.2189
 9242W        W28776   3.752   8.239  12.418  0.0158  0.1698  0.0661
 9243W        W28777  10.472   0.438   2.917  0.0753  0.2005 -0.0005
 9244W        W28778  13.100  10.734   2.982  0.0849  0.2282  0.1309
 9245W        W28779   7.789  17.323  11.830 -0.1176  0.2321  0.0590
 9246W        W28780   0.662   7.149  16.007  0.0503 -0.2004 -0.2674
 9247W        W28781   4.582  12.468  14.534 -0.1774 -0.0953  0.0785
 9248W        W28782   1.778   0.847  11.929  0.0916  0.0431 -0.1832
 9249W        W28783  15.109   8.180   4.788  0.1819  0.2105 -0.1039
 9250W        W28784   0.504   9.919  13.941 -0.0635  0.2010 -0.0911
 9251W        W28785  15.130   7.266  15.384  0.1381  0.1357  0.0947
 9252W        W28786   7.717   3.573  15.517 -0.3302 -0.0792 -0.2139
 9253W        W28787   4.984  17.108   0.055  0.1442 -0.0326  0.0941
 9254W        W28788  16.299  10.563  13.697 -0.2753 -0.2196  0.0513
 9255W        W28789  13.343  17.045  15.748 -0.0609 -0.0078 -0.0168
 9256W        W28790   0.817  13.922   1.991  0.1494  0.1265  0.0563
 9257W        W28791  17.375   1.369   5.177  0.0178 -0.1216  0.2194
 9258W        W28792  16.144  17.183  17.057  0.0331 -0.1749 -0.0925
 9259W        W28793   4.903   7.972  15.562  0.0593  0.1610  0.1019
 9260W        W28794  16.125  17.295   3.538 -0.3228 -0.1286  0.2004
 9261W        W28795  12.359  11.697  13.941 -0.0019  0.0802 -0.1657
 9262W        W28796   4.768   3.220  14.359  0.0042 -0.0700  0.0100
 9263W        W28797   7.797  13.547  13.886  0.1324  0.1577 -0.0026
 9264W        W28798  11.356  17.159  14.911 -0.2406 -0.0202  0.0852
 9265W        W28799  10.587   9.617  13.214  0.0300  0.0560 -0.1168
 9266W        W28800   7.519   0.782  16.651  0.3958 -0.3155 -0.4118
 9267W        W28801   1.870   5.555   0.105 -0.2820 -0.2222 -0.1124
 9268W        W28802   0.186  11.445   0.064  0.0207  0.1027 -0.4021
 9269W        W28803   1.687  13.661   1.786 -0.0795  0.0856  0.1519
 9270W        W28804   5.244   1.507  13.920  0.2322  0.2411 -0.1506
 9271W        W28805   4.512  11.440  16.613 -0.2054 -0.0504 -0.4315
 9272W        W28806  14.848   7.203  15.812  0.2385 -0.1799  0.4239
 9273W        W28807   5.984   4.222   0.801 -0.2096  0.1665 -0.0619
 9274W        W28808   0.160  12.189  13.627 -0.3041  0.0134 -0.0713
 9275W        W28809   5.909  10.127   0.616 -0.3880 -0.0112 -0.1291
 9276W        W28810   1.219  15.594  17.145  0.1738  0.1695  0.0917
 9277W        W28811  12.213   1.843  16.660 -0.0607 -0.3266  0.1084
 9278W        W28812   1.313   0.783  16.975 -0.2087 -0.0377  0.2511
 9279W        W28813   3.201   8.557  13.021  0.0080 -0.0106  0.1059
 9280W        W28814   6.737   1.053   1.156  0.1126  0.1354  0.0121
 9281W        W28815  12.650   3.104  13.337 -0.0441 -0.1819  0.1236
 9282W        W28816   1.540  10.542  12.857  0.1365 -0.1894 -0.0465
 9283W        W28817   4.631   8.960   1.169  0.1498  0.0150  0.0582
 9284W        W28818   1.780  14.744  13.564 -0.0718 -0.2532  0.0606
 9285W        W28819   6.677   8.030   1.644 -0.1454 -0.0172  0.0962
 9286W        W28820  13.494   9.966  15.922 -0.0169  0.0585  0.1139
 9287W        W28821   3.595  12.964   0.977 -0.0364  0.0612 -0.0451
 9288W        W28822   9.104  16.043  15.349 -0.0143  0.2065  0.0721
 9289W        W28823  15.840   6.512  12.853  0.1742  0.2214 -0.0451
 9290W        W28824   9.613  11.358   4.094 -0.1872  0.1553  0.0939
 9291W        W28825   7.979   2.297  15.969 -0.0146 -0.2005 -0.1062
 9292W        W28826  14.636  14.508  12.843  0.1898 -0.2355 -0.0294
 9293W        W28827  14.512  14.822  12.461  0.2693 -0.1070  0.2167
 9294W        W28828   2.435  13.260   4.869  0.1865 -0.0247 -0.1269
 9295W        W28829   0.887   4.161   2.919 -0.1986 -0.3461  0.2348
 9296W        W28830  16.609  11.471  12.301  0.0822  0.1980  0.0261
 9297W        W28831   9.828  10.414   5.017  0.1471 -0.1347  0.2279
 9298W        W28832  12.178   7.998  16.286 -0.0538 -0.0566  0.1665
 9299W        W28833   9.655  14.354   1.935  0.0561 -0.0277 -0.0698
 9300W        W28834   2.041   8.405   1.615 -0.0426 -0.1268 -0.0542
 9301W        W28835   5.859  16.392  13.822 -0.0284 -0.1909  0.2108
 9302W        W28836   1.355   1.994  11.976  0.0460  0.1486 -0.0844
 9303W        W28837  17.224   3.372  12.592 -0.0345  0.1505 -0.0210
 9304W        W28838  12.550   1.702  15.640  0.0461 -0.2408  0.2222
 9305W        W28839  15.042   8.663  12.368  0.1144 -0.0110  0.2136
 9306W        W28840  15.967   4.653  15.085  0.1049  0.0535  0.1631
 9307W        W28841   5.771  15.226   1.350  0.0561  0.1915 -0.0066
 9308W        W28842   3.319  13.747   0.865 -0.4396 -0.0828  0.0038
 9309W        W28843   5.423   0.638   4.836 -0.1754  0.1124 -0.1265
 9310W        W28844  12.352  14.880   3.899  0.0846 -0.0596  0.1964
 9311W        W28845  17.286  16.516  16.652  0.1752  0.1069  0.1102
 9312W        W28846  12.420   9.455  13.936  0.0101 -0.0440  0.0365
 9313W        W28847  14.811   9.343   1.225  0.0702  0.1386 -0.2747
 9314W        W28848   1.826   8.654   0.761 -0.1628 -0.1103 -0.0882
 9315W        W28849  10.803   0.104   4.490 -0.4032  0.7346  0.0097
 9316W        W28850   2.329   2.327   3.987  0.1714  0.1313  0.0624
 9317W        W28851   5.820   5.908  15.229  0.2712 -0.1271  0.0100
 9318W        W28852  15.308  14.248   0.038  0.0766  0.4041 -0.0476
 9319W        W28853  15.450  13.857  15.368 -0.0660  0.1792  0.0077
 9320W        W28854  10.979   6.441   4.061  0.0197 -0.0783 -0.1378
 9321W        W28855   4.996   4.955   4.218 -0.2092  0.1164 -0.0926
 9322W        W28856   8.083   1.514   5.037  0.0128  0.2154 -0.2098
 9323W        W28857   6.710   2.336  13.006 -0.0195 -0.2536 -0.2271
 9324W        W28858   7.166   1.434   0.645 -0.1099  0.0261 -0.0486
 9325W        W28859   5.652  15.455  15.237 -0.1347 -0.1308  0.2225
 9326W        W28860  12.975   3.903   1.722 -0.2506 -0.1094 -0.0832
 9327W        W28861  13.520  16.594   3.120 -0.1099 -0.2127  0.1512
 9328W        W28862   1.065   4.073  14.030 -0.1204 -0.0537  0.1199
 9329W        W28863  14.944   8.932   1.580  0.1354 -0.2005 -0.1027
 9330W        W28864   6.448  12.376   0.416 -0.2069 -0.0359 -0.1178
 9331W        W28865   4.284   6.591   3.789 -0.1964 -0.3363  0.1095
 9332W        W28866   0.241   5.132  13.831  0.0915 -0.0795  0.0630
 9333W        W28867  11.713  11.544   0.524 -0.3613  0.1999  0.0972
 9334W        W28868  14.442  12.608   3.365  0.0018 -0.2570 -0.0356
 9335W        W28869   1.899   7.782  17.128 -0.1502 -0.2566 -0.0947
 9336W        W28870   0.286  13.225   4.349  0.1051 -0.0791 -0.0381
 9337W        W28871   8.959   2.193  12.661  0.1603 -0.1069 -0.0400
 9338W        W28872   7.123   0.314  13.762  0.1585 -0.1172 -0.0529
 9339W        W28873  11.036   3.436  16.947  0.1047  0.0416  0.2992
 9340W        W28874  15.185   8.435  15.192 -0.1700 -0.2929 -0.0125
 9341W        W28875   1.858   7.948   1.541 -0.1610  0.1984 -0.2511
 9342W        W28876  16.547   9.126   3.529  0.0306 -0.0665  0.1033
 9343W        W28877   2.549   0.237  13.648 -0.0112 -0.0023 -0.1061
 9344W        W28878  12.110  15.936  12.349  0.0619 -0.1477  0.1286
 9345W        W28879   1.089   3.582   3.058  0.0184 -0.0563  0.1644
 9346W        W28880   7.776  17.396   0.724 -0.0515 -0.0152  0.1520
 9347W        W28881   9.723   2.567   3.362  0.4936  0.1569 -0.2123
 9348W        W28882  10.861  11.378  16.799 -0.0156 -0.1984 -0.1878
 9349W        W28883  12.735  10.344   4.996 -0.3447  0.3127 -0.0222
 9350W        W28884   5.675  12.417  15.340 -0.0024 -0.3396 -0.0020
 9351W        W28885   0.197   1.519  12.534 -0.0795 -0.2423 -0.1448
 9352W        W28886   2.726  13.261   1.725  0.0559  0.1218 -0.0020
 9353W        W28887  16.887  10.533   1.319 -0.0199 -0.1886  0.0369
 9354W        W28888  17.327  17.199  15.324 -0.1726 -0.0694 -0.0640
 9355W        W28889  12.443  14.269  16.667  0.0453  0.4452  0.0290
 9356W        W28890  11.991  13.328   0.347  0.0750 -0.0391 -0.0942
 9357W        W28891   3.637   4.815   4.896  0.0249 -0.0671 -0.1450
 9358W        W28892   2.126   6.008   2.436  0.1875  0.0265  0.0190
 9359W        W28893   3.302   4.841   0.616 -0.3386  0.1593 -0.1480
 9360W        W28894   8.365   7.096   3.926  0.0001 -0.1757  0.0038
 9361W        W28895  16.204   7.597  14.853 -0.0997  0.0188 -0.3474
 9362W        W28896   8.865   9.110   0.131 -0.0084  0.1510  0.1198
 9363W        W28897   1.027  13.431   3.336 -0.1111  0.0216 -0.1425
 9364W        W28898  15.496   4.565  15.391 -0.0845  0.0936  0.0600
 9365W        W28899  15.870   0.234   3.351 -0.0477 -0.0032  0.0141
 9366W        W28900   0.122   4.856  14.838  0.0483  0.0035 -0.0338
 9367W        W28901  13.124   5.441   0.071  0.0692 -0.1031  0.4467
 9368W        W28902  14.252   5.397   2.108  0.3171 -0.3816 -0.0878
 9369W        W28903   2.663   9.063   3.218 -0.1192 -0.0840 -0.2895
 9370W        W28904   5.408   4.017  15.412  0.0317 -0.1334 -0.0628
 9371W        W28905   1.388   1.197  15.482 -0.0005  0.2912  0.1093
 9372W        W28906   2.464  10.662   0.407 -0.0488 -0.0302 -0.3044
 9373W        W28907   4.279   2.082  12.182 -0.0765 -0.1941 -0.1171
 9374W        W28908   6.702   0.310   2.807  0.1768 -0.1389  0.0754
 9375W        W28909  10.846  14.295   2.350 -0.0588 -0.0776 -0.0641
 9376W        W28910   2.335   4.846  12.718  0.4555  0.0135 -0.1873
 9377W        W28911  17.367   1.170   1.792  0.5142 -0.0062 -0.2848
 9378W        W28912   1.084   7.751   3.956  0.2166 -0.0521 -0.2819
 9379W        W28913   6.591  11.705   4.151  0.2948  0.0317  0.3026
 9380W        W28914   4.018   3.782   4.379  0.0121  0.1997 -0.0214
 9381W        W28915   2.334   0.240   1.770 -0.2558  0.1261 -0.0450
 9382W        W28916   0.636  16.080   0.274  0.0759  0.1993 -0.0312
 9383W        W28917   5.123   1.298   4.344 -0.0386 -0.1810 -0.1663
 9384W        W28918  14.845  16.958  15.756  0.2603 -0.0541  0.0882
 9385W        W28919   2.189   8.559  15.261  0.1865  0.2338  0.2364
 9386W        W28920  13.621   5.646   3.757  0.1093  0.0374 -0.2276
 9387W        W28921   4.756   3.848  11.854 -0.1107  0.1789  0.0346
 9388W        W28922   5.832   7.795  17.040 -0.3440  0.0381  0.2828
 9389W        W28923   9.384   9.856   4.736  0.2706  0.0163 -0.0439
 9390W        W28924  15.365  11.474   3.684 -0.0436  0.1136  0.0846
 9391W        W28925   2.955   7.234  13.103  0.0466 -0.1164 -0.1136
 9392W        W28926  16.672   3.663  16.894 -0.0868  0.1334 -0.1330
 9393W        W28927   2.463   6.895   1.526  0.2289  0.1661 -0.2533
 9394W        W28928   1.712   2.176   3.433  0.0194 -0.3354  0.4262
 9395W        W28929   0.471   4.346  14.047  0.1055  0.3743  0.1942
 9396W        W28930  12.083  12.955  14.291 -0.1459 -0.1683 -0.2186
 9397W        W28931   6.563  12.026   3.758 -0.1754  0.0633  0.1470
 9398W        W28932  12.640  13.826  13.325 -0.0488  0.0617 -0.1276
 9399W        W28933  12.556   5.398   5.171 -0.3101  0.0085 -0.2999
 9400W        W28934   2.807   5.367  16.964 -0.0802  0.1715  0.0927
 9401W        W28935  12.570  13.335  14.546 -0.1813 -0.0371 -0.2368
 9402W        W28936  12.546   8.327   2.621  0.1029 -0.0818  0.0128
 9403W        W28937  13.763   1.425   4.641  0.0975 -0.0622 -0.3243
 9404W        W28938  15.308  12.136   3.702 -0.2746  0.2428  0.0642
 9405W        W28939  14.070   8.090   0.445  0.0306 -0.1319 -0.1507
 9406W        W28940   5.610  15.181   4.517  0.1888 -0.1496 -0.2048
 9407W        W28941   1.444  16.919   4.652  0.0251  0.1022 -0.0477
 9408W        W28942  10.957   7.587   4.555 -0.0306 -0.1047  0.2487
 9409W        W28943   1.462  10.638   2.134  0.2241 -0.1420 -0.5404
 9410W        W28944   5.771  17.030   4.106  0.1296  0.2574  0.2377
 9411W        W28945  11.576   0.490  13.389 -0.2334  0.0801 -0.0499
 9412W        W28946   0.828   7.911   4.844  0.3094 -0.0829  0.3034
 9413W        W28947   2.990   3.906  12.196  0.1123 -0.3048 -0.1568
 9414W        W28948   1.845  10.441   1.387  0.1888 -0.1336  0.2050
 9415W        W28949   5.921   1.076  15.918 -0.0931 -0.0172  0.2037
 9416W        W28950   0.381  14.884  15.052  0.2621 -0.2245  0.2281
 9417W        W28951   8.284  13.373  14.829  0.0334  0.3075  0.1107
 9418W        W28952   8.608  11.756  13.331 -0.1616 -0.0180 -0.2318
 9419W        W28953  12.164  10.656  15.108 -0.1046  0.2517 -0.1097
 9420W        W28954   4.266   9.303  13.779  0.0471 -0.1200  0.0289
 9421W        W28955  12.583   6.276   3.801 -0.0597 -0.0437  0.0229
 9422W        W28956   7.182  12.872  16.864 -0.0196 -0.1345 -0.2453
 9423W        W28957   1.046   1.737   1.502  0.0332 -0.2199 -0.0444
 9424W        W28958   7.134  16.199  12.425 -0.1478 -0.0547  0.1607
 9425W        W28959   8.771   6.572  14.898  0.2169  0.1520  0.1814
 9426W        W28960   6.935  11.239  15.401 -0.0136  0.0483 -0.1122
 9427W        W28961   3.732   7.428   1.244  0.2736 -0.1201  0.3727
 9428W        W28962   3.038  13.231  13.441 -0.0235 -0.3133 -0.0691
 9429W        W28963   0.131   3.638  14.806  0.1264  0.2864 -0.0101
 9430W        W28964  11.249  13.012   4.904 -0.0366 -0.3534 -0.0093
 9431W        W28965   2.288  15.017   3.339  0.1403  0.1439 -0.1683
 9432W        W28966   6.187  11.464  16.956 -0.1211  0.0560  0.0501
 9433W        W28967   5.096   8.580  13.168 -0.1024 -0.4056  0.1219
 9434W        W28968  12.482  14.299   3.895 -0.1569  0.0198 -0.1895
 9435W        W28969  10.493  11.710   4.530  0.0882  0.0197  0.2426
 9436W        W28970  14.769  10.589  15.618 -0.2615 -0.1769  0.1647
 9437W        W28971   3.367   9.190  14.338 -0.0147 -0.0641 -0.1850
 9438W        W28972  16.562  17.344   0.827  0.3415  0.0543 -0.0884
 9439W        W28973   7.418  16.192  16.612 -0.2506 -0.0417  0.0775
 9440W        W28974  15.877   6.913  16.165 -0.3934  0.1663 -0.2292
 9441W        W28975  11.704   4.199  16.055  0.0178  0.0068 -0.1057
 9442W        W28976  15.061  13.479  12.074 -0.4133 -0.1436 -0.2074
 9443W        W28977   9.146  17.102  13.160 -0.0308  0.2295  0.1158
 9444W        W28978   4.211  10.772   4.796 -0.1679  0.1158 -0.1452
 9445W        W28979   9.917   7.107  16.016 -0.2725  0.1632 -0.0124
 9446W        W28980  13.727   5.651   4.236 -0.2801 -0.0230 -0.0756
 9447W        W28981  17.366   8.742   4.453  0.1117  0.2675 -0.0501
 9448W        W28982   0.593  13.652  14.412 -0.0722  0.1148 -0.0449
 9449W        W28983   8.135   7.808   3.554 -0.0574  0.2532  0.2538
 9450W        W28984   0.591  16.487   1.496 -0.1139  0.1850  0.1827
 9451W        W28985   3.337  14.926  12.590  0.2292 -0.1519 -0.0781
 9452W        W28986   3.421   4.171  12.059 -0.1474 -0.3546 -0.1590
 9453W        W28987  12.832  12.938  15.755  0.1693 -0.3206  0.0447
 9454W        W28988   3.230  11.861  14.825  0.2680  0.1506 -0.0793
 9455W        W28989   7.624   7.679   4.198 -0.1454 -0.0245 -0.1124
 9456W        W28990   2.018  16.305  16.123 -0.2377  0.1461  0.0164
 9457W        W28991   0.837  12.641  13.647 -0.1265 -0.0901 -0.5708
 9458W        W28992  15.856  15.606  13.860  0.1087 -0.0510  0.1367
 9459W        W28993   5.541  14.454  15.353 -0.0664  0.1801 -0.0886
 9460W        W28994  17.415   4.308   0.869  0.1226  0.1911 -0.2547
 9461W        W28995  13.824   3.222   4.592  0.1246  0.2854  0.1332
 9462W        W28996  13.344   8.456   4.238  0.0837 -0.1116 -0.0259
 9463W        W28997  12.399   8.877   2.385 -0.0414  0.0284 -0.0424
 9464W        W28998  15.910  10.975   4.082 -0.3791  0.4116  0.0816
 9465W        W28999   8.657  12.865   2.654  0.0987  0.1821  0.2362
 9466W        W29000   4.512   1.880  16.516 -0.1020 -0.0985  0.3607
 9467W        W29001   4.719   6.306   3.154  0.0736  0.0929 -0.0866
 9468W        W29002   0.884   8.061  16.235 -0.0405  0.0214  0.0227
 9469W        W29003   1.290   7.486  14.554 -0.1717 -0.0656  0.3135
 9470W        W29004   8.353   0.376   1.119 -0.3039  0.0463 -0.0625
 9471W        W29005   0.137   2.750   0.185  0.0859 -0.1923  0.0299
 9472W        W29006   9.443   1.956   2.709 -0.1468 -0.0562  0.1005
 9473W        W29007   1.298  12.677  14.895 -0.0771  0.2583  0.0747
 9474W        W29008   6.497   8.185   1.132 -0.2101  0.1915  0.0309
 9475W        W29009   4.580   7.916  17.280 -0.1331 -0.1008 -0.0867
 9476W        W29010  12.891  16.680   1.367  0.1643  0.0454 -0.1508
 9477W        W29011   6.798  16.920  14.599 -0.0002  0.2672 -0.0529
 9478W        W29012   8.637  16.295   4.442  0.2162 -0.0885 -0.0845
 9479W        W29013  12.002  14.672  12.571 -0.0534  0.0229 -0.1277
 9480W        W29014   9.862  11.449  14.112 -0.0279  0.2548 -0.1186
 9481W        W29015  16.261  10.130   0.517 -0.2572  0.1398  0.0210
 9482W        W29016   4.611  14.227   1.308  0.1438  0.0276  0.1134
 9483W        W29017   4.935  13.313  13.341  0.0112 -0.1815  0.1508
 9484W        W29018   7.327  12.442  16.559  0.1088 -0.0813 -0.2398
 9485W        W29019   8.480   7.794  14.532 -0.0486 -0.4453 -0.0566
 9486W        W29020  10.583   8.771   5.122  0.0389 -0.0200  0.0714
 9487W        W29021   2.217  12.700  15.702  0.1018  0.0354  0.1223
 9488W        W29022   1.560  15.917  15.386 -0.2506  0.1387  0.0556
 9489W        W29023  14.262  10.197   3.304 -0.0156  0.1560  0.0261
 9490W        W29024  10.877  13.719  16.116  0.0414 -0.0079  0.2501
 9491W        W29025  12.188   7.536   4.235  0.1251 -0.1231  0.0326
 9492W        W29026  15.067   5.996   0.030  0.1784  0.2692  0.0909
 9493W        W29027  13.864  11.826  13.928 -0.0034  0.0895 -0.0141
 9494W        W29028  11.994   1.680  13.407  0.2021  0.2160  0.1318
 9495W        W29029   5.812  11.244  16.142 -0.1282 -0.2469 -0.2122
 9496W        W29030   1.390  15.547  16.015 -0.3495  0.0239 -0.1035
 9497W        W29031  10.461   9.836   1.037  0.2898 -0.1475 -0.1689
 9498W        W29032   0.099  12.606   4.994 -0.1585  0.0052  0.0268
 9499W        W29033   5.644   7.647   0.306  0.2244  0.2435  0.0193
 9500W        W29034   8.100   8.110  12.990 -0.1906  0.1007 -0.0393
 9501W        W29035  11.512  15.792  16.270  0.3151 -0.0646  0.0281
 9502W        W29036   1.607  10.157   4.015 -0.1784  0.0245 -0.0314
 9503W        W29037   4.515  12.230  14.067  0.0751  0.0194  0.1304
 9504W        W29038   0.247  12.618   1.596  0.1099  0.4064 -0.0237
 9505W        W29039   7.488   2.996   3.388 -0.1075  0.1257  0.0873
 9506W        W29040   3.604   2.905   0.217  0.3141  0.0846 -0.0731
 9507W        W29041  16.246   2.372   5.211 -0.3422  0.2499 -0.1005
 9508W        W29042   3.963   1.572  12.286  0.1582  0.3199 -0.1075
 9509W        W29043   6.780  16.285  15.452 -0.3448  0.2078  0.0532
 9510W        W29044   8.351   7.717  13.215 -0.1936  0.2400 -0.3105
 9511W        W29045  12.398   5.265  15.896 -0.1760 -0.0017 -0.1491
 9512W        W29046   3.849   9.331  15.387 -0.0092  0.0142  0.0297
 9513W        W29047   0.840   0.676   4.337 -0.2077  0.0062  0.0604
 9514W        W29048  16.490   4.042   4.466 -0.0109 -0.1269 -0.0391
 9515W        W29049  14.318   3.246   3.279 -0.0372 -0.1423  0.3160
 9516W        W29050   7.550  16.752   1.285  0.1252  0.0907  0.2063
 9517W        W29051   1.489   5.023  12.363 -0.1219  0.3921 -0.0111
 9518W        W29052   2.944  12.918  15.340  0.0034 -0.0615 -0.2700
 9519W        W29053   7.253   6.048  12.346  0.0176  0.2318 -0.1864
 9520W        W29054  16.485   8.614   2.580  0.0059 -0.0792  0.1069
 9521W        W29055   2.498  12.045   6.175 -0.2071  0.0795 -0.0142
 9522W        W29056  10.138  10.918  16.276 -0.0679  0.0718  0.1691
 9523W        W29057  13.501  10.650   2.753 -0.0769  0.1141  0.0259
 9524W        W29058  14.471   1.127   0.714 -0.2914  0.2128 -0.2216
 9525W        W29059   3.146   3.210   3.740 -0.0144  0.0354 -0.0096
 9526W        W29060   8.080  11.468   1.019 -0.1302  0.1663 -0.2184
 9527W        W29061   5.324   6.539   5.289  0.1611 -0.2199 -0.1335
 9528W        W29062  15.388  11.426  14.926  0.2139 -0.1196  0.0619
 9529W        W29063  16.756  15.093  14.276 -0.0884  0.0718 -0.1680
 9530W        W29064  11.127   9.519  12.640  0.3052 -0.0507  0.3013
 9531W        W29065  11.909   0.596  14.264  0.0098 -0.1821 -0.0490
 9532W        W29066   9.873   0.743  15.162 -0.0581 -0.0285 -0.3212
 9533W        W29067   9.304  17.415   3.968 -0.1704 -0.0394  0.1058
 9534W        W29068   9.621  16.699  16.141  0.2636  0.2115  0.5088
 9535W        W29069  15.486  17.337   2.130 -0.2180  0.0211  0.0583
 9536W        W29070   7.893   0.556  14.482  0.3011 -0.0879 -0.0031
 9537W        W29071   1.456   2.452  16.377  0.6285  0.1617  0.0885
 9538W        W29072  12.932   6.884  13.061 -0.0356  0.0324 -0.4047
 9539W        W29073   2.723   0.394   2.130 -0.1945 -0.2608 -0.2862
 9540W        W29074   3.089   5.244  14.113  0.0386 -0.0282  0.1904
 9541W        W29075  15.121  14.810  12.726  0.0755  0.0902 -0.1165
 9542W        W29076  10.939   6.339   2.573 -0.0690  0.4044 -0.1342
 9543W        W29077   2.471  16.246   0.561  0.0570 -0.0213  0.1352
 9544W        W29078   7.641   2.880  16.543  0.0406  0.0697 -0.2357
 9545W        W29079   8.593   1.208  14.730 -0.1195  0.3630 -0.1738
 9546W        W29080  15.334   1.012   4.147 -0.1427 -0.0726  0.1908
 9547W        W29081   6.678  15.172   1.031  0.0503  0.2652 -0.0498
 9548W        W29082   9.612   7.908   0.399 -0.1477  0.1847  0.2993
 9549W        W29083   5.518   8.381  12.969  0.2411 -0.0287  0.1134
 9550W        W29084   6.551  10.828   2.219  0.1164 -0.2959 -0.3200
 9551W        W29085   6.380  16.528  13.439 -0.2671  0.1389  0.2048
 9552W        W29086   0.568  12.098  14.614 -0.0618 -0.1413 -0.4127
 9553W        W29087   0.871   1.045  16.839  0.0863 -0.2542  0.1725
 9554W        W29088  11.430  14.801   5.305 -0.1466 -0.2145  0.2399
 9555W        W29089  17.236   6.322   0.160  0.1330  0.2432 -0.0627
 9556W        W29090   0.214   9.350   1.301  0.1030  0.0649 -0.0386
 9557W        W29091   4.722  13.317   0.858  0.3878  0.1427 -0.1386
 9558W        W29092  15.525  15.530  17.132 -0.3340 -0.0107  0.0634
 9559W        W29093  13.236   1.701  12.715  0.1720 -0.1061  0.1611
 9560W        W29094   6.121  16.256  14.254  0.1524  0.2736  0.2769
 9561W        W29095  16.620   2.791  16.723 -0.0808  0.0425 -0.0262
 9562W        W29096   2.360   1.420   4.990 -0.2087  0.0523  0.0589
 9563W        W29097   4.576   4.032  15.647 -0.0622  0.2572  0.1676
 9564W        W29098   1.020   1.332  14.765 -0.0959  0.1574 -0.0961
 9565W        W29099  12.206   5.630  12.857 -0.1218 -0.3514  0.2395
 9566W        W29100  14.442  13.352  16.015  0.1021  0.0274 -0.2519
 9567W        W29101  10.697   9.734   2.969 -0.0649  0.2087  0.0090
 9568W        W29102  16.478   2.356   3.317 -0.1627  0.0554 -0.1080
 9569W        W29103   8.719  10.869   0.519 -0.0044  0.1042 -0.3128
 9570W        W29104   1.029   2.298   1.758 -0.0990  0.0442  0.1656
 9571W        W29105   0.632  16.522   2.588  0.1520 -0.0177 -0.0538
 9572W        W29106  11.904   2.975   3.230 -0.2411 -0.0980 -0.2283
 9573W        W29107   6.176   1.589  12.433 -0.0059  0.0770 -0.0716
 9574W        W29108  16.657   6.584  13.345  0.1560 -0.1585 -0.2219
 9575W        W29109   2.959  12.134   2.617  0.1291 -0.3911 -0.2172
 9576W        W29110   5.783   2.041  16.379 -0.0366  0.2102 -0.1241
 9577W        W29111   3.468  16.105   4.653 -0.3817  0.3182 -0.0774
 9578W        W29112  10.741   9.657  14.538 -0.1683 -0.2567  0.0589
 9579W        W29113  15.825  13.819  13.017 -0.0215  0.1058 -0.1811
 9580W        W29114   1.686  10.215  17.077 -0.0177 -0.1833  0.0858
 9581W        W29115   5.899  15.830  14.459 -0.2386  0.1239 -0.0640
 9582W        W29116   3.102   0.483   1.728  0.1647  0.1217 -0.0546
 9583W        W29117   7.358  15.864   2.062  0.0376  0.1109  0.1846
 9584W        W29118  11.496  17.396   0.453 -0.0278 -0.1144  0.0708
 9585W        W29119   0.981   6.333  15.706 -0.2682 -0.1058 -0.0779
 9586W        W29120   4.839  14.466  17.241  0.1583  0.0289 -0.1610
 9587W        W29121  14.622  12.942  14.343  0.2408  0.0734 -0.0630
 9588W        W29122   9.799  15.705  14.902  0.1279  0.1473 -0.2322
 9589W        W29123   2.153  15.715  17.076  0.0123 -0.3402 -0.1138
 9590W        W29124   1.285   4.538   2.634 -0.3005  0.0800 -0.0002
 9591W        W29125   8.810   7.497  13.234  0.0489 -0.0013 -0.1787
 9592W        W29126   9.499   5.744   4.654 -0.1953 -0.2367  0.0114
 9593W        W29127   5.049   9.905   4.902 -0.1289  0.1549  0.0459
 9594W        W29128  15.842  11.364   0.748  0.2837 -0.1658  0.2326
 9595W        W29129  10.225   1.789  12.822 -0.1107 -0.0758  0.2422
 9596W        W29130   3.326   9.090  14.851  0.3469  0.0102 -0.0801
 9597W        W29131  16.739   6.877  15.361 -0.0337  0.2278 -0.0015
 9598W        W29132   4.879   9.263  14.319  0.2341  0.0761 -0.1118
 9599W        W29133  12.937   0.429   2.129  0.1067  0.0595 -0.1191
 9600W        W29134  13.993  17.357   5.297 -0.3071 -0.1375 -0.2792
 9601W        W29135  13.224   0.933   4.364  0.1210 -0.2920  0.2430
 9602W        W29136  10.934  11.761  12.447 -0.0083  0.1499 -0.2780
 9603W        W29137   6.575  14.349  14.364 -0.0126 -0.2086 -0.0284
 9604W        W29138  10.532   7.913   1.355  0.4336  0.1897 -0.1266
 9605W        W29139  13.661  13.695  16.545  0.1693 -0.1705  0.0607
 9606W        W29140  14.074   8.899   3.552 -0.0338 -0.0296 -0.1727
 9607W        W29141  10.713  13.982  13.816 -0.1514 -0.0307 -0.0598
 9608W        W29142   9.142  15.013   5.179 -0.0591  0.0611  0.2000
 9609W        W29143  15.933   1.111  13.083 -0.2103  0.3095 -0.0180
 9610W        W29144   0.460   5.033   0.842 -0.2536 -0.0332  0.2006
 9611W        W29145  13.471  12.902   1.775  0.2434 -0.0556 -0.0474
 9612W        W29146  17.195  10.544   1.824  0.0581 -0.1291 -0.0768
 9613W        W29147   7.686   2.061  13.066 -0.0230  0.0444 -0.4355
 9614W        W29148  12.471   7.606   3.769  0.0765 -0.1458 -0.2231
 9615W        W29149  16.000  13.019  16.471 -0.1806  0.0617  0.1916
 9616W        W29150   1.815   8.214  15.149 -0.0078 -0.1566  0.1097
 9617W        W29151   4.447   1.905  15.929  0.0271 -0.4036  0.0193
 9618W        W29152   4.686   5.305  12.342 -0.4675  0.0150  0.3174
 9619W        W29153   5.253  13.056   1.672 -0.0220  0.0718  0.3833
 9620W        W29154  15.576   4.186  16.860  0.0755  0.1250 -0.0091
 9621W        W29155  13.913  17.333  14.849  0.0039  0.1612 -0.0061
 9622W        W29156   5.745   5.336  14.249  0.1362  0.1223 -0.0302
 9623W        W29157  16.005   9.416   0.069 -0.1001  0.0179 -0.0596
 9624W        W29158   2.969  10.937   2.314  0.0642 -0.1121 -0.3235
 9625W        W29159   9.704  12.335   3.455  0.1040 -0.0833  0.1965
 9626W        W29160  17.350   9.137  17.280  0.1291 -0.1735 -0.1640
 9627W        W29161   0.155   1.728   1.234  0.1356  0.0932  0.1627
 9628W        W29162   7.781   4.984  13.137  0.2802  0.2167  0.0884
 9629W        W29163   5.338   8.125   1.613  0.0370  0.0845 -0.1231
 9630W        W29164   3.409   2.146   3.365 -0.0899  0.2914 -0.1834
 9631W        W29165   7.370  10.080   2.299 -0.2293 -0.0964  0.0912
 9632W        W29166   7.583   5.123  16.146  0.3079 -0.1555  0.0811
 9633W        W29167  13.589  14.562   4.472 -0.0482 -0.0103 -0.1810
 9634W        W29168   2.454   2.769   1.416 -0.0197  0.1918  0.0416
 9635W        W29169   6.730   5.103   3.709  0.2163 -0.3451 -0.1099
 9636W        W29170  12.990  13.828  13.728  0.0634 -0.1886  0.1586
 9637W        W29171  12.554  12.138  14.607  0.1479  0.1124 -0.0868
 9638W        W29172   7.418   2.817   2.501 -0.0389 -0.0967 -0.1185
 9639W        W29173  13.186   4.594  14.474 -0.1353 -0.0916  0.2561
 9640W        W29174  12.099  16.634  12.349 -0.0615  0.2622  0.0842
 9641W        W29175   3.490   6.309  14.932 -0.0900  0.0194  0.0585
 9642W        W29176   3.295   7.283   2.214 -0.1619  0.0940  0.0627
 9643W        W29177  16.045   2.711   3.363  0.2213  0.0484 -0.0843
 9644W        W29178   1.965   0.084   2.968 -0.3238  0.1168 -0.0422
 9645W        W29179  10.813   4.415   1.040  0.0939 -0.0826 -0.1021
 9646W        W29180   2.617   0.493  16.552 -0.0110 -0.0721  0.0456
 9647W        W29181   9.047   0.724  13.589 -0.0835  0.1339 -0.1535
 9648W        W29182   7.378  13.406   4.521  0.1338  0.0832 -0.2464
 9649W        W29183  17.315   9.539   1.699 -0.1813  0.0426 -0.2692
 9650W        W29184   7.676  13.237  12.387 -0.0125 -0.1845  0.2925
 9651W        W29185   9.351   4.935  13.275 -0.1122  0.0515 -0.3308
 9652W        W29186  13.142  14.229  15.937 -0.1501  0.0039 -0.3494
 9653W        W29187   4.139   4.209   2.687 -0.1941  0.3832 -0.0217
 9654W        W29188  11.129   8.007   3.707 -0.1337 -0.2437  0.0188
 9655W        W29189   4.212   5.615  16.037  0.3165  0.1524 -0.0671
 9656W        W29190  14.347   0.854  17.158  0.0298 -0.0885 -0.0438
 9657W        W29191   1.926   0.970   5.848 -0.3825  0.0102 -0.1122
 9658W        W29192  15.211   0.292  13.805  0.1953 -0.2808 -0.3387
 9659W        W29193   9.104   1.831   3.458 -0.0280  0.1735  0.1586
 9660W        W29194   8.120   4.280  17.189 -0.0062  0.1404 -0.0650
 9661W        W29195   2.280  10.209  13.540  0.1249 -0.1547  0.2402
 9662W        W29196   0.165   5.154   2.119  0.1635  0.1817 -0.1740
 9663W        W29197   8.120   9.188   3.386  0.1900 -0.1818 -0.0551
 9664W        W29198   8.842  14.245   4.778  0.2762  0.1281 -0.0087
 9665W        W29199  14.996   4.386   0.955 -0.1767 -0.1061 -0.4662
 9666W        W29200  10.479  11.039  12.388  0.5012  0.1336 -0.2922
 9667W        W29201   5.962   0.596  16.883  0.2900 -0.0501 -0.0625
 9668W        W29202  11.534  12.603   0.224  0.0620  0.0108  0.1923
 9669W        W29203  12.954   3.560   1.337  0.2946 -0.4340 -0.4516
 9670W        W29204  13.007   3.925  12.379 -0.1198  0.1918 -0.0862
 9671W        W29205  14.906  13.262  12.854  0.0634  0.2143 -0.3166
 9672W        W29206   3.515  13.850  14.333 -0.0887  0.1298  0.1093
 9673W        W29207   4.389  16.087  16.157 -0.0120  0.0881 -0.1049
 9674W        W29208   6.435  13.159   0.832  0.1343  0.2233  0.1297
 9675W        W29209   8.715   0.475   2.537  0.2530  0.0447  0.2445
 9676W        W29210   8.482  12.820  16.769 -0.0134 -0.2507 -0.1019
 9677W        W29211  16.486   8.518  12.584  0.0256 -0.3506 -0.3685
 9678W        W29212  16.902  12.405   5.395  0.1311  0.2522 -0.2241
 9679W        W29213  13.999   7.870  14.580  0.0005 -0.1279 -0.0006
 9680W        W29214   8.409   1.913  13.932 -0.0171  0.3402  0.0694
 9681W        W29215   8.282  10.526  12.901 -0.1385  0.1263  0.0152
 9682W        W29216  13.326  16.194  16.673 -0.2329 -0.2945  0.0439
 9683W        W29217   4.578  17.142  16.480  0.1404  0.2085 -0.1362
 9684W        W29218   7.624   9.809  12.666  0.0222 -0.3014 -0.0107
 9685W        W29219   6.419   8.693   2.426 -0.2825 -0.0423 -0.1708
 9686W        W29220   9.391   2.506  15.290  0.0554  0.2052  0.0383
 9687W        W29221  13.100   1.376   3.023  0.0118 -0.0055 -0.2329
 9688W        W29222  12.850  14.693  13.207 -0.1152  0.0356 -0.3355
 9689W        W29223   8.472  10.451  16.134 -0.0337 -0.0308 -0.0397
 9690W        W29224  12.949   6.131  15.571  0.1134  0.0142  0.1604
 9691W        W29225   0.196   9.771   0.527  0.0578  0.3200  0.4174
 9692W        W29226   3.745   8.476  12.870 -0.0113  0.1279 -0.0603
 9693W        W29227   4.625  15.623  14.459  0.2198  0.0133 -0.3588
 9694W        W29228   5.896  13.653  12.183 -0.1278 -0.1888  0.0111
 9695W        W29229  13.506   0.390   0.877  0.0527 -0.0059  0.2472
 9696W        W29230  12.605   1.323   1.228 -0.1522  0.0692  0.0245
 9697W        W29231   8.421   5.396   0.728 -0.0447 -0.3259 -0.0029
 9698W        W29232   7.097   9.827  14.764 -0.0809  0.3073  0.1368
 9699W        W29233   8.057   5.924   1.488 -0.1208 -0.2036  0.0012
 9700W        W29234   7.729   8.842  15.134  0.3480 -0.0546 -0.2567
 9701W        W29235   0.621  16.773  13.239 -0.0134 -0.1686 -0.2149
 9702W        W29236   7.947   6.861   3.684 -0.1841  0.2052  0.0532
 9703W        W29237   8.660   8.965   1.143 -0.1771  0.3475  0.1953
 9704W        W29238   2.388   7.082  13.888  0.2432  0.2038  0.0191
 9705W        W29239   7.918  13.071   3.737 -0.0369 -0.2774 -0.1095
 9706W        W29240   6.922  12.203   4.954  0.0817 -0.1247  0.4060
 9707W        W29241  13.540   1.498  16.942  0.4377  0.0320 -0.1239
 9708W        W29242  12.453  15.367   4.107 -0.2931 -0.0336 -0.0262
 9709W        W29243  16.272  12.918   2.102 -0.0298 -0.0170  0.1220
 9710W        W29244   1.420  17.215  16.572  0.3412  0.0043  0.3907
 9711W        W29245  15.533  11.961   1.481  0.0731 -0.2657 -0.3714
 9712W        W29246   6.200   8.847  13.883 -0.1327  0.0693  0.0019
 9713W        W29247   0.158   5.787   3.896  0.3354 -0.0508 -0.1471
 9714W        W29248  10.285   8.934   1.406 -0.0304  0.0298 -0.0102
 9715W        W29249   7.731   4.726  12.723  0.1624  0.0192 -0.1615
 9716W        W29250  17.305  16.545   4.135  0.2329 -0.3892  0.2058
 9717W        W29251  15.572   6.912   1.003  0.1434  0.0014  0.4084
 9718W        W29252   5.768  14.478  12.404  0.0448 -0.0333  0.0636
 9719W        W29253  14.935   1.016  14.970  0.0925 -0.0229  0.2548
 9720W        W29254  12.909  13.618   5.250 -0.0981  0.2172  0.2414
 9721W        W29255   8.544   2.570  12.459  0.0376 -0.2068 -0.0731
 9722W        W29256  13.312   5.048  17.118 -0.1413  0.1162 -0.2805
 9723W        W29257   1.755   7.337   4.697  0.1984 -0.0798 -0.4221
 9724W        W29258  14.511  14.203   1.715 -0.1002  0.0958 -0.0219
 9725W        W29259  11.832   1.096  14.222  0.0569 -0.0555  0.2338
 9726W        W29260  10.149   2.793  13.809  0.0377  0.1311  0.2847
 9727W        W29261   2.200  11.441  16.349  0.3887  0.0360 -0.1987
 9728W        W29262   0.715   8.964  13.455 -0.1140  0.1707 -0.2545
 9729W        W29263  15.770  13.224   0.413  0.1677  0.0612 -0.0457
 9730W        W29264  14.125  16.456   1.102 -0.2453  0.1187 -0.3810
 9731W        W29265  12.778   6.931  15.679  0.0511 -0.0296 -0.2303
 9732W        W29266   1.766   2.628   3.604 -0.2476 -0.1302 -0.1040
 9733W        W29267   7.287   6.937   0.931 -0.1257 -0.0147 -0.2737
 9734W        W29268  12.816   2.617   1.579  0.0861 -0.0147 -0.3926
 9735W        W29269   5.832   7.371  17.296 -0.0229 -0.2307  0.1897
 9736W        W29270  13.849   4.963   2.698 -0.0484 -0.1495 -0.1721
 9737W        W29271  12.115  12.311   3.148  0.1855  0.3777  0.2186
 9738W        W29272   1.409   9.135  14.072  0.1951 -0.1335  0.1694
 9739W        W29273  13.156  13.013   2.124  0.0687 -0.1401 -0.1545
 9740W        W29274   4.994  17.357  16.396  0.0507  0.1436  0.1990
 9741W        W29275   7.160  10.020   5.147 -0.0332 -0.0929  0.2051
 9742W        W29276   2.478   8.564  13.044 -0.2807  0.3143 -0.0093
 9743W        W29277   5.012  13.026  14.821 -0.0009 -0.3246 -0.1390
 9744W        W29278  10.947  16.463  16.534 -0.1430  0.0229  0.2304
 9745W        W29279   5.873  16.544  15.810  0.2006  0.0698 -0.2771
 9746W        W29280   1.703  16.434   4.457 -0.1718 -0.2135  0.2533
 9747W        W29281   5.744  11.625  13.464  0.0721  0.3820 -0.0724
 9748W        W29282  17.033   9.958  13.580  0.1204  0.0239 -0.2074
 9749W        W29283  13.803  11.745   2.240 -0.2585 -0.2253 -0.1757
 9750W        W29284   8.043   2.090   1.177  0.2922 -0.0759 -0.0910
 9751W        W29285  15.880  13.527   5.709  0.0987 -0.3134  0.2344
 9752W        W29286  10.294  14.967   3.808  0.0957 -0.1890 -0.0481
 9753W        W29287   9.076   4.529  14.151  0.0152 -0.0341  0.1677
 9754W        W29288   1.922  16.281   1.311  0.0600 -0.2378  0.1462
 9755W        W29289  11.955  15.108   1.300  0.1388 -0.0279 -0.3291
 9756W        W29290  11.988   9.228   2.495  0.1483  0.0803  0.4534
 9757W        W29291  14.150   5.313   5.216 -0.2160 -0.3984  0.1006
 9758W        W29292  14.834  17.098  13.146 -0.1498  0.0876 -0.2156
 9759W        W29293   2.394   2.553  13.841 -0.1527  0.0708 -0.1243
 9760W        W29294  13.736  16.259   2.771 -0.2361  0.1840 -0.2057
 9761W        W29295  15.012   3.876   0.811  0.2865 -0.0542  0.1174
 9762W        W29296  16.845  14.744   0.498  0.2798 -0.3891 -0.3649
 9763W        W29297  15.880   5.493  16.632 -0.0480 -0.0448  0.2160
 9764W        W29298  15.135  15.458  14.493 -0.1707 -0.2734  0.1269
 9765W        W29299   3.532   9.327   0.857  0.0523  0.1531 -0.0678
 9766W        W29300  17.086  15.958   4.550 -0.1365  0.4703  0.0378
 9767W        W29301   9.741   8.756   2.272 -0.2510  0.0462  0.2100
 9768W        W29302   3.725   1.352   2.571  0.0191 -0.1513  0.1571
 9769W        W29303   9.524   5.153  12.472 -0.1809 -0.2675 -0.1065
 9770W        W29304  10.964  11.963   0.621  0.0743  0.1183 -0.2143
 9771W        W29305   1.888   2.450  12.919 -0.1769 -0.2749  0.2420
 9772W        W29306   8.279   2.743  13.250  0.0563 -0.2272  0.0514
 9773W        W29307   0.098  15.851  15.483  0.0159  0.1247  0.0558
 9774W        W29308   9.649  17.167  15.151  0.2164  0.0580 -0.1275
 9775W        W29309  13.001   6.886  16.723 -0.1497  0.3112 -0.0537
 9776W        W29310   5.321   0.294   2.083 -0.3269  0.1642 -0.0859
 9777W        W29311   8.575   7.628   3.821 -0.0585  0.1662  0.1999
 9778W        W29312  16.657   9.664   3.507  0.1565 -0.1094  0.0220
 9779W        W29313   4.573  14.880  14.489 -0.1398  0.0516  0.1450
 9780W        W29314   7.784  13.077  15.142  0.0453  0.0380 -0.1924
 9781W        W29315  10.019   2.756  16.946 -0.1104 -0.1055  0.0171
 9782W        W29316  13.146   5.947  16.689 -0.1500 -0.0375 -0.0259
 9783W        W29317  16.625   1.677   5.103 -0.3015  0.1627 -0.1098
 9784W        W29318  15.041   2.104  13.974 -0.0549  0.1338  0.2702
 9785W        W29319   2.871   9.259  16.600 -0.1257  0.0384 -0.2887
 9786W        W29320   4.497   5.824   5.048  0.1575  0.0702 -0.2327
 9787W        W29321  15.267  12.210  13.406 -0.1476 -0.3306  0.1465
 9788W        W29322  14.869   5.113   1.632 -0.0398 -0.2364  0.1158
 9789W        W29323  13.882  14.094  13.228  0.0540 -0.2322  0.0782
 9790W        W29324   2.982   8.874  12.632 -0.2828 -0.3166 -0.1682
 9791W        W29325   7.709  13.148  14.261 -0.3194  0.1922  0.1574
 9792W        W29326   4.053   2.205  15.973  0.2655 -0.0604  0.3904
 9793W        W29327   4.479   1.124   0.167  0.0030  0.1677  0.1088
 9794W        W29328   8.879   2.177   0.262 -0.2183  0.1494 -0.0405
 9795W        W29329   0.401   0.323   1.787 -0.1416  0.1016 -0.1560
 9796W        W29330   2.213  17.032   0.151 -0.2175 -0.1398  0.2073
 9797W        W29331   3.285   9.747  12.713  0.0772 -0.5019  0.0569
 9798W        W29332   4.665  14.788  13.245 -0.2443 -0.1345 -0.0602
 9799W        W29333  14.992  15.512   2.402  0.0366 -0.1056 -0.0207
 9800W        W29334   5.230  17.131  12.918  0.2815 -0.1864  0.0271
 9801W        W29335  15.794   2.729   0.014 -0.1199 -0.0588  0.4153
 9802W        W29336  14.596   3.283   5.281  0.0420 -0.1134  0.1101
 9803W        W29337   0.810   8.067  13.022 -0.1687  0.1179  0.1423
 9804W        W29338   0.934  10.344  17.094  0.0974  0.0824 -0.2866
 9805W        W29339   6.591   9.616  13.729  0.2549 -0.3324 -0.2157
 9806W        W29340  14.239  16.144  13.622  0.1293  0.1432  0.2857
 9807W        W29341  15.278   9.564   2.041  0.1085  0.1922 -0.3265
 9808W        W29342   4.035  15.745  12.560 -0.0350 -0.0956 -0.2053
 9809W        W29343  17.192   4.771   4.742 -0.0154  0.2732 -0.4681
 9810W        W29344  14.672   1.343  13.198 -0.0829 -0.1698  0.1978
 9811W        W29345   9.222   2.069   1.884  0.1697 -0.0102  0.2147
 9812W        W29346   3.729  17.093  15.774  0.0823  0.2371 -0.1878
 9813W        W29347   8.136  14.818   0.578  0.0631  0.0691 -0.3404
 9814W        W29348  16.664   5.350  15.599 -0.0692 -0.0156 -0.1196
 9815W        W29349   5.020  16.029   3.615  0.0182 -0.0269 -0.0333
 9816W        W29350  17.005   9.391   3.069  0.3517  0.0116  0.0896
 9817W        W29351   4.799   2.632   1.366  0.2067  0.0003  0.2892
 9818W        W29352   2.742   0.323  13.227  0.2199 -0.0295 -0.2705
 9819W        W29353  12.243   2.607  12.666  0.2593 -0.4107  0.0436
 9820W        W29354   2.955  13.524   1.102  0.0250  0.1679 -0.0860
 9821W        W29355   4.408   5.917   3.318  0.0579 -0.1896  0.2004
 9822W        W29356  14.097  11.481  15.202 -0.1704  0.0839 -0.0406
 9823W        W29357   7.619   5.676  14.770 -0.1174 -0.0755 -0.2806
 9824W        W29358  17.220  14.344  14.809 -0.1843 -0.3290  0.0469
 9825W        W29359   8.192   1.228   4.522  0.1803  0.0490  0.1061
 9826W        W29360   4.114  10.393  15.325  0.2750  0.0144 -0.2931
 9827W        W29361  11.904  15.448   5.400  0.3887 -0.3285  0.2382
 9828W        W29362   3.372   0.107   1.519 -0.0082  0.0092  0.1314
 9829W        W29363   5.396   8.626  13.838 -0.0612 -0.1093 -0.2282
 9830W        W29364   6.123   8.854  15.575  0.0215 -0.2991 -0.0459
 9831W        W29365   9.329   2.094   0.956 -0.0207 -0.1881 -0.2004
 9832W        W29366   9.894   3.000  14.591  0.1694 -0.2830 -0.0364
 9833W        W29367  15.819   0.096   3.859  0.3059 -0.1102 -0.3590
 9834W        W29368  15.260  14.108   2.290  0.0084 -0.2505 -0.0696
 9835W        W29369  15.960   1.097   1.662  0.2153 -0.1702  0.0184
 9836W        W29370  15.139  14.814   0.421 -0.1442  0.0360 -0.0795
 9837W        W29371   1.908  16.204   3.893  0.1621  0.1972 -0.4788
 9838W        W29372   7.122   6.782   5.299 -0.3596 -0.2743 -0.0282
 9839W        W29373   3.164   2.945  17.274 -0.0013 -0.1580 -0.1956
 9840W        W29374   0.009   9.564  16.411 -0.0514 -0.1540 -0.2323
 9841W        W29375  11.025   6.180  15.376  0.1759 -0.1907  0.0179
 9842W        W29376  10.532   5.204   3.243  0.1275  0.0047  0.0673
 9843W        W29377   2.635  13.359  16.962 -0.0887  0.0148 -0.1772
 9844W        W29378   6.134   3.640   2.817  0.2009 -0.1553 -0.1058
 9845W        W29379  16.942   0.419  12.628 -0.0411 -0.1301  0.1922
 9846W        W29380  16.939   7.463   4.503 -0.1604  0.0853 -0.3707
 9847W        W29381   7.181   4.741  13.692  0.0758 -0.0999 -0.0616
 9848W        W29382   3.531  10.109   1.992 -0.0386  0.2034  0.1052
 9849W        W29383   4.405   0.979  16.960  0.2383  0.1202  0.2580
 9850W        W29384   3.839  12.766  12.448 -0.1280  0.1714  0.0533
 9851W        W29385  15.217   5.383  13.339  0.0033  0.0237 -0.2141
 9852W        W29386   9.803   3.924   3.107 -0.0522  0.2211 -0.3766
 9853W        W29387   3.652  13.928  13.580  0.2184 -0.0133 -0.1877
 9854W        W29388   2.904  15.859  13.264  0.1604 -0.0657 -0.0123
 9855W        W29389   4.787   8.042  16.096 -0.0431  0.3796  0.1698
 9856W        W29390   1.686   1.195  16.824 -0.0682 -0.2003  0.0822
 9857W        W29391   0.100  10.590  12.278 -0.2275 -0.1546  0.0848
 9858W        W29392   6.154  11.626   5.092 -0.2459  0.1254  0.2466
 9859W        W29393  17.329  14.024   2.015 -0.2715  0.1138  0.2234
 9860W        W29394  15.564   4.664  16.202  0.0191 -0.0427  0.0843
 9861W        W29395  16.138   5.296  15.574  0.0591 -0.2074  0.2007
 9862W        W29396   6.548  14.104  13.540 -0.2025 -0.1747  0.0177
 9863W        W29397   9.326   1.115  12.276 -0.3845  0.0745 -0.3012
 9864W        W29398  14.844   4.064   3.442  0.1449  0.1097 -0.1225
 9865W        W29399   7.195   7.560  17.238  0.0745 -0.1158  0.4938
 9866W        W29400   1.554  16.950  13.435 -0.1979 -0.0153 -0.0655
 9867W        W29401  12.761   3.890   0.109 -0.0789 -0.2248 -0.0930
 9868W        W29402  17.226   2.869  15.509 -0.2938  0.0269  0.0847
 9869W        W29403   6.452  10.441   0.809  0.2336  0.1332  0.4310
 9870W        W29404  16.056   7.477  15.342 -0.0943  0.1861  0.0848
 9871W        W29405  13.330   0.464   1.306  0.0681  0.1483  0.0265
 9872W        W29406  13.135   9.830  13.212 -0.1400  0.0343 -0.1132
 9873W        W29407  10.859  17.218  16.079 -0.0648  0.1676 -0.0032
 9874W        W29408   5.406   8.269  15.853  0.0881  0.0369 -0.1512
 9875W        W29409   4.097  16.772  12.324 -0.1312  0.0581  0.2758
 9876W        W29410  12.685  10.964  12.352 -0.0052  0.1335 -0.0645
 9877W        W29411   6.485  16.740  12.915  0.1101 -0.3127 -0.2018
 9878W        W29412  11.238   4.243  13.240  0.0079  0.0287 -0.0486
 9879W        W29413  11.993   4.563  17.106  0.0864  0.1155 -0.1488
 9880W        W29414  17.403   8.272  15.332  0.1265 -0.1412 -0.0427
 9881W        W29415   7.176  15.896   1.588 -0.0268 -0.0752  0.0585
 9882W        W29416  12.589   9.132   3.808  0.2310  0.0891 -0.2452
 9883W        W29417   8.352  17.471   1.955  0.1907  0.2979  0.1479
 9884W        W29418   0.287   7.758  16.556  0.2275 -0.2860  0.2567
 9885W        W29419  13.212  14.225   2.405  0.2009  0.1451  0.0950
 9886W        W29420   6.274  10.174  17.119 -0.0072  0.0403 -0.2958
 9887W        W29421   5.751   0.027   4.061 -0.1186  0.0983  0.1710
 9888W        W29422  10.132  15.848   4.397 -0.1725 -0.1284  0.0875
 9889W        W29423   7.903  16.404   1.122 -0.2178  0.3720  0.0453
 9890W        W29424   3.583  15.432   1.582 -0.1510 -0.1149  0.1500
 9891W        W29425   2.899   2.518  13.833 -0.3719  0.0205 -0.2604
 9892W        W29426  14.446   0.829   3.654  0.0255 -0.0478  0.2153
 9893W        W29427   2.839  10.444  16.960 -0.0677 -0.0866 -0.1353
 9894W        W29428   6.728   1.202  16.982  0.1355 -0.4031  0.0003
 9895W        W29429  12.210   7.074   1.987 -0.0224  0.1580 -0.1978
 9896W        W29430  10.256  12.914  14.241 -0.1404 -0.1968  0.1115
 9897W        W29431   4.165   1.166   4.126  0.2187 -0.0315  0.3324
 9898W        W29432   6.948   8.464  16.739  0.0940 -0.2563 -0.0889
 9899W        W29433   0.490   3.605   1.096  0.0283 -0.2638  0.0536
 9900W        W29434  15.934  10.429   4.260 -0.0215 -0.1485 -0.0211
 9901W        W29435  11.597  15.722  16.783  0.0060  0.1435 -0.2594
 9902W        W29436  10.842  12.812   0.940 -0.2355 -0.0573 -0.0822
 9903W        W29437   2.385   7.814   3.579  0.0801  0.0868 -0.1535
 9904W        W29438  16.702   7.174   0.346 -0.0848  0.1233 -0.1003
 9905W        W29439  11.969   4.131   2.731  0.0533  0.0089 -0.0140
 9906W        W29440   0.381   6.764   3.317  0.0035 -0.0944 -0.0631
 9907W        W29441  17.066  14.497   1.983 -0.2987 -0.0303 -0.1869
 9908W        W29442   4.845   0.365  14.398  0.1871 -0.3081 -0.2390
 9909W        W29443  12.105   4.100  15.318 -0.3791  0.5216 -0.0162
 9910W        W29444  10.571   2.206   5.217 -0.3013  0.2362 -0.2150
 9911W        W29445  12.070   3.258  16.372  0.1373 -0.4376  0.0358
 9912W        W29446   8.430   5.770   4.998  0.0259 -0.0399  0.3479
 9913W        W29447  14.549   3.483  16.444 -0.0167  0.2240  0.0313
 9914W        W29448  13.748  10.917   1.274 -0.1824  0.2975  0.2910
 9915W        W29449  10.147  12.898  13.392  0.4881  0.4584  0.1579
 9916W        W29450   2.247  15.202  16.240 -0.1610 -0.3313  0.2094
 9917W        W29451   7.138   0.941  17.193 -0.1465  0.0922  0.0463
 9918W        W29452  13.912   9.829  16.663  0.1902 -0.0813 -0.3861
 9919W        W29453   2.041  15.529  13.799  0.2605 -0.0526  0.2096
 9920W        W29454   6.760  14.207   4.185  0.2161  0.1385  0.0202
 9921W        W29455  13.970   1.344  15.120  0.2245  0.2061 -0.3539
 9922W        W29456  11.808   1.894   5.058 -0.1622  0.2596  0.0963
 9923W        W29457   7.513  16.138  14.559  0.1486  0.0952  0.1862
 9924W        W29458   2.375  10.011   3.417 -0.2035 -0.0030  0.3215
 9925W        W29459   5.102  11.415   3.035  0.1519 -0.1567 -0.2170
 9926W        W29460   4.851   0.497  13.756  0.0061  0.1003 -0.0806
 9927W        W29461   4.285   9.312   1.056  0.0129  0.1474 -0.1820
 9928W        W29462  12.281   1.784  16.080  0.0355  0.1962 -0.0837
 9929W        W29463   3.261  15.947  13.606 -0.1132 -0.2415 -0.1404
 9930W        W29464  10.804   0.515  16.673  0.0166  0.0260  0.2670
 9931W        W29465   6.659  12.872  15.085  0.3533  0.0637 -0.1547
 9932W        W29466  13.920   3.460  13.603  0.0718  0.0706  0.2196
 9933W        W29467  14.163   1.941   1.296 -0.1074 -0.1754 -0.1297
 9934W        W29468  11.506  14.748  13.883 -0.1029  0.3803 -0.1285
 9935W        W29469   1.940  16.413  12.982  0.1312  0.0467 -0.1172
 9936W        W29470  17.138  10.809  17.262 -0.0699 -0.1315 -0.1713
 9937W        W29471  17.082   9.843   2.727  0.0232  0.1424 -0.3090
 9938W        W29472   7.762  14.511   1.961  0.0686 -0.0541  0.0240
 9939W        W29473   4.217  16.202   4.077 -0.1658  0.2307  0.1743
 9940W        W29474   8.116  14.540  12.359  0.1672 -0.1306 -0.2331
 9941W        W29475  16.334   0.847  13.310 -0.3177 -0.0097  0.0618
 9942W        W29476  16.483   3.026   2.419 -0.0101 -0.0460  0.0546
 9943W        W29477   4.364   1.831  16.981 -0.1260 -0.0821 -0.0291
 9944W        W29478   4.200   8.092  12.917  0.2797 -0.1906 -0.0959
 9945W        W29479  15.869   6.399  16.191  0.0797 -0.1798  0.3323
 9946W        W29480   2.416  15.536   1.963  0.0457  0.0929  0.0321
 9947W        W29481   2.827   0.034   1.464 -0.0782 -0.0745 -0.0992
 9948W        W29482   6.205   0.435   1.665 -0.1582 -0.0104 -0.0260
 9949W        W29483  11.062  16.381   3.242  0.2601  0.0230 -0.3773
 9950W        W29484  10.914   5.047  13.784 -0.3082 -0.1619  0.1317
 9951W        W29485   7.573   3.017   1.030 -0.0919  0.1298  0.0070
 9952W        W29486   3.430   6.752   3.366 -0.4185 -0.0616  0.2351
 9953W        W29487   2.759   5.619   0.759  0.0344  0.2188 -0.0324
 9954W        W29488   7.309   8.972  14.789  0.0016  0.2194 -0.2952
 9955W        W29489   8.056   1.569  16.572  0.0428  0.3889  0.1248
 9956W        W29490  10.069  12.371   1.437 -0.0092 -0.0555  0.1072
 9957W        W29491   0.713   4.649   4.951  0.0458  0.2159  0.0141
 9958W        W29492   4.463  16.844   1.759 -0.3140  0.0773 -0.0487
 9959W        W29493   5.096  14.087   0.665 -0.2161 -0.1732 -0.1777
 9960W        W29494  16.454  10.617   0.499  0.1735  0.3480 -0.4786
 9961W        W29495   2.291   6.664   0.658  0.0737 -0.1568 -0.1750
 9962W        W29496   7.011   5.788  14.894  0.0131  0.0346  0.1332
 9963W        W29497  12.086   3.515  12.814  0.2205  0.0828  0.2482
 9964W        W29498   4.272   3.936   1.389 -0.0322  0.1398  0.0650
 9965W        W29499  13.411   9.156   4.887 -0.2516 -0.1589  0.0138
 9966W        W29500  13.912  15.994   4.781  0.1093  0.3649  0.3603
 9967W        W29501  16.502   3.870   2.009 -0.3325 -0.1169  0.1105
 9968W        W29502  13.374  13.453   2.896 -0.0073  0.3068 -0.3200
 9969W        W29503  16.374  16.774   0.286  0.0190  0.2205 -0.0073
 9970W        W29504  11.760  16.290   0.614  0.5698  0.3512 -0.0070
 9971W        W29505   5.608  12.404  15.859  0.1218  0.2255 -0.3854
 9972W        W29506   5.188   3.223  14.740 -0.2400  0.1988 -0.0339
 9973W        W29507  11.625  11.816  13.709  0.2880  0.0569 -0.0095
 9974W        W29508   8.045   6.659  11.997 -0.0237  0.1807 -0.1787
 9975W        W29509   2.938   8.746  16.781  0.0236 -0.0647 -0.1233
 9976W        W29510  17.214   8.670   5.055  0.1664 -0.1904 -0.1937
 9977W        W29511   8.218  11.929  12.891 -0.2565 -0.0135  0.2303
 9978W        W29512   1.942  11.313  14.527 -0.0760  0.0688  0.0018
 9979W        W29513   1.048   8.047  14.361  0.2008 -0.1328 -0.1045
 9980W        W29514  14.182  16.461  14.577 -0.0516 -0.2059  0.2725
 9981W        W29515  13.263   8.218   4.730  0.2007  0.0130 -0.2101
 9982W        W29516   2.632  15.508   1.071  0.0295 -0.1207  0.0172
 9983W        W29517   1.144  13.512   0.047 -0.0973 -0.0355 -0.0365
 9984W        W29518  11.370   3.758  13.490 -0.1907 -0.2547  0.0910
 9985W        W29519   6.189   0.016   0.058  0.2424 -0.1476 -0.2570
 9986W        W29520  11.811   3.294  15.771  0.0958  0.0171 -0.0450
 9987W        W29521   2.582  16.969   3.389  0.1561  0.0552  0.0758
 9988W        W29522  17.011   3.608   2.671  0.1959 -0.1977 -0.2403
 9989W        W29523   7.684   6.156  12.528  0.1308 -0.0003 -0.2717
 9990W        W29524   7.587   2.002   2.058 -0.0282  0.1356 -0.1236
 9991W        W29525  13.553  14.524   3.848  0.0767 -0.0226  0.0343
 9992W        W29526  15.805   6.661   2.017  0.2879 -0.0598  0.3251
 9993W        W29527   7.143   0.245   0.074  0.2512 -0.2166 -0.0900
 9994W        W29528  10.016   9.817  13.330  0.1640  0.1023 -0.1327
 9995W        W29529  10.857   2.594   3.882  0.2243 -0.0852  0.2187
 9996W        W29530   1.685   7.757  13.224  0.1561  0.0801 -0.2961
 9997W        W29531   3.103   2.182  12.432 -0.0800  0.0685 -0.0499
 9998W        W29532   7.094   3.964   3.720  0.1788 -0.3634 -0.0091
 9999W        W29533   0.003  16.211  13.079 -0.1574  0.1957 -0.2331
10000W        W29534  16.501  13.256  16.174 -0.1550 -0.2615  0.2116
10001W        W29535   6.197   7.666  13.738  0.1904  0.1862  0.2364
10002W        W29536   8.829  16.465   4.871  0.0176 -0.0407 -0.1781
10003W        W29537  14.407  13.467   3.642  0.2477  0.0081  0.1952
10004W        W29538   4.263   7.306  16.326  0.1194 -0.1951  0.1305
10005W        W29539  11.889  10.178  13.622  0.3339  0.1588  0.1677
10006W        W29540   6.031  10.655  17.231  0.1054  0.1989  0.2409
10007W        W29541   9.081   9.320   4.745 -0.2682  0.0161 -0.0370
10008W        W29542   2.979   4.386  16.756  0.0003  0.2090 -0.0459
10009W        W29543  16.784  11.974  12.069 -0.0561  0.2380  0.2915
10010W        W29544   2.955   9.061   0.747 -0.0866  0.3117  0.3101
10011W        W29545   5.986  14.510  14.462  0.1080 -0.1827 -0.0679
10012W        W29546   7.850  10.120   3.433 -0.2525 -0.1415 -0.1445
10013W        W29547  16.850   8.527   4.710 -0.3513 -0.1134  0.1409
10014W        W29548   4.294   8.940   2.004 -0.2798 -0.0627 -0.3910
10015W        W29549   4.214   0.058   3.753 -0.1494 -0.1684  0.0420
10016W        W29550  14.797   7.573   1.910  0.1493 -0.0461 -0.0248
10017W        W29551   2.396   8.176  12.727  0.0575  0.0297 -0.0865
10018W        W29552  12.719   6.739   2.956 -0.1984  0.0140  0.1902
10019W        W29553  14.139  10.828  16.667  0.0617  0.2779 -0.0244
10020W        W29554   7.011   2.575   0.318  0.0909 -0.1840 -0.0628
10021W        W29555  10.637   4.650  15.603 -0.2102  0.1973 -0.0926
10022W        W29556   1.515   7.315  12.964  0.0226 -0.2351  0.0369
10023W        W29557   5.472  17.032   1.338  0.0206  0.3159 -0.1670
10024W        W29558   2.005  11.276   1.548  0.1093  0.2917  0.1643
10025W        W29559   1.815  17.362  12.026 -0.1810  0.0860 -0.1010
10026W        W29560  17.325  14.803   2.279  0.0807 -0.0254  0.0838
10027W        W29561   5.478  13.232  13.962 -0.0641 -0.2249 -0.1310
10028W        W29562   6.961   2.766  12.762 -0.1346  0.2600  0.1373
10029W        W29563  15.411  10.371   1.196 -0.3208  0.1864 -0.0010
10030W        W29564  15.292  12.669  12.344 -0.1477  0.0268  0.2848
10031W        W29565   9.064   6.579  16.821  0.0292  0.2489  0.1313
10032W        W29566   7.912   6.951  12.891  0.1888 -0.1244 -0.1384
10033W        W29567   9.736   8.899   4.143  0.0415 -0.1477  0.2110
10034W        W29568   3.262   4.267  17.194  0.2393  0.1144 -0.0836
10035W        W29569  15.617   9.429  16.688 -0.0591  0.0520  0.1870
10036W        W29570  14.444  11.162  14.968 -0.1883 -0.0653  0.2454
10037W        W29571   9.134  10.838   2.916 -0.1299 -0.2290  0.2811
10038W        W29572  10.120   9.799   0.580 -0.1734  0.0452  0.1906
10039W        W29573   8.337  13.860   2.598 -0.2488  0.1218 -0.0235
10040W        W29574  11.110  12.734  17.245  0.0215  0.2105 -0.0290
10041W        W29575   7.957   8.729  13.882 -0.0953 -0.0252 -0.3026
10042W        W29576  16.001   8.928   2.476 -0.0967  0.0398 -0.0827
10043W        W29577   6.947  13.571  16.913 -0.0833 -0.4097  0.0675
10044W        W29578  12.751  12.100   4.040  0.0235  0.0774  0.0260
10045W        W29579  15.991   6.661  16.672 -0.1607  0.1232 -0.0608
10046W        W29580   4.948   3.282  15.198 -0.1220 -0.3009 -0.0115
10047W        W29581   3.758  14.793  15.690  0.2377  0.1945 -0.0449
10048W        W29582   2.204  13.601   2.049  0.2889 -0.0795 -0.3202
10049W        W29583  15.609  11.116  16.297  0.0949  0.2925  0.3781
10050W        W29584  12.174   6.571   0.001  0.2706 -0.0149  0.1652
10051W        W29585  12.942   7.342  15.419  0.0340 -0.0217 -0.0325
10052W        W29586   7.306   0.487  16.239  0.2261  0.0040  0.2379
10053W        W29587  10.943   5.404  15.816  0.1555 -0.3252 -0.0192
10054W        W29588   4.710  13.836  16.665  0.4525 -0.0026 -0.2211
10055W        W29589   9.980   5.568   4.564 -0.1710  0.1791 -0.0633
10056W        W29590   8.192   1.202   1.123 -0.1545  0.0846  0.3402
10057W        W29591   6.699   1.488  15.735  0.1023  0.0184  0.0979
10058W        W29592  15.060  14.737   1.449  0.1526 -0.1911  0.2780
10059W        W29593   1.952  13.201   1.871 -0.2498  0.0216  0.1647
10060W        W29594  13.583   7.652   1.312  0.0476  0.0208 -0.0577
10061W        W29595  16.363  13.244   3.515  0.1981 -0.0256 -0.0062
10062W        W29596  11.848  15.791   3.098 -0.2433  0.0655 -0.0726
10063W        W29597  10.010   2.578  16.342 -0.1115 -0.0971  0.0332
10064W        W29598  15.279   6.941  13.059 -0.0431  0.0015  0.1820
10065W        W29599  13.705   6.034   5.094  0.1537  0.1922 -0.0814
10066W        W29600  14.675   6.280  15.722 -0.0135  0.1497  0.1542
10067W        W29601   9.158   6.664   2.573  0.1725 -0.2604 -0.0580
10068W        W29602  10.255   2.506   1.856  0.0568  0.0650  0.0334
10069W        W29603   3.544   7.054   0.864 -0.2092 -0.0992  0.0618
10070W        W29604  15.495   0.803   4.841 -0.2998 -0.0803  0.0457
10071W        W29605   6.318  16.311  15.689  0.1571  0.0612  0.1052
10072W        W29606  14.755   1.764   2.375  0.0508 -0.1247 -0.0978
10073W        W29607   4.988  16.021   2.123 -0.2948 -0.0044  0.1581
10074W        W29608  12.233   1.026   4.784  0.0134  0.0657 -0.2033
10075W        W29609  11.691  16.967   0.717  0.0674  0.0435  0.3040
10076W        W29610  13.747  14.902   2.947  0.2171 -0.2985 -0.0642
10077W        W29611  13.825   1.999   0.334 -0.1350 -0.0924 -0.3255
10078W        W29612   7.335   8.217   2.903 -0.2250 -0.1096  0.0033
10079W        W29613  16.132  14.721   0.474  0.1180 -0.1292  0.0370
10080W        W29614   5.059   2.235   2.157 -0.2629 -0.1524 -0.3261
10081W        W29615  13.782   5.465   0.447  0.1065  0.0657  0.0846
10082W        W29616   0.221   4.304   3.746 -0.2751 -0.0080 -0.0972
10083W        W29617   3.798  14.080   1.548 -0.2218  0.1242 -0.0645
10084W        W29618   2.173   2.497  15.547  0.0574 -0.3336 -0.0527
10085W        W29619  16.469   8.332  16.517 -0.5807 -0.0981 -0.0827
10086W        W29620   1.273  13.753  15.750 -0.0783  0.0459 -0.0671
10087W        W29621   6.389   9.452   1.428  0.1489 -0.0780 -0.1400
10088W        W29622   3.431  13.725   3.170 -0.1398 -0.1965  0.0521
10089W        W29623   3.998   1.932  12.651 -0.1245  0.3759 -0.0015
10090W        W29624   2.101  14.803  13.992 -0.1501  0.1747  0.0804
10091W        W29625  17.470  11.428  13.547  0.1797  0.1719 -0.3993
10092W        W29626   1.937  12.790   3.335  0.1073 -0.1843  0.2478
10093W        W29627   6.432   6.479  15.665 -0.1861  0.2661 -0.1884
10094W        W29628   0.438   4.707  13.655  0.0056 -0.1050 -0.1967
10095W        W29629   7.801   2.967  13.398  0.0437  0.0342  0.1524
10096W        W29630   2.196   7.537   0.290 -0.0787  0.2860 -0.1859
10097W        W29631   2.169   1.721   2.028 -0.0661 -0.1304  0.1613
10098W        W29632   9.000   6.265   2.948 -0.0297  0.0281  0.3666
10099W        W29633  10.564  16.429  14.259 -0.1024 -0.1651  0.1727
10100W        W29634  17.137   5.418  12.573 -0.0402 -0.0152 -0.1760
10101W        W29635   0.596  11.915  14.067 -0.0109 -0.1592 -0.0912
10102W        W29636  10.943   5.253   1.311  0.1422  0.0868 -0.1445
10103W        W29637  15.070  13.515   3.358  0.0654  0.0459 -0.0197
10104W        W29638  12.633   2.680  14.823 -0.0946  0.2902 -0.1231
10105W        W29639   9.514  15.761   1.339  0.0453  0.0498  0.0938
10106W        W29640  12.193  11.275   0.196  0.1493 -0.1189  0.0965
10107W        W29641  15.950   0.266  16.715 -0.0246  0.0073  0.1592
10108W        W29642  16.020   6.962   1.169  0.0900 -0.3931  0.1834
10109W        W29643  14.859  16.771  13.670  0.0488 -0.1397 -0.0732
10110W        W29644   2.916   4.958   2.828  0.2071 -0.3969  0.1838
10111W        W29645   5.492   7.652  14.819 -0.0197  0.0565 -0.1288
10112W        W29646   4.673   3.973   0.424  0.1343 -0.2678 -0.4880
10113W        W29647   9.908  10.065   0.937  0.2603 -0.5217 -0.0877
10114W        W29648   6.347   5.433   3.672 -0.0121 -0.1447  0.1956
10115W        W29649   3.465  15.220  12.942  0.1099  0.3116 -0.3130
10116W        W29650   5.574  15.255  11.927 -0.2760  0.2069 -0.1163
10117W        W29651  14.282   5.151  15.020 -0.0620 -0.1494 -0.1881
10118W        W29652   8.182  15.226  13.080 -0.0943  0.0926 -0.0188
10119W        W29653   7.877   9.734   0.023 -0.0211 -0.0293 -0.0402
10120W        W29654   9.253   6.609  13.073  0.0394  0.1019  0.5154
10121W        W29655   5.137   9.612  14.125 -0.0197 -0.0902  0.1254
10122W        W29656   8.644   2.915   4.074  0.2733 -0.1418  0.0645
10123W        W29657  11.094  17.292   1.691 -0.1589 -0.1448  0.1157
10124W        W29658   5.662  14.753  13.594  0.0778  0.1903  0.0234
10125W        W29659  15.045   3.336  14.843 -0.1421  0.0468 -0.2991
10126W        W29660  14.048  12.339   2.359 -0.0921 -0.1222  0.1246
10127W        W29661   6.806   0.758   2.789 -0.0512  0.0859  0.1029
10128W        W29662   1.298   1.733   0.528 -0.5027 -0.1071 -0.1339
10129W        W29663   0.770   9.259   4.156  0.0124  0.2589 -0.1589
10130W        W29664  14.697   2.434  14.727  0.3469 -0.4206  0.1371
10131W        W29665   7.938   0.800   4.316 -0.2746  0.0689  0.0399
10132W        W29666  16.334   1.256  16.920 -0.2504 -0.0769  0.0868
10133W        W29667  15.041  17.434   2.812  0.1038 -0.0667 -0.0361
10134W        W29668   3.854   7.429   2.214 -0.2295 -0.1927  0.1373
10135W        W29669  13.577   4.707  13.730  0.0631 -0.2221 -0.2535
10136W        W29670   1.162   9.119  16.536  0.0473  0.1943  0.0880
10137W        W29671   5.010   0.613   3.639 -0.1535 -0.0533 -0.3191
10138W        W29672   9.896  17.235   4.639  0.0832 -0.0506 -0.1247
10139W        W29673   7.236  12.690   2.198  0.0469 -0.0901 -0.0531
10140W        W29674   5.042   1.605  14.513  0.0009  0.0772  0.2205
10141W        W29675   2.089   3.924   0.619 -0.0726  0.2092 -0.0263
10142W        W29676  11.294  12.027  14.550 -0.1071 -0.0035  0.1896
10143W        W29677   0.634  16.715   3.662 -0.2478 -0.1284  0.3386
10144W        W29678   2.385   6.769   2.436  0.0761 -0.0492  0.1949
10145W        W29679  10.297   9.152  15.784 -0.0791 -0.4982 -0.0559
10146W        W29680   1.375  11.487   3.518 -0.0324  0.2838  0.0180
10147W        W29681   0.738  14.871  12.983 -0.1462 -0.2485  0.2573
10148W        W29682  13.238  15.631  16.681 -0.1039 -0.2332  0.0066
10149W        W29683   7.944  11.028  13.153  0.0508  0.0648  0.3290
10150W        W29684   4.198   8.919  15.949 -0.0538  0.1200  0.0088
10151W        W29685   0.376   0.358   3.653  0.0916 -0.3143  0.5145
10152W        W29686  10.207   5.825   2.222  0.1918  0.2145  0.1000
10153W        W29687   9.853   7.884  15.497 -0.2805  0.0474 -0.2716
10154W        W29688  15.455  14.078   4.456  0.1443 -0.1611  0.2100
10155W        W29689   2.131   2.099   1.236  0.1744 -0.1175  0.1951
10156W        W29690  13.114   5.093  13.628 -0.2044 -0.0313  0.1775
10157W        W29691   6.151  16.741   4.945  0.2360 -0.1370  0.1379
10158W        W29692   1.186   7.158   0.987 -0.0291 -0.2814 -0.0559
10159W        W29693   5.751   7.920   2.073 -0.0029  0.2193  0.0025
10160W        W29694  12.833  15.700   3.890 -0.1596 -0.4383 -0.2891
10161W        W29695  14.844  15.494   2.868 -0.0538 -0.0701  0.3136
10162W        W29696   8.503   3.052   3.204 -0.0176  0.0278 -0.2541
10163W        W29697  11.707  13.762  13.781 -0.1627 -0.1403  0.4457
10164W        W29698  12.869  13.011   2.543 -0.0945  0.0135  0.2808
10165W        W29699   7.345  12.546   1.321  0.1274 -0.3338 -0.1510
10166W        W29700  16.305  10.792   4.952  0.0380 -0.1324 -0.0045
10167W        W29701  14.468   0.264   1.786 -0.0489  0.2788 -0.0319
10168W        W29702  17.288   6.732  12.997  0.1937  0.2277 -0.0364
10169W        W29703   7.881   0.017  14.717 -0.3509  0.1536  0.0203
10170W        W29704  15.603  10.526   3.873 -0.1191  0.1351 -0.1007
10171W        W29705   9.075  17.179  13.788  0.1624  0.1284  0.1013
10172W        W29706   2.863   5.974  12.816  0.3397  0.0693  0.2209
10173W        W29707   6.793  17.151   1.563  0.1443 -0.1123  0.0670
10174W        W29708   7.251   5.185  14.561  0.0509  0.0591 -0.0549
10175W        W29709   2.718   5.710   4.894 -0.0711  0.1148 -0.0594
10176W        W29710  13.106  16.162   3.953  0.0318 -0.1518  0.0280
10177W        W29711  17.174  13.660  12.752 -0.1563 -0.2185 -0.1884
10178W        W29712  12.470   5.103   0.785 -0.0195  0.0120 -0.1276
10179W        W29713  11.266  17.195  12.628 -0.0921 -0.1511  0.1120
10180W        W29714  12.250   9.142  14.679 -0.0656  0.3446 -0.0875
10181W        W29715  13.674   3.651  16.988  0.0787  0.0715 -0.0283
10182W        W29716   0.042   8.593   0.712 -0.0289  0.0412  0.0031
10183W        W29717  15.825   4.517  16.607 -0.1464 -0.2468  0.3638
10184W        W29718   5.129   4.491   4.204 -0.2708  0.0038  0.1128
10185W        W29719   7.968  16.671   0.216  0.0763  0.0507 -0.1685
10186W        W29720   6.524  11.369  13.037 -0.1635  0.0185  0.0364
10187W        W29721   3.104   3.567  12.565  0.0284  0.3518  0.2899
10188W        W29722  14.102   3.987   2.754 -0.1516  0.1593  0.3982
10189W        W29723  15.792   5.199   3.163  0.0485  0.1717  0.0477
10190W        W29724  10.775   7.222   3.440  0.0503 -0.1487  0.1943
10191W        W29725   3.247  13.248   3.217  0.2133  0.4178  0.2492
10192W        W29726   4.962  16.820   3.687 -0.1529  0.1011  0.1071
10193W        W29727  13.777  15.216   1.984 -0.0368  0.0887 -0.3820
10194W        W29728   1.687   2.898  15.640 -0.2486 -0.1186 -0.0223
10195W        W29729   9.555   9.702  16.665  0.0917  0.1014  0.2013
10196W        W29730  16.116   2.921  16.838  0.0800  0.2417  0.0254
10197W        W29731   1.948  12.232   1.536  0.1663  0.1187  0.2539
10198W        W29732  17.101   7.967  15.980 -0.2510  0.1842 -0.1086
10199W        W29733   0.167   1.166  14.671  0.0561 -0.2316  0.0018
10200W        W29734  10.744  17.130  15.369 -0.2715 -0.1822 -0.1862
10201W        W29735   5.468  16.247  15.061  0.0997 -0.1158  0.3941
10202W        W29736   7.165  10.636   5.256 -0.0955 -0.1792  0.0725
10203W        W29737   6.317   1.298   1.252 -0.2159 -0.0366 -0.1553
10204W        W29738   1.022  11.277  14.687 -0.3289  0.0210 -0.1783
10205W        W29739  12.408  15.388  14.604 -0.1755 -0.1284  0.0833
10206W        W29740  11.159   7.947   2.100  0.0693  0.1581  0.0208
10207W        W29741  12.383   2.884   0.999 -0.0793  0.0312  0.0552
10208W        W29742  11.244   6.437   0.180  0.1479 -0.2494 -0.0492
10209W        W29743  10.396  15.157  15.196 -0.0043 -0.3230  0.0234
10210W        W29744   4.365   4.037  12.059 -0.2636  0.1103 -0.1563
10211W        W29745  11.044   9.203  13.782  0.1448  0.0309 -0.3346
10212W        W29746   7.005   1.572  12.866 -0.0672  0.4734  0.1832
10213W        W29747  16.701   6.818  15.896  0.2250 -0.0806 -0.0662
10214W        W29748   3.113  13.446   2.124  0.1950  0.0288 -0.4376
10215W        W29749   6.711   2.245   0.645 -0.1270  0.0078  0.0158
10216W        W29750   5.341   7.821  14.283 -0.0324 -0.0188  0.1227
10217W        W29751   8.279   1.143  16.837 -0.1382  0.0915  0.2174
10218W        W29752  10.632   0.747   1.151  0.0372  0.2265 -0.1368
10219W        W29753  16.685  12.661  15.868  0.1137 -0.1046  0.1131
10220W        W29754   1.793  15.938  13.168 -0.1245  0.0185  0.0412
10221W        W29755  11.068  13.549  14.388  0.0127 -0.0328 -0.1346
10222W        W29756   0.106  14.412  16.923 -0.1780 -0.1765  0.0466
10223W        W29757  17.042   7.688  14.600 -0.1411 -0.0300 -0.1071
10224W        W29758   6.799   9.996   4.798  0.0071 -0.0672  0.0312
10225W        W29759   2.368   6.416   1.239 -0.0896 -0.0130 -0.1368
10226W        W29760   5.228   1.471   1.252  0.0368  0.1504  0.0300
10227W        W29761   3.147   0.010  15.252 -0.1488 -0.2897 -0.2984
10228W        W29762   1.028  17.465  14.724  0.0281  0.2597  0.0026
10229W        W29763   4.772  12.993   3.991  0.3398  0.3323  0.0993
10230W        W29764   5.845   9.618   1.732 -0.0885  0.0161 -0.0414
10231W        W29765  11.007   3.020   4.199  0.1399  0.1167 -0.4307
10232W        W29766   4.577   7.260   0.909  0.2912 -0.0328  0.5538
10233W        W29767  17.033   9.099  16.302 -0.0136  0.0357 -0.0281
10234W        W29768   5.205   8.324  14.231  0.2240  0.0361  0.0854
10235W        W29769  17.098  11.185  16.418  0.0993 -0.1162 -0.3656
10236W        W29770  13.000   9.899  16.324 -0.0434  0.0024 -0.1129
10237W        W29771  17.463   0.296  15.095  0.0924  0.1335 -0.0017
10238W        W29772  13.066  12.950   5.271 -0.1770 -0.0808  0.1543
10239W        W29773  15.899  15.569  14.878 -0.1837 -0.6670 -0.1270
10240W        W29774  10.421  12.037   1.730 -0.0120 -0.0196 -0.1657
10241W        W29775   4.180  12.973   0.196 -0.1250  0.1227 -0.0729
10242W        W29776  10.195   8.987   4.973  0.2208  0.0732 -0.0926
10243W        W29777   5.420  16.072  13.730 -0.0192  0.3113 -0.0430
10244W        W29778  12.232   1.145   1.566 -0.0501 -0.0806 -0.2156
10245W        W29779  10.070   4.236   2.840 -0.2164  0.2026 -0.0753
10246W        W29780  15.414   5.939   2.344  0.1432  0.0640  0.0278
10247W        W29781   7.681   1.502  12.363 -0.0016  0.0155  0.0996
10248W        W29782  11.850   9.685   4.545  0.2523  0.4751 -0.2443
10249W        W29783  15.535   4.207   4.226 -0.0476 -0.0968  0.0789
10250W        W29784  11.412   5.328  14.194 -0.2232 -0.0002  0.0321
10251W        W29785   8.418  15.783   1.401  0.1174  0.2026  0.1240
10252W        W29786   8.212   4.884  17.007  0.2148  0.4301  0.1006
10253W        W29787   1.149   3.286   4.858 -0.0131  0.0909 -0.0059
10254W        W29788  16.420  16.538  13.825  0.0918  0.1270  0.2148
10255W        W29789   1.038  10.808   2.822  0.1024 -0.0058 -0.1148
10256W        W29790  10.615  17.042   1.513  0.3864 -0.0873  0.0954
10257W        W29791   1.286   3.787  16.388  0.1160  0.2315 -0.0037
10258W        W29792  13.205   5.489  16.910 -0.1931  0.0853 -0.1302
10259W        W29793  15.944  12.918   3.494  0.1352  0.0529 -0.1218
10260W        W29794   8.264   3.473   1.665  0.1639 -0.0126 -0.0700
10261W        W29795   6.458  14.420   0.660  0.0044  0.0014  0.1759
10262W        W29796   2.959  16.242  15.772  0.1602 -0.0321  0.1415
10263W        W29797   9.916  15.656  16.710 -0.1072 -0.1152 -0.0376
10264W        W29798   8.379   5.185  14.660 -0.3360 -0.1134  0.3587
10265W        W29799  13.802   4.611   1.536 -0.1128 -0.1143  0.2848
10266W        W29800  11.487   2.895  13.060 -0.0033 -0.1129  0.2078
10267W        W29801   1.599  11.301   6.249 -0.3332  0.0894  0.2223
10268W        W29802   7.731   4.172   1.364  0.1528  0.0024  0.1493
10269W        W29803   2.036   7.789   4.817  0.0996  0.4246 -0.0932
10270W        W29804   2.730   3.097  14.778 -0.0660 -0.0909 -0.0915
10271W        W29805   5.083   2.579   0.813  0.2625  0.0222 -0.3068
10272W        W29806  14.023  15.500   3.493 -0.1628  0.0355 -0.2467
10273W        W29807  12.823   0.334   3.229 -0.0345  0.3085 -0.2069
10274W        W29808   3.543  11.764  12.490  0.0337  0.2986  0.1552
10275W        W29809  15.221  16.286  12.352 -0.0029  0.0713 -0.3045
10276W        W29810   9.595   5.717   0.034 -0.0832  0.1390  0.2758
10277W        W29811   8.741  15.078   4.223  0.0215 -0.1346  0.0122
10278W        W29812  12.235   3.341  13.243  0.0590  0.1607 -0.2366
10279W        W29813  11.162   0.687  13.534 -0.0403 -0.1231  0.0936
10280W        W29814  13.789  11.111  15.018 -0.1207  0.1261  0.1724
10281W        W29815  11.624  16.463  13.371  0.1098  0.1323  0.1471
10282W        W29816   1.501   9.727  17.215  0.1751 -0.0893 -0.2078
10283W        W29817   3.540   5.841   0.389  0.1199  0.0461 -0.0191
10284W        W29818   1.744  11.121   3.472 -0.4059 -0.5417 -0.1449
10285W        W29819   8.065  13.957  13.963  0.0757 -0.1175 -0.2283
10286W        W29820  17.372  13.157   1.502  0.2875  0.0509  0.0008
10287W        W29821   6.343  13.442   2.910 -0.1320  0.1057 -0.1206
10288W        W29822  17.041  16.514  14.751 -0.2620  0.3092  0.2905
10289W        W29823  10.100  16.266  12.473  0.0805 -0.0091 -0.3340
10290W        W29824   6.037   2.226   0.023  0.1073  0.2118  0.3736
10291W        W29825   9.847   1.804  12.492  0.0325 -0.1574 -0.2336
10292W        W29826   1.897  14.215  14.879  0.0907  0.0551 -0.3168
10293W        W29827   9.603   0.496  15.966 -0.2569 -0.3132 -0.0749
10294W        W29828   7.541   6.508   0.984 -0.0465  0.0468 -0.0174
10295W        W29829   5.768  11.294   5.099  0.2313 -0.1636 -0.1664
10296W        W29830   3.936   8.095  15.484 -0.1066 -0.1563 -0.0360
10297W        W29831  14.691   8.177  12.373  0.0896  0.1704  0.3023
10298W        W29832  13.753   5.509  16.158  0.0341 -0.0052 -0.2751
10299W        W29833   4.054  17.005  16.170  0.0699  0.0137  0.0393
10300W        W29834   7.339   0.462   0.613  0.0139  0.2409  0.0441
10301W        W29835   5.007  12.551  12.181 -0.1542 -0.0221 -0.1598
10302W        W29836  14.663  12.830  13.331 -0.1687 -0.0017 -0.0260
10303W        W29837  16.261   6.076   2.408 -0.2063 -0.0069 -0.0600
10304W        W29838   1.172  14.093   1.667  0.0120  0.1360  0.2680
10305W        W29839  10.676  15.313  13.125  0.2349  0.1868 -0.1714
10306W        W29840  13.907  15.868  13.962 -0.1856 -0.0347  0.0681
10307W        W29841  13.363  13.729  14.216 -0.0366 -0.1512  0.2664
10308W        W29842   9.046  16.707  14.080  0.2154 -0.0436 -0.0703
10309W        W29843   0.950   5.744   2.596  0.2208  0.0942 -0.1201
10310W        W29844  15.136  12.895  14.514 -0.1980 -0.2479 -0.2422
10311W        W29845   6.301   0.429  13.881  0.2682 -0.0682  0.1399
10312W        W29846  14.402   2.848   3.854 -0.1127 -0.2848  0.0793
10313W        W29847   2.491   4.074  16.664 -0.2357 -0.0153 -0.2155
10314W        W29848  10.852   2.678   1.710 -0.2245 -0.1575  0.0371
10315W        W29849  16.756   5.434  16.059  0.1591  0.0457 -0.2522
10316W        W29850   1.094  14.563  17.190  0.4339 -0.4822 -0.0572
10317W        W29851  11.566  13.752  14.785  0.0471  0.0046  0.0127
10318W        W29852  15.832  11.702  15.011 -0.0488  0.2564  0.2978
10319W        W29853  17.152   7.136   3.071 -0.2013 -0.0186  0.5441
10320W        W29854   0.016  16.019   3.795 -0.1286 -0.2498  0.0500
10321W        W29855   6.162   8.211  13.863 -0.5290 -0.2127  0.2595
10322W        W29856   3.113   3.329  15.408 -0.1693  0.2624  0.0754
10323W        W29857   0.708  14.758  16.440 -0.0137 -0.0376 -0.0623
10324W        W29858   6.580   5.350   0.150  0.0393  0.1324 -0.0449
10325W        W29859   7.433   2.836   4.921 -0.1950 -0.0828 -0.0627
10326W        W29860  14.594  10.037  12.692  0.3196  0.1526  0.1329
10327W        W29861   9.879  15.394  15.253  0.0069  0.0998  0.0140
10328W        W29862   0.381  14.616  14.136  0.0385 -0.3688 -0.2379
10329W        W29863   8.580  11.359   4.130 -0.3514  0.1369  0.0120
10330W        W29864   5.600   1.954   4.448 -0.2355  0.1357 -0.2219
10331W        W29865   0.664   2.111  16.336 -0.1242  0.2583  0.2047
10332W        W29866   1.739   7.417   1.961  0.4603 -0.0281 -0.1824
10333W        W29867  13.343   2.544   1.561  0.3374 -0.1647  0.1010
10334W        W29868  10.330  10.740  14.834  0.0251 -0.0545  0.1269
10335W        W29869  15.116   9.906   0.977 -0.0950 -0.4484 -0.1130
10336W        W29870  14.377  10.972   1.832 -0.3739  0.0841  0.0446
10337W        W29871   8.074   8.290   2.623  0.1268 -0.2130  0.1456
10338W        W29872  12.451   9.989  14.958  0.1420  0.1584  0.0729
10339W        W29873   8.207   9.071   2.088  0.1429  0.4672  0.0215
10340W        W29874   8.945  15.285  12.742  0.6395 -0.1820  0.0514
10341W        W29875  14.627   5.596   3.842 -0.0622  0.5219 -0.0273
10342W        W29876  11.072  12.932   2.150  0.2030  0.1403  0.2578
10343W        W29877  11.134  13.120   3.634 -0.0954  0.1579  0.2734
10344W        W29878   1.258   4.897  13.428 -0.1337  0.2192  0.0713
10345W        W29879   4.829   9.631  15.069  0.0621  0.2260  0.2956
10346W        W29880  14.377  17.162  14.719 -0.1693  0.0761 -0.2848
10347W        W29881   0.002  14.945  15.417  0.1774 -0.3090 -0.1294
10348W        W29882   0.641   2.288   0.562 -0.2498  0.2405 -0.1660
10349W        W29883   3.024  16.635  12.564  0.0206 -0.1196  0.0596
10350W        W29884   2.225   4.355  12.505  0.3005 -0.0691 -0.0001
10351W        W29885   1.591   3.598  14.722 -0.1525  0.2890 -0.2309
10352W        W29886  11.501   9.532  13.622  0.1269 -0.1385 -0.3220
10353W        W29887  12.017  10.765   4.831 -0.1951  0.1434  0.1287
10354W        W29888   3.401   6.548   1.464 -0.0784  0.0995  0.0386
10355W        W29889   8.600   7.590   0.922 -0.1069 -0.0478 -0.1613
10356W        W29890  14.840   2.376  13.023 -0.0265 -0.3316  0.1106
10357W        W29891  12.036   4.369   0.330 -0.2787  0.3740  0.3220
10358W        W29892   9.675  16.916   3.228  0.1458 -0.2531  0.0952
10359W        W29893  15.061   0.120   3.334  0.1257 -0.0347  0.4343
10360W        W29894   3.276  15.074  13.399 -0.0604 -0.1137 -0.0661
10361W        W29895   0.296   8.502   3.062  0.0093  0.1337  0.0815
10362W        W29896  12.056   5.709  12.383 -0.1474  0.0912  0.3989
10363W        W29897   3.260   9.635  16.704 -0.4458  0.2547 -0.2080
10364W        W29898   2.232  13.012  16.085  0.0552 -0.1330 -0.0346
10365W        W29899   6.138  15.875   5.354 -0.2533  0.0195  0.0139
10366W        W29900   4.837  12.430  16.949 -0.0995  0.2854 -0.0664
10367W        W29901  16.758   4.922  13.414 -0.1290 -0.2918  0.1119
10368W        W29902   4.769  17.205  11.580  0.2811  0.1338  0.1279
10369W        W29903   8.851  14.776  14.857  0.3562 -0.0494  0.2769
10370W        W29904   8.777   6.652  15.425 -0.3817 -0.1979  0.0671
10371W        W29905   1.339  13.186  13.416 -0.1666 -0.0021 -0.1751
10372W        W29906   3.337   9.056   1.685 -0.0487  0.0660  0.1262
10373W        W29907  16.828  16.540   4.540  0.0008  0.2270  0.4092
10374W        W29908   3.781   2.355   0.482  0.0259 -0.0726  0.0631
10375W        W29909   9.021  13.099   0.854  0.1670  0.0662  0.0780
10376W        W29910  14.413  14.522  17.060 -0.1673  0.2151  0.4107
10377W        W29911  17.322  14.183  16.030  0.1325  0.2437  0.0730
10378W        W29912   1.127  15.786  12.693 -0.1616 -0.1826  0.0189
10379W        W29913   2.183  14.115   0.947  0.2015 -0.0599  0.1549
10380W        W29914  14.107  11.071  13.960  0.2101 -0.1040 -0.0775
10381W        W29915   6.299  16.781  16.615 -0.1725 -0.0843 -0.1472
10382W        W29916   2.780   2.189  13.421  0.1241  0.0774  0.0724
10383W        W29917   6.664  12.324  15.110  0.1607  0.1693 -0.1223
10384W        W29918  16.826   4.678   5.120  0.0216  0.2897 -0.1509
10385W        W29919  13.159   0.722   0.696  0.3108 -0.0868 -0.0315
10386W        W29920  12.614   9.863   3.500 -0.0835 -0.0258  0.1220
10387W        W29921   0.390   7.859   0.206 -0.0180 -0.0664  0.0754
10388W        W29922   6.984   8.459   3.220 -0.1157 -0.0819 -0.1844
10389W        W29923  16.133   4.589   5.226 -0.0097  0.0086  0.1827
10390W        W29924   3.952  12.358   3.483 -0.3057 -0.1565 -0.1135
10391W        W29925  11.109   0.656   4.988 -0.0821  0.0360  0.0542
10392W        W29926   6.853   0.067  12.597  0.1758 -0.2041 -0.3392
10393W        W29927   1.816  16.485  12.466 -0.0468  0.0488 -0.3083
10394W        W29928  15.589   5.709  15.047  0.0924 -0.1774 -0.0639
10395W        W29929   5.716   2.747  12.234 -0.1713  0.1539  0.1226
10396W        W29930  14.590   7.264   4.104  0.0022  0.4654  0.1891
10397W        W29931   2.659   0.104   0.987  0.3214 -0.1058  0.2210
10398W        W29932   4.649   9.562  16.283 -0.0198 -0.3386 -0.1429
10399W        W29933   6.865   2.841  14.708 -0.1212  0.0425 -0.2621
10400W        W29934   3.165   5.055  13.170 -0.0620 -0.2154  0.1510
10401W        W29935   9.798  10.819   4.769  0.1042  0.1282  0.2366
10402W        W29936  12.701   7.353  13.232  0.0137  0.1066  0.1481
10403W        W29937   3.577  10.574  16.530  0.1005  0.1608 -0.1161
10404W        W29938   2.869   2.424  16.883  0.3182 -0.1239  0.1694
10405W        W29939   3.391   7.310  15.543  0.0227  0.1456  0.1316
10406W        W29940   5.905   9.883  14.092  0.0160 -0.0997  0.0362
10407W        W29941   6.059  16.874   1.549 -0.1586 -0.0687  0.3280
10408W        W29942  16.320   2.576   3.771 -0.0234  0.0728 -0.0314
10409W        W29943   8.168  17.027  13.031  0.2333  0.1588 -0.0157
10410W        W29944   5.784   8.624   4.691 -0.3771 -0.1026 -0.1023
10411W        W29945   9.240   6.873   4.224  0.0485 -0.0292  0.3974
10412W        W29946   4.925  15.250   0.926 -0.1137  0.0360  0.1477
10413W        W29947  13.282   9.320   3.646  0.3336  0.0775  0.0368
10414W        W29948  15.958   1.191   1.124 -0.1739 -0.3502 -0.0326
10415W        W29949   2.472   9.407  14.793  0.0514 -0.0166  0.0459
10416W        W29950  10.909   9.576  15.857 -0.0517 -0.0824  0.2481
10417W        W29951   6.543   6.535   1.919  0.0322 -0.0305  0.0020
10418W        W29952   8.033   4.594  13.288  0.1163 -0.2157  0.0465
10419W        W29953  13.130  10.819  17.192  0.1424  0.0286  0.0351
10420W        W29954  10.805   8.590  16.545 -0.0207  0.1899  0.0989
10421W        W29955   3.532  16.601   2.922  0.2061  0.0385 -0.1208
10422W        W29956   2.423   5.826  13.052 -0.2705  0.3400 -0.0611
10423W        W29957   1.074   0.806   0.513  0.0300  0.2431  0.0700
10424W        W29958   9.074   0.930   2.532  0.0083  0.1837  0.3651
10425W        W29959  16.892   1.866   1.634  0.0957  0.2470  0.2955
10426W        W29960  16.845   8.870   3.793  0.0567 -0.2285  0.0867
10427W        W29961  10.825   2.492  12.893 -0.0886 -0.0747 -0.0497
10428W        W29962   5.215  12.076   4.739  0.3297  0.1514  0.1758
10429W        W29963  13.258   8.268  12.549 -0.3095 -0.2081  0.3131
10430W        W29964   7.047  16.063   1.125 -0.1370  0.2531  0.0517
10431W        W29965   1.485   9.520   4.623 -0.0127  0.0191 -0.2322
10432W        W29966   6.157  12.435   3.773  0.0467 -0.1149 -0.0664
10433W        W29967   7.935   8.418   5.076  0.0937 -0.1410 -0.1428
10434W        W29968  14.878   2.416  15.172 -0.0897  0.0813  0.0826
10435W        W29969  16.114   9.596  16.915 -0.1793  0.1796  0.1455
10436W        W29970   3.967  11.459  12.826 -0.0222  0.0372  0.1971
10437W        W29971  10.955   2.938  14.212  0.3231 -0.1707 -0.2157
10438W        W29972  11.577   4.920  14.438 -0.1657 -0.0306  0.2460
10439W        W29973  11.736   3.148   2.763  0.0530  0.0334  0.0242
10440W        W29974  16.309   6.038   1.563 -0.0655  0.2119  0.1906
10441W        W29975   1.175   8.104   2.555 -0.1436  0.3587  0.0953
10442W        W29976   4.408  11.096   4.463 -0.1621 -0.0276 -0.4150
10443W        W29977  12.859   5.355   0.951  0.0247 -0.2803 -0.2392
10444W        W29978   1.988   2.932   2.822 -0.0006 -0.0335  0.0295
10445W        W29979   2.688  11.819  15.077  0.0715  0.0315  0.1839
10446W        W29980  11.316  13.530  16.219 -0.1158 -0.1630  0.1138
10447W        W29981   4.574   4.188   4.695  0.2817  0.0036 -0.2028
10448W        W29982   0.706   1.442  13.326 -0.1759  0.1102 -0.1224
10449W        W29983  17.349   5.750  13.292 -0.0414  0.0360 -0.0248
10450W        W29984   1.132  11.649   3.093  0.2187 -0.1778 -0.1475
10451W        W29985  12.733   8.068  13.711 -0.1293  0.0301  0.1980
10452W        W29986  11.372  12.040   4.515  0.1900 -0.1686  0.4087
10453W        W29987   2.051   3.717   3.837 -0.1456  0.0951 -0.1390
10454W        W29988   4.308   0.318  12.075  0.1596 -0.1956 -0.0362
10455W        W29989   2.019   6.379   4.374 -0.0456  0.0895  0.1916
10456W        W29990   4.661   1.337  15.211  0.1383  0.2587 -0.3259
10457W        W29991   8.901   8.199  17.055 -0.1044 -0.1456  0.1523
10458W        W29992   5.477   3.708  13.195 -0.0284  0.2766  0.3605
10459W        W29993   7.407   7.655  13.268 -0.1188 -0.0040  0.0985
10460W        W29994   9.770   6.099   0.925  0.0202 -0.2762  0.0192
10461W        W29995   9.501  10.300  12.130 -0.0729 -0.2708  0.0308
10462W        W29996  10.326   7.008  13.990 -0.4321  0.0944 -0.1247
10463W        W29997   3.021   6.297  15.238  0.1031 -0.1463 -0.0210
10464W        W29998  15.957  17.023   0.241  0.0490 -0.0777 -0.1401
10465W        W29999  16.343   8.270   3.030 -0.2479  0.0342  0.3352
10466W        W30000  15.757   5.853   1.722  0.1363 -0.1827  0.0381
10467W        W30001   9.054   8.943  14.486 -0.0388 -0.0522 -0.3506
10468W        W30002   5.738  10.136   1.864 -0.3237  0.1038  0.1884
10469W        W30003   4.933  14.525  16.725  0.1567  0.0705 -0.0268
10470W        W30004   9.400   3.030   4.719  0.0144 -0.2709 -0.0513
10471W        W30005  14.532  17.289   2.072 -0.2484 -0.3261 -0.3313
10472W        W30006  14.250   1.203   4.504  0.0379 -0.0199 -0.0177
10473W        W30007   4.603   1.545   2.853  0.3171 -0.1385  0.1563
10474W        W30008   6.098   6.158  13.102  0.0336 -0.3847 -0.0058
10475W        W30009  16.934   2.134   1.196  0.1181 -0.2442 -0.0668
10476W        W30010  13.739   1.367  15.677  0.2435 -0.0249 -0.0933
10477W        W30011   1.078  16.095  16.338  0.0120 -0.1410  0.0430
10478W        W30012  16.532   9.682  16.666 -0.1439  0.1495  0.1339
10479W        W30013  14.419  10.927   0.472  0.0317  0.3287  0.0830
10480W        W30014  15.677  17.328  12.983  0.2237 -0.2559  0.0845
10481W        W30015   4.357   8.111  15.236 -0.0261 -0.0777  0.0885
10482W        W30016   3.181   1.652   3.548  0.1201  0.1566 -0.1848
10483W        W30017   7.307   4.239   0.173 -0.0568  0.0796  0.2671
10484W        W30018   3.126  15.000   3.199  0.1828 -0.1075 -0.0177
10485W        W30019  14.162   0.879  16.679  0.0342  0.1075  0.0358
10486W        W30020  11.648   8.265  12.883  0.2127  0.2457  0.1528
10487W        W30021  12.446   6.583  12.816 -0.0960  0.0181 -0.0634
10488W        W30022   8.739   0.178  14.454  0.2441 -0.1351 -0.0760
10489W        W30023   1.754   7.967   2.025  0.0187 -0.1113  0.0370
10490W        W30024   9.766  10.669   3.931  0.0808 -0.3260  0.0345
10491W        W30025  11.989   9.805  12.271 -0.1119  0.0325  0.0503
10492W        W30026  12.934   9.526   4.071 -0.0353  0.0644  0.1425
10493W        W30027   3.483  12.282  14.695  0.2237 -0.3147 -0.1890
10494W        W30028  11.593  10.238   0.654 -0.0624  0.2225 -0.0255
10495W        W30029   7.139   2.007  13.152  0.0139 -0.1279 -0.3704
10496W        W30030  10.891  10.647   3.319 -0.1532  0.0467  0.1068
10497W        W30031  15.198   1.578   2.127 -0.0323 -0.2117  0.0487
10498W        W30032  13.628   6.336  16.837 -0.4357  0.2627 -0.1071
10499W        W30033  14.997   6.323  12.616 -0.1169  0.2017  0.0765
10500W        W30034   3.290  11.620  14.379  0.3327  0.1482  0.1424
10501W        W30035   9.664   7.501  15.031  0.3698  0.1563 -0.1011
10502W        W30036   8.073   8.054   0.744  0.0638 -0.1439  0.2433
10503W        W30037   2.076  16.084   0.238  0.0326 -0.2582 -0.3194
10504W        W30038  11.190  12.192   5.024  0.0015  0.0769  0.0875
10505W        W30039  13.518   1.218  13.465  0.0341 -0.2970  0.0472
10506W        W30040   1.273  10.035  16.864 -0.0414  0.1013  0.3119
10507W        W30041   2.940  16.907   4.151 -0.0075 -0.1953 -0.1405
10508W        W30042  12.913  15.702   4.852 -0.0669  0.0963  0.5794
10509W        W30043  16.359   5.018  17.281 -0.0373  0.0793  0.1461
10510W        W30044   5.132  16.837   3.207  0.2026 -0.0766  0.1334
10511W        W30045   0.679  10.305  16.105  0.1470 -0.0649  0.1049
10512W        W30046  17.477  11.052  12.765 -0.0091  0.1339  0.0865
10513W        W30047   2.654   6.819  13.133  0.1570 -0.1132  0.0525
10514W        W30048   0.461  11.705  13.549 -0.0104  0.1467  0.4687
10515W        W30049  11.775  12.493  15.921  0.0916 -0.0670  0.1804
10516W        W30050  11.365  12.122   1.768 -0.0206  0.0162  0.2793
10517W        W30051  16.979   3.897   2.214  0.0462  0.2791  0.0159
10518W        W30052  12.198  15.435  14.138  0.0897  0.0501  0.0666
10519W        W30053   4.441   4.771   1.372 -0.1678  0.2353 -0.0102
10520W        W30054   8.016   4.787  14.668 -0.0549 -0.0122 -0.1087
10521W        W30055   7.784  10.760  16.277 -0.0633  0.1496  0.3428
10522W        W30056   5.062   4.574   0.245  0.1331  0.1104  0.0279
10523W        W30057   7.959   4.004  14.546 -0.2535  0.1275  0.1231
10524W        W30058   1.432   6.038  12.207 -0.2741  0.1438  0.0320
10525W        W30059   4.959  16.424   4.390  0.3473  0.2634 -0.2051
10526W        W30060  13.346  16.496   1.132  0.1537 -0.3606  0.1498
10527W        W30061   8.422  16.728   3.041  0.1579  0.1238  0.0860
10528W        W30062   0.034  13.640   4.186  0.0515 -0.1073  0.1842
10529W        W30063   0.204   8.107  13.010 -0.2124 -0.0525  0.2050
10530W        W30064  16.489   6.511  16.586 -0.1737 -0.0724 -0.0940
10531W        W30065  13.964  15.961   3.803 -0.0552  0.2630 -0.1239
10532W        W30066   8.730  14.357  15.650  0.0840  0.0729 -0.0475
10533W        W30067   3.116   2.675  15.067 -0.2073  0.0286  0.0786
10534W        W30068  16.923   9.080  14.034 -0.0671 -0.2126 -0.2124
10535W        W30069   2.690  12.221   2.111  0.1418 -0.1457 -0.0992
10536W        W30070   9.469  17.059  15.602  0.0092 -0.1323 -0.0837
10537W        W30071   8.910   2.788   5.178  0.0304  0.1255  0.1885
10538W        W30072  12.938   9.117  15.143 -0.3576  0.1359  0.0811
10539W        W30073   7.334   1.812   0.342 -0.0315 -0.0208  0.2906
10540W        W30074  11.497  14.598  15.123  0.2671  0.1625 -0.0179
10541W        W30075   0.642   2.261  14.213 -0.0381 -0.0892 -0.2504
10542W        W30076   1.438   0.510  14.800 -0.0689  0.0899  0.4365
10543W        W30077   4.183  14.076   1.148 -0.1350 -0.2603  0.0377
10544W        W30078   4.868   8.158  15.088 -0.1288 -0.0982  0.3078
10545W        W30079   0.792  15.413  13.787 -0.2351  0.2480 -0.1647
10546W        W30080  12.291  14.048  11.917 -0.2115 -0.2128 -0.0772
10547W        W30081   8.208   9.499   2.329 -0.1172  0.0829 -0.3686
10548W        W30082  15.914   4.633   1.129 -0.1365 -0.0160  0.0033
10549W        W30083   6.644   8.830  16.934 -0.2433  0.1037 -0.0068
10550W        W30084  10.994  10.708   5.217 -0.1868 -0.0260 -0.0149
10551W        W30085   1.710   1.645  16.980 -0.1370  0.0275 -0.1582
10552W        W30086   4.115   5.847   1.795 -0.0021  0.2079  0.2622
10553W        W30087  13.454  16.665   5.963 -0.0913 -0.2193  0.0817
10554W        W30088   9.309   6.573   3.166 -0.2499 -0.0764  0.0078
10555W        W30089   6.896  10.662   4.336  0.4449 -0.1509  0.4090
10556W        W30090   2.375   2.451  14.317  0.0519 -0.1480  0.4922
10557W        W30091   7.479   5.385  16.539 -0.0027 -0.0624  0.3104
10558W        W30092  16.114   4.914  14.207 -0.0028 -0.0631  0.0759
10559W        W30093   8.665   3.227   0.477  0.0352 -0.1314  0.2071
10560W        W30094  14.070   4.192   4.564 -0.0921  0.2123 -0.0516
10561W        W30095   6.852  14.754  13.026  0.2569 -0.1125  0.1552
10562W        W30096  14.848   7.934  16.437 -0.0760  0.1235  0.0747
10563W        W30097  10.683   2.689  14.607 -0.1870 -0.0390  0.0856
10564W        W30098  14.902  14.363   3.661  0.1392  0.2747  0.0040
10565W        W30099   2.073   4.965   2.342  0.4259  0.0899  0.2496
10566W        W30100  16.767   6.186  12.623  0.4077  0.1346  0.0745
10567W        W30101  13.473   4.242   2.217 -0.0784 -0.0145  0.0792
10568W        W30102   0.134   9.944   4.395 -0.0029  0.0832  0.5055
10569W        W30103  15.912   2.052  13.342  0.0389  0.2904 -0.0424
10570W        W30104   8.069   5.045   1.000 -0.1023  0.0523 -0.0829
10571W        W30105   0.187   3.790   3.441  0.3066  0.1207 -0.0626
10572W        W30106   8.680  17.074   2.131 -0.3039  0.0283  0.2143
10573W        W30107   2.071  16.931  13.394  0.0922 -0.0333  0.0393
10574W        W30108   1.839  12.342   3.665 -0.0852  0.0417 -0.1953
10575W        W30109  11.331   0.766  16.746 -0.3107  0.1232  0.0530
10576W        W30110  11.592   1.240  12.434  0.3164 -0.3569 -0.1803
10577W        W30111  16.886  11.036   1.304 -0.0019 -0.0141 -0.3540
10578W        W30112   7.007  11.257  16.039 -0.0665 -0.1607  0.2432
10579W        W30113   5.303  11.133   0.882 -0.1535  0.0612  0.0147
10580W        W30114   7.585   5.660   0.732  0.3090  0.2188  0.0359
10581W        W30115   7.324   3.498   5.032  0.1780 -0.1046  0.0114
10582W        W30116   3.645  10.932  14.630 -0.0222  0.0947  0.1150
10583W        W30117  15.427   4.356   1.884  0.0533  0.1292 -0.2850
10584W        W30118  12.175   9.983   0.428  0.0102 -0.0914 -0.2020
10585W        W30119   8.492  16.836   2.587 -0.0679  0.1615 -0.0072
10586W        W30120  14.788   7.556   3.727 -0.2353  0.0013 -0.1753
10587W        W30121   2.302   5.376  15.477  0.0675  0.0177  0.2663
10588W        W30122  12.373  16.874  16.453 -0.1371  0.1247 -0.1361
10589W        W30123  12.872   3.066   1.923  0.0081 -0.3228 -0.0178
10590W        W30124  11.715   5.572   1.424  0.0785  0.0141  0.0108
10591W        W30125   9.493   8.626  14.369  0.2394 -0.1176  0.2787
10592W        W30126  12.419  17.063   4.363 -0.0267 -0.0390 -0.1781
10593W        W30127  12.101   4.435  12.040 -0.4318  0.4093 -0.1732
10594W        W30128  14.364  13.829  13.257  0.0638  0.0666  0.0409
10595W        W30129  14.424   2.327   3.118  0.3750 -0.1485 -0.0604
10596W        W30130  12.861  16.960  15.572  0.1203  0.1118  0.2810
10597W        W30131  16.923   7.516   2.807 -0.0904 -0.0621 -0.1570
10598W        W30132  12.005  16.570   4.711  0.2473 -0.0091  0.0505
10599W        W30133   5.731  13.381   1.490  0.0111  0.2338 -0.1416
10600W        W30134   4.600  17.443  11.946  0.1955  0.1050 -0.1698
10601W        W30135  16.267  13.387  15.678  0.0351 -0.2706 -0.1242
10602W        W30136   3.218  12.776   0.628  0.0174  0.0236  0.0221
10603W        W30137  12.734   7.405  12.727 -0.0809 -0.0480  0.0536
10604W        W30138  14.634  13.106   1.595 -0.2257  0.1860  0.2050
10605W        W30139   0.366   7.175   4.231 -0.2596  0.0275  0.0139
10606W        W30140  14.749  11.054  12.855  0.2331 -0.4280 -0.1258
10607W        W30141   1.786  11.722  15.041  0.1895 -0.0024 -0.0551
10608W        W30142   6.985  13.739  12.469  0.1598 -0.0449  0.1465
10609W        W30143   4.551   1.160   2.148  0.2181 -0.1560  0.1785
10610W        W30144   8.687   9.339  13.539 -0.2442  0.4685  0.0020
10611W        W30145  10.621   5.086   1.673  0.0720  0.1373 -0.0912
10612W        W30146   9.780  12.137  16.177 -0.1779  0.1447 -0.2776
10613W        W30147  10.920  10.095  16.775 -0.0171  0.1229  0.0197
10614W        W30148  14.127   3.499  16.696  0.3170 -0.0669 -0.2209
10615W        W30149   1.207  16.010   2.483  0.0655  0.1061 -0.0167
10616W        W30150   6.401  17.373  12.343  0.0820  0.0339  0.0243
10617W        W30151  10.558   8.349  13.638 -0.0585  0.1456  0.0868
10618W        W30152  16.633   6.744   0.611  0.0318  0.0209  0.0526
10619W        W30153  15.048   3.623  13.538 -0.2788  0.2058 -0.4601
10620W        W30154  10.233   2.365   0.482 -0.0388 -0.2666  0.3177
10621W        W30155  16.056   3.253  15.824  0.0955 -0.3875 -0.4403
10622W        W30156   1.142   3.917   4.720 -0.1007 -0.1892 -0.0462
10623W        W30157   3.828   0.130  12.024 -0.3215 -0.3594 -0.0884
10624W        W30158   4.279   6.262   0.013  0.2323 -0.2794  0.1751
10625W        W30159   0.871   3.682   5.095  0.4104 -0.2312  0.1499
10626W        W30160  10.074   9.386  15.092 -0.2108  0.0031  0.0966
10627W        W30161  17.084  14.425   3.759 -0.2219 -0.2155  0.1234
10628W        W30162  12.470   0.312   5.429  0.1260 -0.2844 -0.1559
10629W        W30163   7.824   4.153  12.409  0.0070 -0.3048  0.0095
10630W        W30164   5.004  16.929  16.656  0.2502 -0.0486  0.1165
10631W        W30165  14.608   5.053   3.152  0.0960 -0.2296  0.5437
10632W        W30166  11.555   3.645   3.528 -0.1104 -0.2821  0.0264
10633W        W30167   9.688   3.653   2.330 -0.1678  0.0335  0.0031
10634W        W30168  10.931  10.090  14.536 -0.0610 -0.0798 -0.1096
10635W        W30169   9.619  15.594   2.617 -0.1219  0.0389 -0.0165
10636W        W30170  16.153  10.641  13.247 -0.0293  0.1265  0.1171
10637W        W30171   0.824   4.081  15.030 -0.0656 -0.1767 -0.0302
10638W        W30172  10.205   4.862   2.074 -0.3984  0.1108 -0.1513
10639W        W30173   4.154   6.419  12.171 -0.0727  0.0489  0.3836
10640W        W30174   5.262   0.564  14.655 -0.0951  0.2320  0.0222
10641W        W30175   9.878  10.495   2.243 -0.1151 -0.0030  0.2668
10642W        W30176   2.172  12.046  17.182 -0.0171  0.4606 -0.2169
10643W        W30177  12.035  15.773   3.556  0.1505  0.0505 -0.0930
10644W        W30178  16.066  16.591  12.373  0.1877 -0.1770 -0.0358
10645W        W30179   2.771  15.119   4.087 -0.1399  0.0170 -0.1379
10646W        W30180   8.687  10.823  12.857  0.0895 -0.4125 -0.0808
10647W        W30181   1.121   3.245  14.020 -0.0735  0.1882 -0.1395
10648W        W30182  14.939  11.286  12.292  0.2664 -0.0222  0.0170
10649W        W30183  16.461   4.509  14.968  0.2061  0.1207 -0.1408
10650W        W30184   6.234   1.018   0.451  0.0504 -0.1662  0.2494
10651W        W30185   0.484   9.536   4.531  0.0904 -0.2216  0.0594
10652W        W30186   5.373   2.265  13.403  0.1707  0.0092  0.0450
10653W        W30187   3.571  15.091   4.385  0.0745 -0.1383  0.1270
10654W        W30188   1.796  15.139   4.737 -0.0307  0.0458  0.0844
10655W        W30189   7.353   8.012   0.609 -0.1384 -0.1574  0.0342
10656W        W30190  16.945  16.598   0.700  0.0788  0.2336  0.1549
10657W        W30191  15.013   5.915  12.989  0.0920 -0.0352  0.1492
10658W        W30192   5.891   1.680   2.093 -0.1497 -0.2169 -0.1771
10659W        W30193   5.124   3.673   3.549  0.0505 -0.0198  0.2030
10660W        W30194   0.757  14.878  14.076 -0.1071  0.1644 -0.1257
10661W        W30195  10.445   1.352   4.892  0.0511 -0.0736  0.0073
10662W        W30196  14.539   4.410   4.413  0.4878  0.0678  0.1136
10663W        W30197   9.348   0.325   1.131  0.2474  0.0770  0.1934
10664W        W30198  15.426   3.607   4.772 -0.1804  0.1050 -0.1813
10665W        W30199   4.712  16.953  15.459  0.2511 -0.2368  0.4576
10666W        W30200   5.086   0.360  16.552 -0.0414  0.2189 -0.1875
10667W        W30201  11.863   5.979   3.313  0.2458  0.3394  0.0340
10668W        W30202  11.799   1.189  15.675 -0.0038  0.3042  0.3387
10669W        W30203   2.644  10.854  15.652 -0.0333 -0.2896  0.1739
10670W        W30204   3.262   9.242   4.679 -0.0737  0.0605  0.1059
10671W        W30205  16.385  16.788   5.004 -0.1441  0.2920  0.0487
10672W        W30206   1.523  16.232  14.855 -0.0605  0.0194 -0.0884
10673W        W30207   7.560   3.154   1.757  0.3114  0.2000 -0.2925
10674W        W30208   8.198   8.931   2.901  0.1341  0.1325 -0.1370
10675W        W30209  16.727   7.437   0.958  0.2397  0.1579 -0.1451
10676W        W30210   0.767   0.131   4.644  0.0255 -0.0530 -0.1528
10677W        W30211  12.851  13.198   3.383 -0.4222  0.1454  0.2302
10678W        W30212   9.329  15.843   5.146  0.1166 -0.1865 -0.1995
10679W        W30213   7.124  11.240  14.466 -0.1942 -0.0258  0.1958
10680W        W30214  13.800  13.350   1.040  0.2538 -0.1079  0.0902
10681W        W30215   4.958   7.872   3.324  0.0824 -0.0406 -0.1100
10682W        W30216   5.824  10.912   4.438 -0.2484 -0.0469 -0.2067
10683W        W30217   0.774  14.705   0.240 -0.1126 -0.0277 -0.1019
10684W        W30218   5.091  13.154   2.980  0.0689  0.0266 -0.2142
10685W        W30219   2.959  12.198  16.815 -0.4125 -0.3063 -0.0404
10686W        W30220   6.372  15.757  14.242  0.0104 -0.3720  0.1536
10687W        W30221   3.948  15.374   1.253 -0.0036  0.3396 -0.0105
10688W        W30222   6.471  10.999  13.887  0.1130  0.1545  0.1338
10689W        W30223  14.716  17.062  16.557 -0.1805 -0.2455 -0.1808
10690W        W30224   7.367   3.990   5.105  0.0406  0.0240 -0.1852
10691W        W30225   8.144   9.719   3.533  0.1036 -0.2035  0.1142
10692W        W30226  12.552   0.646   4.662  0.2495  0.2021  0.4133
10693W        W30227   4.823  14.479   3.369 -0.3652 -0.3590 -0.0034
10694W        W30228  13.072   3.036  13.600  0.1434  0.0051  0.0330
10695W        W30229   5.742  10.573  16.829  0.1985 -0.1136  0.1415
10696W        W30230  12.406   6.496  12.263 -0.0314  0.1525  0.0517
10697W        W30231   7.740  15.867  14.978 -0.3791  0.3079  0.2388
10698W        W30232  13.568   6.268   1.379 -0.0492  0.1666 -0.0524
10699W        W30233   8.171   8.654  15.288 -0.2833 -0.0581  0.1669
10700W        W30234  16.545   5.825  12.861  0.0845  0.1142  0.0788
10701W        W30235   5.352  14.521   1.239 -0.0546 -0.1134 -0.0341
10702W        W30236   2.815   0.458  17.076  0.0047  0.1541  0.2284
10703W        W30237   6.867   8.469  15.166  0.0595 -0.2752  0.2029
10704W        W30238  14.133  15.763   1.081  0.1896 -0.0730  0.1722
10705W        W30239  17.061   0.965  12.915 -0.2849  0.1501 -0.4689
10706W        W30240  17.021   5.796  12.924 -0.0189  0.0199 -0.0411
10707W        W30241  12.104  14.053  15.889  0.0827 -0.1421 -0.3232
10708W        W30242  11.630  16.926   3.887 -0.0706 -0.0754 -0.2349
10709W        W30243   2.332   8.462   2.035  0.1494  0.2436 -0.0573
10710W        W30244   9.651   7.815  13.012  0.0461  0.0616 -0.0123
10711W        W30245  14.940  11.592   4.947  0.1072  0.0149 -0.1543
10712W        W30246  15.146   0.643   4.474 -0.3487 -0.1079  0.3390
10713W        W30247   3.562   7.284   1.693 -0.0353  0.1119 -0.2899
10714W        W30248   6.700   6.560  11.288 -0.1027 -0.2838  0.2176
10715W        W30249  16.830  11.760   3.724  0.1449 -0.0366  0.0907
10716W        W30250   3.101  15.761  16.652  0.0890 -0.1510 -0.2276
10717W        W30251   8.489   5.904  14.479  0.0608  0.1445 -0.1141
10718W        W30252   9.821   6.210  16.028 -0.0449  0.3557  0.1665
10719W        W30253   8.408  10.942   4.392 -0.1003 -0.1683 -0.1432
10720W        W30254  15.879  15.721   2.705 -0.0066 -0.5229 -0.0134
10721W        W30255  16.743   1.182   3.602 -0.0869 -0.0528 -0.1909
10722W        W30256   9.482   8.781   1.819 -0.0994  0.0346  0.2924
10723W        W30257   1.433   5.527  15.797 -0.2884  0.1291 -0.1178
10724W        W30258   1.305   2.601  13.269  0.0893  0.0173 -0.2069
10725W        W30259   4.584   3.677   1.882  0.1994 -0.1137 -0.0547
10726W        W30260  15.292  16.365   2.095 -0.1555 -0.0862 -0.0910
10727W        W30261  17.336   2.780   4.476  0.2960  0.2015 -0.2307
10728W        W30262  14.376  11.125  15.931 -0.0866 -0.0827  0.1410
10729W        W30263   6.786   6.331   2.574 -0.0710 -0.3659  0.0813
10730W        W30264  13.561   7.490  16.025  0.0760 -0.1722  0.0147
10731W        W30265   7.141  13.180   2.082  0.1131  0.0182 -0.3099
10732W        W30266   9.878  12.673   5.146 -0.1600  0.0797 -0.0925
10733W        W30267   1.216   3.189  12.285 -0.0273 -0.2875  0.3454
10734W        W30268  11.791   1.482  17.067  0.1095 -0.2768 -0.3068
10735W        W30269   8.828  10.933  17.300  0.1185  0.1086 -0.2314
10736W        W30270   4.879  11.969   1.189 -0.1097  0.2855  0.2825
10737W        W30271  14.390   3.378   4.711  0.0974  0.0674  0.4460
10738W        W30272   3.955  12.163   0.703  0.1075 -0.1103 -0.0231
10739W        W30273   8.390  14.579  17.005  0.0283 -0.0372 -0.0364
10740W        W30274  12.862   0.254   3.808  0.0292 -0.1141  0.3497
10741W        W30275  10.171   2.361   3.420  0.0751 -0.0403 -0.1196
10742W        W30276   6.909   3.605   1.391  0.0812  0.2109  0.2110
10743W        W30277  16.873   7.895   4.228 -0.0661  0.0489 -0.0570
10744W        W30278   0.922   4.344  15.826 -0.0097 -0.0170  0.1245
10745W        W30279   5.552  10.912  15.175  0.2257  0.1794 -0.3478
10746W        W30280   6.676  10.163  14.911  0.1969  0.5203  0.0042
10747W        W30281   8.390  16.473   1.387 -0.0797 -0.0089  0.0736
10748W        W30282   0.197   1.557   2.124  0.0831 -0.2142  0.0225
10749W        W30283  12.701  10.723  12.787  0.0731 -0.1719 -0.1445
10750W        W30284  12.247   4.370   1.421  0.0142  0.0109  0.1456
10751W        W30285  14.298  13.825  12.452  0.1252 -0.3496 -0.0659
10752W        W30286   8.952   9.499  14.982  0.1434 -0.2065 -0.2756
10753W        W30287  15.300  14.646   2.927 -0.1553 -0.0763 -0.1366
10754W        W30288   2.250   9.038   4.408 -0.0507 -0.0706  0.1264
10755W        W30289  12.314   7.905   2.281  0.1688 -0.0544 -0.0658
10756W        W30290  12.886   9.236  14.231  0.2712  0.0417  0.0207
10757W        W30291  16.768  15.974   4.939  0.0959  0.1252  0.0795
10758W        W30292   1.881   1.181  17.286 -0.0710 -0.2861  0.0055
10759W        W30293   8.456  16.051   0.436 -0.0083 -0.0139  0.0821
10760W        W30294  13.053  12.651   1.251  0.0577 -0.1325 -0.0095
10761W        W30295   1.939  14.076   1.931 -0.0526 -0.1013  0.3754
10762W        W30296  10.509  12.519   4.127 -0.1682  0.4565  0.0532
10763W        W30297   1.845   3.470  13.867 -0.1229  0.0317 -0.2027
10764W        W30298   6.999  11.600   0.168 -0.1172 -0.0621 -0.1767
10765W        W30299   1.029  12.748   2.841  0.1526 -0.0062 -0.1996
10766W        W30300   1.578   5.960  16.362  0.1935  0.2035 -0.3861
10767W        W30301  16.805   1.503  15.584  0.1622  0.1868 -0.3189
10768W        W30302  10.983  11.205  12.319  0.1579 -0.3224 -0.2971
10769W        W30303   6.325   2.847  16.022  0.0355 -0.2738 -0.2011
10770W        W30304   3.400   6.246  12.932 -0.0068 -0.1877  0.2110
10771W        W30305  16.879  13.618  16.753 -0.0823  0.0491 -0.1089
10772W        W30306  15.640   2.981  15.564  0.2250  0.1626 -0.3257
10773W        W30307   5.788   7.366   1.441  0.2083 -0.1430 -0.0006
10774W        W30308  12.771   5.760   4.897  0.0516  0.0743 -0.1755
10775W        W30309   3.412   1.473  14.436  0.0917 -0.3050  0.2893
10776W        W30310   1.131   7.635   1.303  0.1863  0.1356 -0.1435
10777W        W30311  16.674  14.216  13.938  0.1345 -0.0267 -0.0026
10778W        W30312   7.317   6.054  16.029  0.2111  0.0483 -0.2666
10779W        W30313   4.893  10.787  13.702  0.0798 -0.1074 -0.1523
10780W        W30314  16.852   5.933   0.221 -0.1789  0.1267  0.1730
10781W        W30315  11.592  13.694  12.186  0.0343  0.0386  0.2287
10782W        W30316  16.180  15.248  15.128  0.0801 -0.1782 -0.0931
10783W        W30317   8.945   0.013   4.707  0.1455  0.0786 -0.0014
10784W        W30318   9.448  14.695  13.394  0.3091  0.2215  0.0918
10785W        W30319  11.095   2.697   2.292  0.0039  0.0944  0.2268
10786W        W30320  16.669  10.126   0.193  0.0209 -0.2454 -0.0742
10787W        W30321  15.361  14.090   4.990  0.1992  0.0129 -0.1483
10788W        W30322   4.384   9.565   4.311 -0.3163 -0.2248  0.2110
10789W        W30323  11.012  10.516   5.665 -0.0304  0.0172  0.2200
10790W        W30324  12.237   4.817  16.154 -0.1761 -0.4091 -0.2541
10791W        W30325   7.901  14.882   4.933  0.2197 -0.0846  0.0658
10792W        W30326  15.959  14.936   0.075 -0.0863  0.0212 -0.0934
10793W        W30327  15.912   7.474   1.518 -0.0988 -0.3441 -0.1972
10794W        W30328   2.737  15.077   1.971  0.2299  0.4184 -0.1648
10795W        W30329   2.773  10.985   4.253 -0.0809 -0.1461 -0.0124
10796W        W30330  14.941  14.589  14.684 -0.0238 -0.0106  0.0848
10797W        W30331  12.940   2.281   0.843 -0.3210  0.1003 -0.2876
10798W        W30332   0.879   4.562  13.762 -0.0240  0.1081 -0.2404
10799W        W30333   2.726  14.263  16.392 -0.3321  0.0845  0.1855
10800W        W30334   6.652  16.771   4.294  0.0649  0.3021 -0.0160
10801W        W30335  10.898  12.599   5.019  0.2094  0.3069 -0.0577
10802W        W30336   2.674   5.091   0.060  0.1837  0.2902 -0.0005
10803W        W30337   4.970   7.926   1.252 -0.0066  0.2793  0.0528
10804W        W30338   0.659   7.107   0.887  0.0113 -0.1755 -0.0995
10805W        W30339   5.955   2.130  12.827 -0.1762 -0.0307  0.5488
10806W        W30340   3.580   2.776  14.887  0.1904  0.1144  0.0421
10807W        W30341   1.748  12.850  15.538  0.0982  0.0565 -0.1972
10808W        W30342   3.211  10.711  14.658  0.0725 -0.1949  0.0620
10809W        W30343   2.618  17.290   1.894  0.0103  0.0323  0.0372
10810W        W30344   7.792  15.018  12.453 -0.0052  0.1099 -0.1645
10811W        W30345   7.644  17.061  14.848 -0.2919  0.0167 -0.1133
10812W        W30346   4.324   6.768  16.418  0.0661 -0.0413  0.1179
10813W        W30347  17.173  14.726  16.372  0.0200  0.0086  0.2929
10814W        W30348  16.333   1.950  14.196  0.3369  0.1596  0.1262
10815W        W30349  10.343   8.213  14.429  0.2577  0.1242  0.2688
10816W        W30350  11.128  11.343   3.912  0.1373  0.3389 -0.0238
10817W        W30351   3.089   4.697  16.141 -0.0054  0.1262 -0.0018
10818W        W30352   0.850  15.575  12.348  0.1738  0.0061  0.1945
10819W        W30353   3.815   4.975   0.595  0.0891  0.0851  0.2913
10820W        W30354   8.819   6.270  14.486  0.0562 -0.0772 -0.0501
10821W        W30355   9.480  14.578  15.493  0.3281  0.1557 -0.2798
10822W        W30356   0.094   5.102   3.407  0.0930  0.2045  0.0300
10823W        W30357   2.671  16.034  13.673 -0.0318  0.2148  0.1003
10824W        W30358   2.827  15.554   0.086 -0.0076  0.3396  0.1179
10825W        W30359   4.501   2.516   2.880  0.1413 -0.0909 -0.0307
10826W        W30360   8.617   0.902   2.250 -0.2062  0.0415  0.1251
10827W        W30361   2.370   8.443  14.639  0.2488  0.0490 -0.0222
10828W        W30362  10.059   4.379   1.928  0.1635  0.0138 -0.0597
10829W        W30363   1.277  10.166  12.496 -0.2484  0.2749  0.2138
10830W        W30364   4.837   1.377   2.465  0.3160 -0.0103 -0.1648
10831W        W30365  16.341  11.860  14.865  0.0580  0.0191 -0.2374
10832W        W30366   7.574  16.477   0.499  0.3896 -0.0324  0.2804
10833W        W30367   0.460   3.288   0.753  0.1690  0.0323 -0.1366
10834W        W30368   6.252   3.275  12.759  0.0135 -0.2256  0.1378
10835W        W30369  11.240   8.184   0.000 -0.0572 -0.0705  0.0169
10836W        W30370   8.889   8.552   1.347 -0.0233  0.2028  0.0560
10837W        W30371   9.849  16.866  12.497  0.0416 -0.0127 -0.5050
10838W        W30372   5.624   0.788  14.387 -0.2768 -0.1147 -0.1135
10839W        W30373   0.274  17.364   1.148  0.1238 -0.0869  0.2162
10840W        W30374   7.441   9.975  15.676 -0.0310 -0.0211 -0.0493
10841W        W30375   4.162  11.767  14.802 -0.1118 -0.0830  0.1092
10842W        W30376  16.781  14.613   3.347 -0.0171 -0.1470  0.0653
10843W        W30377   4.022  13.779  14.467 -0.0001 -0.1363  0.0578
10844W        W30378  12.430   9.255   0.360 -0.1004  0.1288 -0.0538
10845W        W30379   6.151   7.759   2.350 -0.0415 -0.0257  0.0287
10846W        W30380   8.335  11.411   1.870  0.0006  0.0309  0.4351
10847W        W30381  15.863   8.735   2.053 -0.0786 -0.1537 -0.0882
10848W        W30382   2.399   5.019  16.987 -0.0285  0.0175 -0.1228
10849W        W30383   4.430  14.896   1.619  0.0518  0.0566 -0.1639
10850W        W30384   7.552  14.773   2.726 -0.0452 -0.0170  0.0347
10851W        W30385   6.094  12.408  13.796 -0.0180 -0.0811 -0.4038
10852W        W30386   2.539  13.864  14.078 -0.3540 -0.0114 -0.1666
10853W        W30387   2.189   0.814  15.582  0.0877  0.1010  0.1570
10854W        W30388   9.531  13.290  16.244 -0.1121  0.1823 -0.0943
10855W        W30389  15.908   6.335  13.799  0.1044  0.0016  0.0643
10856W        W30390  10.366   1.913   4.848  0.2437  0.3190  0.2328
10857W        W30391  13.093   4.662   4.235 -0.0701  0.0097 -0.1254
10858W        W30392  13.839   0.519  15.386  0.0101  0.1061 -0.0979
10859W        W30393  10.705  13.596  17.006 -0.1167 -0.2498  0.2421
10860W        W30394  11.849  12.265  16.540 -0.0509 -0.1552  0.1988
10861W        W30395  16.772  14.728  12.250 -0.0793 -0.1395 -0.1054
10862W        W30396  17.254  15.659   0.354  0.1009  0.1484 -0.0670
10863W        W30397   6.545   3.012  12.066 -0.0435 -0.0189  0.0450
10864W        W30398   8.994   7.009   1.658 -0.2980 -0.2839  0.1203
10865W        W30399  11.473   4.737  15.427  0.1847  0.0662 -0.0221
10866W        W30400  12.377  15.661   0.700  0.3126  0.4015  0.1628
10867W        W30401  15.128  15.400   5.370  0.1138 -0.0455  0.4715
10868W        W30402  13.736   1.980  13.914  0.0482 -0.1504 -0.0147
10869W        W30403  14.886   6.002  16.592 -0.2297  0.0026  0.1271
10870W        W30404   2.021  10.226  13.023  0.0016  0.1368 -0.0881
10871W        W30405  16.463   4.943  15.801 -0.0290 -0.2118  0.0408
10872W        W30406  12.434   7.040  12.935 -0.0407  0.0318  0.1541
10873W        W30407  15.324  13.879   1.169  0.0157 -0.2420  0.0973
10874W        W30408   9.064   0.192  16.387  0.0438  0.1262  0.0129
10875W        W30409   3.079   0.984  15.322  0.3240  0.0792 -0.0171
10876W        W30410   7.277  12.333   0.829 -0.0130 -0.0400  0.2394
10877W        W30411   4.577  13.810   3.996 -0.1410  0.2223 -0.2121
10878W        W30412   6.505  14.098   1.981 -0.0622 -0.1317  0.0014
10879W        W30413  10.920  17.460   0.677 -0.3512  0.1180  0.2750
10880W        W30414  10.944   1.883  16.614  0.0828 -0.0004  0.2149
10881W        W30415   9.518   4.007  14.262  0.0718  0.0811  0.2460
10882W        W30416  12.772   1.078   4.448 -0.0017  0.0634  0.0385
10883W        W30417  13.368  14.635  16.960 -0.2469 -0.0730  0.0850
10884W        W30418   4.076  14.796   2.774  0.3825 -0.1466  0.1335
10885W        W30419  13.919   5.070  16.012 -0.1342 -0.1221 -0.0165
10886W        W30420  13.488   2.386   0.305 -0.1482 -0.0315  0.1176
10887W        W30421  14.146  13.472   2.313  0.3043  0.0485  0.0648
10888W        W30422   8.279   3.629  15.440  0.0136  0.0549 -0.1358
10889W        W30423  15.677   0.268   1.260  0.0148 -0.0177  0.1085
10890W        W30424   9.325  11.241   2.577 -0.1435  0.2008  0.0680
10891W        W30425   4.305   0.905   5.315  0.0695 -0.0753  0.3557
10892W        W30426   4.476  14.309  16.602 -0.1114  0.2106 -0.1022
10893W        W30427  17.339   0.278   2.774 -0.0355 -0.0281  0.0349
10894W        W30428   5.042  15.117   2.248  0.1848 -0.0672 -0.1676
10895W        W30429   6.899  12.338   1.969 -0.1364  0.1152  0.2628
10896W        W30430  14.185   0.719   2.259 -0.1903  0.1071 -0.3971
10897W        W30431   4.251   9.038  13.377 -0.0525 -0.1909 -0.0806
10898W        W30432  14.219   6.740  13.814  0.0687  0.0604  0.0927
10899W        W30433   8.686   4.602  12.647 -0.1130 -0.0441  0.0483
10900W        W30434   2.819  13.479  15.571 -0.0082  0.2445  0.1260
10901W        W30435   1.061   3.022  13.531  0.0160  0.2013  0.0639
10902W        W30436   1.209  15.590  16.523  0.1014 -0.2693 -0.0047
10903W        W30437  12.876   4.841   4.700  0.1192  0.0279 -0.0585
10904W        W30438   4.849   5.219   0.721  0.1484  0.0080 -0.1695
10905W        W30439  16.742  10.166   0.747 -0.0509 -0.0075  0.0701
10906W        W30440  12.835   9.949   1.582  0.0952 -0.0264  0.0091
10907W        W30441  10.137  12.787  12.919 -0.2549  0.0579  0.0400
10908W        W30442  15.998  11.753   0.462  0.4360 -0.1981  0.1405
10909W        W30443   9.554  10.217  16.413 -0.0020  0.2318  0.0695
10910W        W30444   6.629  16.613   3.776  0.0556  0.0454 -0.1439
10911W        W30445   2.949  15.813   2.698  0.0339  0.0952 -0.1259
10912W        W30446  10.176   8.689  12.191  0.0158 -0.0395  0.0678
10913W        W30447  15.546   0.349   4.320 -0.0441 -0.1670  0.2353
10914W        W30448   9.656   4.189   4.486 -0.0930 -0.2296  0.0280
10915W        W30449   9.782   6.036   2.427 -0.2920 -0.1550 -0.3611
10916W        W30450  13.218  13.274   4.953 -0.2057 -0.2176 -0.2112
10917W        W30451  12.988   0.780  15.501  0.2012  0.0096  0.0993
10918W        W30452  16.411  10.013  12.700 -0.3043 -0.0501 -0.0578
10919W        W30453   0.983   8.860   0.962  0.0538  0.1232 -0.2140
10920W        W30454   4.634   1.842  14.370  0.1707 -0.1557  0.1115
10921W        W30455   6.079  17.295  12.691 -0.0481 -0.1235  0.0667
10922W        W30456   1.376  11.480  16.891 -0.0539  0.0178  0.0333
10923W        W30457   9.413   0.435   0.207  0.0329 -0.1951  0.1537
10924W        W30458   9.220  15.016  17.153 -0.0704  0.1900 -0.0122
10925W        W30459  10.644   0.198  14.584  0.3698  0.2320  0.5437
10926W        W30460   9.376   3.204  15.922  0.1566 -0.0204  0.0208
10927W        W30461  14.715   2.680   4.117  0.1034 -0.0243 -0.1383
10928W        W30462   9.484  10.145  13.159  0.4798  0.0628  0.0931
10929W        W30463   2.662  16.800   2.385  0.0352  0.2285  0.3381
10930W        W30464   2.596   3.278  15.291 -0.3744 -0.0481 -0.2036
10931W        W30465  15.907  16.759   4.216  0.2135  0.2286  0.0809
10932W        W30466   3.843  11.797   0.336  0.0815  0.0728 -0.1485
10933W        W30467   7.131  14.937   1.214  0.0799 -0.2929  0.1609
10934W        W30468   0.837   1.752  13.701  0.1423 -0.0395  0.1489
10935W        W30469  15.384  17.043  11.828 -0.1033  0.1640  0.0629
10936W        W30470   7.543   3.507   2.245  0.3711  0.2336  0.0732
10937W        W30471  15.521  12.071  15.143 -0.1193  0.1377  0.1494
10938W        W30472  16.996   9.397   2.522 -0.0581 -0.2148  0.2480
10939W        W30473   1.643  14.512  12.602 -0.1679 -0.3914 -0.0110
10940W        W30474  14.929  10.407   0.950  0.4128 -0.1114  0.1533
10941W        W30475  13.055   5.643  15.353 -0.0738 -0.1474 -0.0819
10942W        W30476  13.377   2.972   3.380 -0.1682 -0.2276 -0.0883
10943W        W30477   6.150   5.235  16.705 -0.3119 -0.2159 -0.2443
10944W        W30478  16.315   5.063  12.691  0.0564  0.3248 -0.0933
10945W        W30479  15.841  15.069  14.732 -0.0071  0.0731  0.2544
10946W        W30480   7.373   2.907  12.978 -0.0672 -0.1816  0.1727
10947W        W30481   9.857   5.441  17.068  0.0085  0.4674  0.0441
10948W        W30482   8.113  12.252   1.718 -0.1715  0.0173 -0.0631
10949W        W30483  12.520  16.539   4.483  0.0948  0.2075 -0.4495
10950W        W30484   8.961   7.785   2.885  0.2715 -0.1164 -0.1343
10951W        W30485   1.869   4.423  15.169 -0.0930 -0.2601 -0.0034
10952W        W30486   7.882   2.939   0.631  0.0009  0.3501  0.2235
10953W        W30487   2.448  10.248   5.160 -0.1236  0.2151 -0.0687
10954W        W30488   5.128  10.233   4.490  0.1538  0.1496  0.0082
10955W        W30489   3.630   7.226  12.416 -0.0772 -0.0453 -0.0465
10956W        W30490   8.936  10.197   0.073  0.1508 -0.0603  0.1725
10957W        W30491   1.381   7.066   1.858  0.4014  0.1489  0.1115
10958W        W30492  14.087   3.692   3.272 -0.1927 -0.2462  0.2268
10959W        W30493  14.374   3.310  12.999 -0.0233 -0.0447 -0.1234
10960W        W30494   6.985   8.937  15.814  0.5364 -0.1131  0.0974
10961W        W30495   5.988   9.904   3.289  0.1360  0.1075  0.0509
10962W        W30496  10.352  15.727  12.422 -0.0018 -0.0374  0.0464
10963W        W30497   0.620   9.600   0.844 -0.1412  0.0979 -0.2900
10964W        W30498   4.467  14.353  13.814  0.0321  0.0477 -0.2341
10965W        W30499   9.218   4.386   2.381 -0.0407  0.3864 -0.2228
10966W        W30500   5.307   6.123   3.838 -0.0965 -0.1359  0.2108
10967W        W30501  12.872  15.117   2.896  0.1173 -0.1618  0.0475
10968W        W30502  13.861   3.410  12.700 -0.1330  0.2922  0.1359
10969W        W30503   0.522  13.440   3.383 -0.0730 -0.0493 -0.0286
10970W        W30504  17.426   5.535  13.786  0.1372 -0.1412  0.3835
10971W        W30505   1.957   2.838  16.986  0.0907  0.0312  0.1205
10972W        W30506   7.514  13.556   2.207  0.1683 -0.0228 -0.0756
10973W        W30507   8.004  17.139   2.112 -0.0987  0.0016 -0.0649
10974W        W30508   3.130   7.343   2.655  0.0378 -0.1927  0.0778
10975W        W30509   0.976  10.831   1.291 -0.0081  0.2065  0.0493
10976W        W30510   8.624   9.751   0.725  0.0169  0.2168 -0.4434
10977W        W30511  12.892  14.742  13.730 -0.0457  0.0036  0.1697
10978W        W30512  13.873   1.334  16.577 -0.2241 -0.2348  0.0610
10979W        W30513  12.226   3.614  15.474  0.0001  0.1224 -0.3412
10980W        W30514   3.585   0.208   5.009  0.1892  0.0375 -0.1262
10981W        W30515   0.967  16.217   2.097 -0.1605 -0.2682  0.4278
10982W        W30516   4.036  14.647   4.250  0.2464 -0.0638  0.2174
10983W        W30517   9.358   4.342   0.206  0.0811 -0.0167 -0.2089
10984W        W30518  15.697   5.425   0.649 -0.0534 -0.2688 -0.2018
10985W        W30519  12.811  17.309   3.203 -0.3763  0.1397 -0.1847
10986W        W30520  13.857   9.853  15.553  0.0670  0.1045  0.1821
10987W        W30521   0.288  13.245  14.423 -0.0460 -0.3515  0.0002
10988W        W30522   9.685  16.619   4.165 -0.1366 -0.0535 -0.0671
10989W        W30523   9.889  13.284  13.979 -0.1708 -0.0528 -0.0778
10990W        W30524  14.951   4.709  14.599  0.0716  0.0263  0.0403
10991W        W30525  13.505   1.254  12.090  0.1617 -0.1941 -0.0083
10992W        W30526   9.211  15.010  14.623 -0.0106 -0.0206 -0.0881
10993W        W30527   4.636   7.636  16.438 -0.2308  0.3550 -0.0686
10994W        W30528   0.194   4.323  16.312  0.1397 -0.2084  0.1166
10995W        W30529  11.802  12.506   1.755 -0.0413  0.4265  0.0511
10996W        W30530   6.775  16.555   0.801  0.1935  0.1988  0.0309
10997W        W30531  14.605  15.967   0.096  0.0458 -0.2100 -0.0083
10998W        W30532   2.492   3.620   2.965 -0.2166  0.0107  0.3520
10999W        W30533  10.359   3.428  13.401  0.0416  0.1551  0.0866
11000W        W30534  10.334  11.373  13.827  0.2163  0.1544 -0.0815
11001W        W30535   0.818   1.510   5.053  0.0637  0.1877 -0.1625
11002W        W30536   8.308   0.964  16.355  0.0706  0.2863  0.0471
11003W        W30537   4.827  14.517   4.569  0.2421  0.1125 -0.0412
11004W        W30538   3.767  10.090  11.958 -0.0238  0.0669  0.0117
11005W        W30539  12.033   8.847  14.102  0.1092 -0.4533 -0.1909
11006W        W30540  15.375  12.821   4.305  0.0866 -0.3707  0.1042
11007W        W30541   6.891   3.443   2.306 -0.4600  0.0261 -0.2659
11008W        W30542   6.433   9.551   0.346 -0.1822 -0.0671  0.1318
11009W        W30543   7.184   6.994  15.666  0.0000 -0.2101 -0.2391
11010W        W30544  10.291  14.373  15.692 -0.2406 -0.1201 -0.0172
11011W        W30545   7.031  12.244  13.396 -0.0977 -0.0336  0.0741
11012W        W30546   3.470  13.071   1.520  0.0376  0.1858 -0.1963
11013W        W30547  15.722   6.988  12.831 -0.2536 -0.2503 -0.0934
11014W        W30548   4.558  15.179  16.564 -0.1094 -0.2013  0.3377
11015W        W30549   2.468   0.328  12.388 -0.1969  0.0963 -0.1117
11016W        W30550  17.218   8.537  16.598  0.1186  0.2397  0.2911
11017W        W30551  16.803  10.935   4.910  0.3572  0.0968 -0.5493
11018W        W30552   3.111   7.172  16.823 -0.2785 -0.1068  0.0004
11019W        W30553   4.819  16.525  16.212 -0.1820  0.1371 -0.1257
11020W        W30554  12.833  14.422   0.987 -0.0319 -0.0941  0.2083
11021W        W30555   5.729  12.827   3.872  0.2054 -0.0575  0.0952
11022W        W30556  14.393   1.934  16.034 -0.1324  0.1533  0.3650
11023W        W30557   1.982  13.744   2.980 -0.1844 -0.0109  0.1310
11024W        W30558   4.684  14.067   4.604 -0.1391  0.1211  0.0303
11025W        W30559   8.784   4.046  12.558  0.1745  0.0419  0.0121
11026W        W30560   7.744  13.652   2.906  0.2728 -0.1144 -0.0349
11027W        W30561  10.154  15.497   5.103  0.0022 -0.2046 -0.1506
11028W        W30562   4.710  11.630  15.602 -0.1954  0.1554 -0.0434
11029W        W30563   8.887  13.078   1.763  0.0152 -0.1366 -0.2638
11030W        W30564  13.231  16.669  14.682  0.0683 -0.0837  0.1439
11031W        W30565   3.750   8.880   4.711 -0.3459  0.0179 -0.0298
11032W        W30566  15.203   9.855  15.478 -0.4686 -0.0312  0.1852
11033W        W30567  10.586   8.822  16.023 -0.1585  0.0840  0.3526
11034W        W30568   3.780   6.578  11.943  0.3553  0.0083 -0.0050
11035W        W30569   9.483  16.516  12.317  0.3241 -0.0383  0.1841
11036W        W30570   6.504  14.773   5.074  0.1031  0.0627  0.1619
11037W        W30571   6.018  14.879   3.000 -0.1344 -0.2071  0.1839
11038W        W30572   3.779   6.991  15.688 -0.0050  0.0511 -0.0408
11039W        W30573   5.200   7.372   3.408  0.0903  0.1779 -0.0069
11040W        W30574   5.897   9.738  12.978 -0.3531  0.1105 -0.1818
11041W        W30575  12.358   4.833   1.149 -0.0263 -0.0167  0.0699
11042W        W30576   7.834  17.213  13.818  0.1207  0.0298 -0.0683
11043W        W30577  15.773  12.633  12.705  0.0719  0.2616 -0.2027
11044W        W30578  13.784  15.023  15.508 -0.2831 -0.1879 -0.1812
11045W        W30579   4.441   8.882  13.980 -0.0749 -0.0004  0.1127
11046W        W30580   9.386  11.418  13.416 -0.1125 -0.1258 -0.0036
11047W        W30581  14.098   0.988  13.937  0.1469 -0.1441  0.3732
11048W        W30582   7.387   8.923  13.185  0.0368 -0.0646  0.0753
11049W        W30583   1.327   6.373  13.119  0.1423  0.1246 -0.0091
11050W        W30584   5.811  14.303  15.844  0.0863  0.0446  0.0434
11051W        W30585  11.679   1.431   1.027  0.0838 -0.0907  0.2738
11052W        W30586  12.670   1.279   4.868 -0.2583  0.2644 -0.1506
11053W        W30587   5.694   4.972   4.937  0.0568  0.1886  0.1058
11054W        W30588  13.679   2.221  17.147  0.0757  0.2623  0.1394
11055W        W30589   1.828  16.188   2.178 -0.1462  0.0795  0.1353
11056W        W30590   3.772  11.717   4.311 -0.4708  0.2345  0.1890
11057W        W30591   3.357  10.347   4.245 -0.2331 -0.0979  0.0862
11058W        W30592  17.315   4.991  13.469 -0.0300 -0.1313 -0.0785
11059W        W30593   9.394   0.700   2.047 -0.0659  0.1860 -0.0080
11060W        W30594   3.908   2.125  15.467 -0.0518  0.1997 -0.0080
11061W        W30595  10.345   7.653   4.042 -0.1650 -0.2140  0.0959
11062W        W30596   4.731  12.537   4.755 -0.0284  0.0814  0.2538
11063W        W30597   1.248   7.010   3.024 -0.2217  0.0121 -0.0013
11064W        W30598  16.678   4.238  12.241 -0.3228 -0.1146  0.0040
11065W        W30599   7.385   2.011  14.063  0.0687  0.0378  0.1661
11066W        W30600  15.124   3.403   2.357 -0.1744 -0.2112 -0.1801
11067W        W30601  17.032   6.294  13.164 -0.1693 -0.0803 -0.0931
11068W        W30602   9.996   8.017   1.925  0.1013  0.0410 -0.1538
11069W        W30603  15.336   1.792  13.691  0.1804 -0.0810  0.1146
11070W        W30604   0.059  12.469  15.586 -0.4367 -0.0812 -0.1362
11071W        W30605   3.717   1.162   1.599  0.2231  0.0838  0.1558
11072W        W30606  13.066   9.531   1.249  0.1932  0.2690 -0.3079
11073W        W30607  12.114   9.721  16.911 -0.1924 -0.0044 -0.1536
11074W        W30608  17.136   4.657  15.807 -0.1269  0.0052 -0.4127
11075W        W30609  16.382  16.835  14.173 -0.0173 -0.3036 -0.3102
11076W        W30610  14.633  14.023  12.774  0.2833  0.1931  0.1443
11077W        W30611   8.459  13.109  14.228  0.4003 -0.0501  0.1092
11078W        W30612   9.206   9.021   5.160  0.0345  0.3917  0.0057
11079W        W30613  14.401   5.380   4.772  0.2066 -0.1488  0.0494
11080W        W30614   6.661   6.537   4.089 -0.0569  0.0598 -0.1557
11081W        W30615  14.413   2.138   4.270  0.2743  0.0018 -0.2364
11082W        W30616   1.349  10.714  13.283 -0.2674  0.0291  0.4274
11083W        W30617   3.001   7.591   4.606 -0.1260  0.0814  0.0835
11084W        W30618   9.751   2.996  14.069  0.0945 -0.0618  0.0242
11085W        W30619  12.488  12.696   2.401  0.1625  0.0587 -0.1074
11086W        W30620   6.428   5.823   2.415  0.1338  0.0660 -0.1031
11087W        W30621   1.692  12.323   5.054  0.1705  0.1571  0.1765
11088W        W30622  13.456  12.376  16.074 -0.0767  0.0141  0.1891
11089W        W30623  17.442  12.260   0.340  0.0836 -0.1823 -0.0677
11090W        W30624  17.206   4.449   3.886 -0.0694  0.0365 -0.0460
11091W        W30625   6.303  11.433   3.748  0.1571  0.2190 -0.3658
11092W        W30626  11.033   4.079  13.647 -0.0944 -0.0598 -0.1856
11093W        W30627   4.537  16.158  14.425 -0.1186  0.1606 -0.2362
11094W        W30628   6.284   2.956   1.816  0.1158 -0.1179 -0.2559
11095W        W30629  12.165   7.589  12.211  0.1271  0.1949  0.1721
11096W        W30630  16.773   2.018  16.491  0.0256 -0.3025 -0.1145
11097W        W30631  13.359   2.483  12.998 -0.1225  0.0689  0.1837
11098W        W30632   4.456  12.599   3.325 -0.0342 -0.3933 -0.0566
11099W        W30633   7.452  12.771   0.542 -0.2066 -0.1261  0.1123
11100W        W30634   2.902  11.247  15.696  0.1031 -0.1774  0.0827
11101W        W30635   7.540   8.276   3.402 -0.1752 -0.1410  0.0399
11102W        W30636   4.342  12.339   1.560  0.2870 -0.2527 -0.0438
11103W        W30637   2.181  16.729  16.953 -0.0728  0.1323  0.0346
11104W        W30638   3.325   2.359   6.183  0.2635  0.1206 -0.1562
11105W        W30639  17.426   6.561   2.721  0.4121 -0.2666  0.0150
11106W        W30640  10.996   0.830   0.808 -0.1634 -0.2013 -0.1315
11107W        W30641  11.258   1.212  15.586 -0.1494 -0.0494 -0.0092
11108W        W30642  12.428   5.333  14.137 -0.0624  0.0499 -0.2679
11109W        W30643  16.888   8.952   2.760  0.1384  0.0025 -0.0647
11110W        W30644  15.512   8.511   2.288 -0.1920 -0.0467 -0.1365
11111W        W30645   0.189  10.623   4.774  0.1359 -0.1695  0.0433
11112W        W30646  14.342   2.532   2.569 -0.0733 -0.3739  0.1697
11113W        W30647   1.558   4.910  16.843  0.0637  0.0202 -0.2332
11114W        W30648  14.934   9.808  16.813 -0.0492  0.0947 -0.1914
11115W        W30649  11.772   8.321   3.036 -0.1841  0.1211 -0.2881
11116W        W30650   0.098   5.694  15.971  0.2092 -0.0578  0.4837
11117W        W30651   6.538  17.159  14.157  0.3528  0.1009  0.1600
11118W        W30652   5.749  14.792   2.224  0.1648 -0.1490  0.0846
11119W        W30653   7.799  12.613   1.997 -0.0851  0.0368  0.3004
11120W        W30654   5.285  14.927   0.080 -0.1305 -0.4036  0.1187
11121W        W30655   6.229   4.758   1.915  0.2906 -0.1125 -0.0313
11122W        W30656   0.252   9.418  12.495 -0.0822  0.2284 -0.0737
11123W        W30657  12.096  14.966   0.212  0.1297 -0.0480 -0.1897
11124W        W30658  15.395  10.617   0.732 -0.0728 -0.0416  0.0946
11125W        W30659   2.978  16.964   4.814  0.0181 -0.0213 -0.0349
11126W        W30660   4.994  17.237  15.707 -0.2739  0.3474  0.0625
11127W        W30661   9.285   6.753   1.954 -0.1123 -0.0341 -0.0937
11128W        W30662   4.698   2.593  17.251  0.1156  0.1927  0.1462
11129W        W30663   2.255  15.900   4.754 -0.2094 -0.0982  0.0529
11130W        W30664   9.321  10.321  13.622  0.0699 -0.0570  0.2300
11131W        W30665  13.111  17.298   2.789  0.1727 -0.1167 -0.0405
11132W        W30666  10.199   8.586   0.143  0.2269  0.0033 -0.2577
11133W        W30667   9.858   7.121   3.539 -0.3608 -0.0743  0.1719
11134W        W30668  14.563  11.438  12.600 -0.1171 -0.1114 -0.0768
11135W        W30669   3.227   6.767   0.609 -0.0992 -0.3553  0.1622
11136W        W30670  15.368  13.504   3.785 -0.0241 -0.1693 -0.0321
11137W        W30671  12.993  11.435   4.850 -0.1533 -0.1852 -0.3177
11138W        W30672   9.715   0.221  14.873  0.1517 -0.2239 -0.1675
11139W        W30673   9.868   1.962  16.488 -0.2118 -0.0661 -0.0707
11140W        W30674  12.615   0.759  15.034  0.0520 -0.1709 -0.1645
11141W        W30675  11.559  14.511   2.904  0.0138 -0.0264  0.1110
11142W        W30676   9.007   1.416  14.616  0.3537 -0.2290 -0.2000
11143W        W30677  17.343   3.257  14.626 -0.0218  0.1029  0.0953
11144W        W30678  13.757   4.518   4.838 -0.1890 -0.1020  0.0448
11145W        W30679  11.929   8.252  14.022  0.2882  0.3195  0.0197
11146W        W30680   6.337   4.907   3.484  0.2777 -0.1120  0.1031
11147W        W30681  13.145  13.299   0.629 -0.1900 -0.1704  0.2109
11148W        W30682  10.074  11.289  16.628  0.2768 -0.1096  0.0942
11149W        W30683  11.127  13.267   4.144 -0.0999  0.2120  0.0857
11150W        W30684  15.162   1.707   3.862 -0.0226  0.0237  0.1976
11151W        W30685  13.616   0.974  15.403 -0.1770 -0.0422  0.1427
11152W        W30686  10.852   5.345  16.906  0.0577  0.1034 -0.0226
11153W        W30687   2.340  16.829  13.812  0.0642 -0.0003  0.1574
11154W        W30688   2.232   2.400  16.220 -0.1675  0.0850 -0.0548
11155W        W30689   0.388   1.025   4.478  0.3598  0.0310 -0.3497
11156W        W30690  13.983   9.056   1.558 -0.1667  0.1252 -0.2401
11157W        W30691   1.620  16.069  12.745 -0.0747 -0.1916 -0.2569
11158W        W30692  13.203   5.885   1.396 -0.0504 -0.1666  0.0688
11159W        W30693   1.750   3.740  16.189 -0.2303 -0.1267  0.0396
11160W        W30694   1.793   2.462   2.592  0.1920  0.0963  0.2824
11161W        W30695  12.647  10.155   0.586 -0.0340 -0.1601  0.2082
11162W        W30696  14.361   9.752  13.058  0.0861  0.1458  0.0457
11163W        W30697   6.504   3.324   4.936  0.0756 -0.2914  0.0317
11164W        W30698  14.826   8.851   3.084  0.0774  0.0490  0.2370
11165W        W30699  13.172   4.625   2.163  0.3756  0.1198  0.1153
11166W        W30700  10.999   0.918   4.140 -0.0565 -0.1535 -0.0342
11167W        W30701  14.275  10.995   2.348  0.0939  0.3419  0.2602
11168W        W30702  13.770   0.887   4.357  0.2230  0.2404 -0.0840
11169W        W30703   6.307  10.140   4.955  0.1276  0.0537  0.1645
11170W        W30704   1.470  17.306  13.111  0.0489  0.6078  0.0169
11171W        W30705  12.041  13.844  17.272  0.0207  0.0963  0.0327
11172W        W30706   8.232  16.202  13.761  0.1752 -0.0126  0.2308
11173W        W30707   4.717   6.119   0.337 -0.2144  0.3249  0.2338
11174W        W30708   4.443   0.775   4.862 -0.2005 -0.0282  0.1991
11175W        W30709  17.198   8.443   0.332  0.1123  0.0765 -0.0098
11176W        W30710   8.092  16.303  16.834 -0.1448  0.0953 -0.4040
11177W        W30711  13.596   5.801  17.000  0.0945 -0.1925  0.1141
11178W        W30712   6.928   5.797   2.406 -0.0428  0.1939 -0.2879
11179W        W30713  14.103   9.274   1.979 -0.0497  0.0543  0.1798
11180W        W30714  17.215  10.230  14.677 -0.3018 -0.0530 -0.1174
11181W        W30715   9.435   3.691   2.768 -0.1840  0.0623 -0.2217
11182W        W30716   8.731  10.053  15.966 -0.2493 -0.1811  0.1574
11183W        W30717  15.790   2.602   3.821 -0.0343  0.0181 -0.4643
11184W        W30718   4.450   0.357  14.114  0.0799 -0.0671  0.0769
11185W        W30719   6.586  10.633  16.747 -0.0168 -0.1767  0.0131
11186W        W30720   5.337   2.013   3.554  0.1054  0.2243 -0.0282
11187W        W30721  17.010   7.951   4.700 -0.1610  0.0623 -0.0928
11188W        W30722  11.920   5.201   2.544  0.0784 -0.0642 -0.0276
11189W        W30723   8.877   9.442   1.651  0.1442 -0.2592  0.1628
11190W        W30724   3.194  11.265   0.535  0.4320  0.0734  0.0545
11191W        W30725  11.824   8.477   4.323 -0.0865 -0.1365 -0.0880
11192W        W30726  14.464   9.488   3.865 -0.0033  0.0951  0.2724
11193W        W30727   7.679  12.624   3.909  0.0577  0.0936 -0.1263
11194W        W30728  14.731  15.745   1.040 -0.0257 -0.3370  0.1116
11195W        W30729  13.918   6.722  17.004 -0.0426  0.1431 -0.2185
11196W        W30730   2.103   0.961  16.847 -0.0507  0.1603  0.0257
11197W        W30731   4.528  12.881  15.655 -0.2957 -0.1089  0.1182
11198W        W30732   2.620  16.406  14.760 -0.0477 -0.0148 -0.3256
11199W        W30733   6.516   3.249   1.445  0.0379 -0.0259 -0.1761
11200W        W30734   0.217   1.813  15.301 -0.0727 -0.3286 -0.1282
11201W        W30735   4.737  12.863  13.587  0.2900 -0.2207  0.1483
11202W        W30736  15.999   4.159   0.848 -0.0733 -0.0468 -0.0517
11203W        W30737  17.095  14.159  15.253 -0.1303 -0.1150 -0.2409
11204W        W30738   0.711   1.212   0.576  0.0655  0.0843  0.0763
11205W        W30739   0.268   5.304   3.832 -0.0089  0.0662  0.0576
11206W        W30740   1.545  11.413   1.760  0.1700  0.0251  0.0188
11207W        W30741   3.367  13.602  13.344 -0.2139  0.1027  0.1958
11208W        W30742  10.277   8.684  13.137 -0.3398  0.0074  0.1405
11209W        W30743  10.140  15.299  12.779 -0.0984  0.1077 -0.0392
11210W        W30744  11.018   7.402   0.648 -0.1623 -0.2632  0.0583
11211W        W30745   5.977  12.822   3.413  0.1282  0.0211 -0.1411
11212W        W30746   2.300   8.362   2.833 -0.2885 -0.1474 -0.0835
11213W        W30747   1.566  10.400  14.081 -0.0412 -0.0116 -0.0560
11214W        W30748  15.933  14.510  12.779 -0.2649  0.0977  0.3530
11215W        W30749   0.472   0.291  14.940 -0.1170 -0.2328 -0.4645
11216W        W30750   7.595  14.057   4.251 -0.0818  0.0742 -0.1113
11217W        W30751  16.263  13.737  13.287 -0.0456 -0.3665  0.0480
11218W        W30752  12.798   2.149  15.419  0.0725  0.1537  0.0845
11219W        W30753   3.490  10.896   2.468 -0.1890 -0.4224 -0.0006
11220W        W30754   5.449   0.391  13.753  0.0110 -0.0295  0.2217
11221W        W30755   6.691   6.972   4.427  0.1635 -0.1843  0.1550
11222W        W30756  10.755   8.844   1.317 -0.0262 -0.0141 -0.1363
11223W        W30757  12.661  12.529  15.302 -0.4632 -0.1260  0.1821
11224W        W30758   2.579  13.236   1.270 -0.1426  0.2833 -0.0549
11225W        W30759   3.076  15.361  12.655 -0.1201  0.2363 -0.1893
11226W        W30760  15.284  15.524  15.157 -0.0695 -0.0995  0.0740
11227W        W30761  11.606   8.541   2.616  0.2474 -0.3322  0.0950
11228W        W30762   3.203   2.086  13.860  0.2235 -0.0293 -0.2131
11229W        W30763   2.794  11.145  12.327 -0.0088 -0.0605 -0.2050
11230W        W30764  13.067  15.233  16.018 -0.3280  0.1782 -0.2160
11231W        W30765   9.108  15.457   0.364  0.0955  0.0143 -0.1583
11232W        W30766   1.904   2.578  14.018  0.0995  0.1144 -0.0760
11233W        W30767   7.705  14.541  12.644 -0.0054  0.0238  0.3226
11234W        W30768   8.799  10.526   2.140  0.0399  0.0158 -0.2327
11235W        W30769   9.854   9.628   3.241  0.1046 -0.4041  0.1889
11236W        W30770   2.511   7.908   0.463  0.2172 -0.0047 -0.3940
11237W        W30771  11.949  10.179   4.639 -0.0024 -0.0091  0.2527
11238W        W30772  15.636  16.593  15.630  0.0660  0.0460  0.2345
11239W        W30773  15.774  15.584   0.681 -0.2125  0.0887  0.2034
11240W        W30774   4.538   1.294   0.627  0.0301 -0.2531 -0.2974
11241W        W30775   6.565   9.347  15.100 -0.0064 -0.1056 -0.0622
11242W        W30776   6.693  15.027  16.774 -0.0653 -0.0245 -0.2732
11243W        W30777  10.337  13.876   4.432 -0.0372 -0.2153  0.0436
11244W        W30778   7.927  16.142  12.791 -0.2132  0.0012  0.0720
11245W        W30779   5.760  15.431  12.838  0.2792 -0.2494 -0.0839
11246W        W30780   5.444   2.841  14.266  0.1655  0.0227 -0.0562
11247W        W30781  14.485  10.288  14.498 -0.1800  0.0361  0.1397
11248W        W30782   4.125   6.172  16.761 -0.1694 -0.0690  0.0882
11249W        W30783   3.863  14.381  16.489 -0.0514 -0.0216 -0.1025
11250W        W30784   7.179   6.623   0.561  0.0692 -0.0290 -0.2220
11251W        W30785   1.380   8.927  12.178  0.0775 -0.1230 -0.2243
11252W        W30786   2.453   1.121   3.706  0.0230 -0.0605 -0.3162
11253W        W30787   5.464  10.708   0.583  0.0016  0.1980  0.1198
11254W        W30788   6.790   2.781   2.004  0.1820 -0.2012 -0.2502
11255W        W30789   3.165   7.593  12.518  0.0539  0.0445 -0.1879
11256W        W30790   1.627   9.152  17.129 -0.1987  0.1362 -0.1206
11257W        W30791  11.515   0.031  14.325 -0.0932  0.1396 -0.0857
11258W        W30792  10.929   0.999  16.828  0.0945 -0.2452  0.0320
11259W        W30793   5.207  16.717   2.719 -0.2704 -0.0856  0.1869
11260W        W30794   9.629   7.533  13.770 -0.2330 -0.0622 -0.1305
11261W        W30795   4.482  16.951   5.017  0.0727  0.1750  0.1531
11262W        W30796   8.433   5.938   4.520  0.0268 -0.0054 -0.0690
11263W        W30797   8.501   7.875  15.423 -0.0620  0.0866 -0.0159
11264W        W30798   7.036   9.365  14.921 -0.2613 -0.2686  0.0167
11265W        W30799   5.261   7.926  16.200 -0.0277 -0.1037 -0.2600
11266W        W30800   2.835   5.494   2.912  0.0406  0.1256  0.2226
11267W        W30801  12.154   3.656   3.587  0.0644 -0.1174  0.1832
11268W        W30802   9.364   7.075   1.046 -0.3973  0.4113 -0.0738
11269W        W30803   2.998   1.738  14.816  0.0828  0.0936  0.5468
11270W        W30804   0.372  16.921   2.771 -0.1455 -0.0991 -0.0824
11271W        W30805   8.064   4.396   3.636 -0.0267  0.0187  0.1105
11272W        W30806  15.959  11.446   2.270 -0.1603 -0.1601 -0.0418
11273W        W30807  12.904   8.770   0.923  0.0929  0.2070  0.1973
11274W        W30808  12.225   4.942  13.896  0.1617 -0.2421 -0.0801
11275W        W30809  11.109   6.946  13.159  0.1217  0.0258  0.0138
11276W        W30810  10.646   4.614  12.783 -0.0194 -0.1233 -0.1599
11277W        W30811  16.871   0.045  16.811 -0.2564 -0.2163 -0.0332
11278W        W30812   5.027   1.235   0.788  0.0453 -0.0671 -0.2494
11279W        W30813  11.341  12.788  15.918  0.0138  0.0755  0.0038
11280W        W30814  13.799   8.397   2.463  0.0676  0.0658  0.2990
11281W        W30815   2.274  11.736   0.873  0.0036 -0.1508 -0.0253
11282W        W30816   8.718   8.635  16.121  0.0364  0.2111  0.0565
11283W        W30817   1.920  11.819  11.978  0.0487 -0.1022  0.3412
11284W        W30818   4.008  16.954   2.312  0.1271 -0.0005 -0.1316
11285W        W30819   9.288   0.907  13.959 -0.2998  0.3651 -0.0565
11286W        W30820   6.372  16.140   2.510 -0.0552 -0.0792 -0.0129
11287W        W30821   7.595  10.357   1.732  0.1970 -0.2575 -0.1041
11288W        W30822  17.211  12.001   1.276  0.1519 -0.2391  0.0262
11289W        W30823   2.019  10.363  14.327  0.4686 -0.0260  0.0453
11290W        W30824   7.840   7.840   5.050 -0.0640  0.0490  0.1701
11291W        W30825   1.105   5.940  15.984  0.0418  0.0871 -0.0118
11292W        W30826  16.342   7.826   1.628  0.0183  0.1837  0.0192
11293W        W30827   7.255   0.557  15.156 -0.2595  0.1702  0.1093
11294W        W30828  14.442  13.179   0.538 -0.1350  0.1663 -0.2736
11295W        W30829   4.625   3.429  16.963 -0.0208 -0.2887  0.0394
11296W        W30830   4.824  15.579  14.981 -0.0731 -0.0695  0.0015
11297W        W30831  17.168  12.153  15.439  0.1899 -0.1269  0.0868
11298W        W30832   7.020  10.927  16.746 -0.1386 -0.0632 -0.2764
11299W        W30833  16.447   3.348  17.152  0.0194  0.0456  0.1568
11300W        W30834  13.688  11.655  15.010 -0.1695 -0.0752 -0.1638
11301W        W30835   3.713   4.479   0.816  0.1018 -0.2486  0.0444
11302W        W30836   1.250  13.538   4.902 -0.1432 -0.0705 -0.0791
11303W        W30837  10.475   9.410   1.311 -0.0003  0.1862 -0.0137
11304W        W30838  15.566  13.112   4.675  0.0120 -0.0642 -0.0237
11305W        W30839   1.778   3.452  15.641  0.0590 -0.3103  0.2318
11306W        W30840  12.172   2.918   2.787 -0.0664 -0.0788 -0.2592
11307W        W30841   5.422  15.345  17.158  0.3079  0.1087 -0.0413
11308W        W30842  15.607   1.548  17.294  0.2208 -0.1035 -0.1884
11309W        W30843  12.910  11.631   4.242 -0.0746 -0.0743 -0.0622
11310W        W30844   6.406   6.561  15.115  0.0926  0.3687  0.0578
11311W        W30845   6.735   0.275   2.312 -0.1426  0.2569 -0.1676
11312W        W30846  14.735  15.879   4.204  0.0284  0.3312 -0.0258
11313W        W30847   6.193   1.938   4.395 -0.1162 -0.0418  0.0854
11314W        W30848  16.644  10.362  16.927  0.0083 -0.0344  0.0036
11315W        W30849   9.827   9.148  15.540 -0.1598  0.0813  0.0348
11316W        W30850   2.796   1.744  15.378  0.0137 -0.1454 -0.1695
11317W        W30851  12.091  12.763   2.965  0.1604  0.0948  0.0343
11318W        W30852  10.236  11.614  16.213  0.2983 -0.0221 -0.1204
11319W        W30853  14.002  14.339   4.206  0.1919  0.2357 -0.0605
11320W        W30854   3.737  12.245  16.408 -0.0263 -0.0706 -0.0895
11321W        W30855  14.583   4.653   2.352  0.1359  0.3855  0.0778
11322W        W30856   3.738   9.261  13.554  0.1093 -0.1272  0.3692
11323W        W30857   3.159  12.526   2.823  0.1803  0.1034 -0.0014
11324W        W30858  10.191  11.476  15.424 -0.0888  0.0044  0.4510
11325W        W30859   6.162  16.171   0.256 -0.0406 -0.1418 -0.1037
11326W        W30860   8.953   6.834  13.843 -0.0799 -0.3302  0.0295
11327W        W30861  13.574  16.782   2.637  0.0284 -0.2142 -0.3134
11328W        W30862   2.666   8.604  15.040  0.3400 -0.6077 -0.1572
11329W        W30863   7.816  15.027   3.115 -0.0416  0.0009 -0.0888
11330W        W30864   8.974   5.170   2.741  0.3140 -0.0904 -0.2924
11331W        W30865   0.649  13.502   2.894  0.1176 -0.0031 -0.1868
11332W        W30866   0.559   6.179  12.980 -0.0683  0.0028 -0.1156
11333W        W30867  15.456  10.878  15.051  0.2104  0.2490 -0.2071
11334W        W30868   5.476  13.962   4.787  0.1121 -0.1273  0.0209
11335W        W30869   3.075   6.611   4.435 -0.1308  0.1704  0.3827
11336W        W30870   9.059   2.305   2.771  0.0257  0.1842 -0.4216
11337W        W30871   4.556  11.650   2.365  0.4013  0.1373 -0.3851
11338W        W30872  10.260   8.377  15.066 -0.0493  0.3386 -0.2233
11339W        W30873  13.897   8.173  11.938 -0.0131  0.0645 -0.1104
11340W        W30874  15.360  13.387  14.452  0.2602  0.0768  0.0842
11341W        W30875  13.619  13.006   3.186  0.0722 -0.2207 -0.0029
11342W        W30876  14.318  16.985  13.812  0.1724  0.0343 -0.1000
11343W        W30877   0.627   0.260  17.025  0.0204  0.0390 -0.1498
11344W        W30878  10.957  13.978   3.538 -0.1854 -0.1516  0.0336
11345W        W30879  14.677   3.269   3.630  0.1211 -0.3113  0.0770
11346W        W30880   9.117   8.454  15.117 -0.3214  0.0186  0.1830
11347W        W30881   2.588  13.390   2.551 -0.0375 -0.0374  0.2506
11348W        W30882  11.257  15.420  15.555 -0.1731 -0.1254  0.2455
11349W        W30883   1.559  14.979  12.854 -0.0608 -0.0842  0.1478
11350W        W30884  16.147   6.809   2.870  0.0023 -0.2742  0.0315
11351W        W30885   4.953   3.266  16.512  0.2060 -0.1355 -0.0914
11352W        W30886  13.666   7.645   0.409  0.1155 -0.4707  0.1423
11353W        W30887   1.328   1.385   1.639 -0.0593 -0.4544 -0.1698
11354W        W30888   7.329   9.542  14.001 -0.1435 -0.3478  0.1081
11355W        W30889   0.401   1.022   0.108 -0.0377  0.0454  0.1229
11356W        W30890  12.534  13.893   5.022 -0.2977 -0.2842  0.3355
11357W        W30891   8.509   2.539   0.003 -0.4353 -0.0595 -0.1858
11358W        W30892   1.881   0.607  16.089  0.3121 -0.1305 -0.1833
11359W        W30893  13.353   9.550   3.248  0.2073 -0.1249  0.2526
11360W        W30894   4.807   8.828   4.831 -0.1864  0.1662  0.0079
11361W        W30895  11.096  15.474  15.064 -0.1013  0.0700 -0.0144
11362W        W30896  16.865   1.944  15.912 -0.0500 -0.3545  0.0413
11363W        W30897  15.509   3.717  13.467 -0.1897  0.0112  0.0970
11364W        W30898   2.416   8.405   0.129 -0.0325  0.1489 -0.0449
11365W        W30899   1.547   8.472  14.524  0.1588 -0.3234 -0.2187
11366W        W30900   3.087   0.811   4.523  0.1110 -0.0430 -0.0725
11367W        W30901  13.762  10.222   2.758  0.0552 -0.1484 -0.2460
11368W        W30902  15.363  15.092  14.199  0.2073 -0.2838 -0.0981
11369W        W30903   2.507  12.269   3.854  0.0741  0.2761  0.0666
11370W        W30904   6.346  10.982  13.277 -0.0118  0.0849 -0.3291
11371W        W30905  15.885  10.385   1.371 -0.0833  0.0601  0.0101
11372W        W30906   0.141  12.066  15.267 -0.3327  0.0218  0.2333
11373W        W30907  15.589  13.243   1.284  0.0073 -0.0546  0.2308
11374W        W30908   4.665  15.457   2.398 -0.1078 -0.2440 -0.4648
11375W        W30909  17.095  15.709   2.507 -0.1329  0.0326  0.1165
11376W        W30910  12.146  11.927   2.428  0.1371 -0.4481 -0.0174
11377W        W30911   9.901  11.960   0.993  0.2273 -0.3647 -0.1750
11378W        W30912  13.974   4.874  14.678 -0.0406  0.0856  0.1094
11379W        W30913   3.675   1.820   3.849 -0.1536  0.3656  0.0598
11380W        W30914   9.844  13.864  15.093  0.1471  0.0703  0.2083
11381W        W30915   6.713  16.135  14.336 -0.0153  0.1845  0.1051
11382W        W30916   5.086   6.313  15.720 -0.1658  0.0538  0.1852
11383W        W30917   6.528   0.325  12.999  0.1965  0.1766  0.1014
11384W        W30918  11.742   3.699  15.293  0.2235 -0.0444  0.0840
11385W        W30919   3.098  11.223   2.737  0.1348 -0.1903  0.2880
11386W        W30920   5.343   5.113  15.655 -0.0391 -0.2775 -0.2769
11387W        W30921   0.546   3.578  15.932 -0.1209  0.1094 -0.0673
11388W        W30922  16.545   9.836  14.274  0.3204  0.0849  0.0932
11389W        W30923   9.539   0.467  13.703 -0.2562 -0.0532 -0.0110
11390W        W30924  10.168  12.309  12.809 -0.0920 -0.1465 -0.1272
11391W        W30925  10.937   7.421  13.421 -0.2377  0.0513  0.1308
11392W        W30926   9.295  15.975   3.349 -0.1095  0.0318 -0.0883
11393W        W30927   8.888   8.905  13.324 -0.0328 -0.2906 -0.1047
11394W        W30928  10.035  15.868   2.790 -0.1046 -0.0944 -0.3995
11395W        W30929  15.725   9.123   4.002 -0.3617  0.3318  0.0780
11396W        W30930   3.430   5.131   1.019  0.0481 -0.1810 -0.1196
11397W        W30931   7.559   4.188   3.642  0.0275  0.0732 -0.1043
11398W        W30932  15.573  16.753  16.124  0.1687 -0.0117  0.0859
11399W        W30933  12.992   5.446   2.453 -0.2211 -0.0471  0.2076
11400W        W30934  15.322   9.539  13.069  0.0275 -0.0593  0.1669
11401W        W30935   6.440  17.140   1.076  0.1006 -0.0870 -0.1093
11402W        W30936  12.363  12.357   4.370 -0.0939 -0.0322  0.0545
11403W        W30937  16.068   5.515  13.699  0.1948  0.2492 -0.1365
11404W        W30938   6.466  12.964   2.644 -0.1510  0.0707 -0.0126
11405W        W30939   0.792   2.663   2.424  0.0959  0.2777  0.2316
11406W        W30940  17.442  16.589  12.712  0.1914 -0.2005 -0.0765
11407W        W30941   4.483  10.558  12.631 -0.1357  0.1933 -0.1812
11408W        W30942  10.402   8.507  14.059  0.1657 -0.1585  0.0806
11409W        W30943   8.320   1.503  17.271 -0.1369 -0.0462 -0.2231
11410W        W30944  12.930  13.643   4.726 -0.0903 -0.0241  0.0405
11411W        W30945   6.963  14.749  16.247  0.0598 -0.1872 -0.1510
11412W        W30946   7.909   1.472   3.337 -0.0108  0.0898 -0.3208
11413W        W30947   5.149  10.064   4.049  0.0745  0.0673  0.1862
11414W        W30948  10.383   9.031  14.045 -0.2119 -0.0647 -0.1862
11415W        W30949  13.661  11.811  14.493  0.0989  0.3045 -0.1778
11416W        W30950   4.205   8.673  16.368 -0.0965  0.0077  0.0136
11417W        W30951   5.684   4.178  16.937  0.0759 -0.0584 -0.0269
11418W        W30952  16.128   0.464  16.285 -0.1369 -0.1999 -0.2556
11419W        W30953   7.371  17.058   0.954 -0.1391 -0.0241 -0.1350
11420W        W30954  10.643   1.367   5.382 -0.0676  0.2650  0.0462
11421W        W30955  13.262   4.816  15.798  0.2793 -0.0341  0.0436
11422W        W30956  14.732  13.938   3.072 -0.1388  0.1249  0.0782
11423W        W30957  10.602   7.095   2.030 -0.2284  0.0175 -0.0133
11424W        W30958  15.385   8.796  13.617 -0.1517  0.1795 -0.0908
11425W        W30959   5.722   8.149  14.069 -0.0129 -0.2514 -0.1571
11426W        W30960   3.250  15.015   1.485  0.1230 -0.1308 -0.1307
11427W        W30961   0.476   2.225   3.919 -0.0615 -0.2426 -0.1561
11428W        W30962   4.458  16.335   2.668  0.1587  0.2299  0.3404
11429W        W30963  14.470  14.368  13.720 -0.0904 -0.2150 -0.1938
11430W        W30964  16.732   1.532  16.196 -0.1880 -0.0616 -0.0380
11431W        W30965   8.641  10.931   4.857  0.0497 -0.1467 -0.1167
11432W        W30966  14.878  11.135  16.773 -0.1276  0.1064  0.0433
11433W        W30967   2.788  13.672  12.413  0.3439 -0.3309 -0.1410
11434W        W30968  16.726  12.119  14.036 -0.0472 -0.4131 -0.0076
11435W        W30969  11.344  14.988   3.718 -0.1342 -0.0071 -0.2040
11436W        W30970   3.946  11.032   3.732  0.1401 -0.0579  0.0117
11437W        W30971   6.994  17.291  14.388  0.0086  0.0124  0.0769
11438W        W30972   5.955  10.677  12.929  0.2106 -0.1188 -0.0419
11439W        W30973   7.715   0.215  14.186  0.2049  0.2294 -0.0673
11440W        W30974  16.646  15.948   3.831  0.0639  0.0833 -0.3795
11441W        W30975  12.232  12.974   5.145 -0.0924 -0.1644 -0.0206
11442W        W30976  16.659   1.577   4.608 -0.0200  0.0272  0.1402
11443W        W30977  17.008   4.592   3.380  0.0284  0.2559  0.3313
11444W        W30978   2.953   8.064   4.765 -0.0395 -0.0931  0.0211
11445W        W30979  14.697   1.428   4.632 -0.0368  0.0284 -0.0597
11446W        W30980   8.485  12.229  13.646 -0.0916  0.2134  0.0875
11447W        W30981   8.483   0.645  16.709  0.0018 -0.0086  0.1270
11448W        W30982  14.189  13.931  15.965  0.0210  0.2640  0.1902
11449W        W30983   0.333   3.508   4.222 -0.0262  0.1978 -0.0324
11450W        W30984   3.469  15.719   3.926  0.1564  0.2083 -0.2201
11451W        W30985   8.703  11.798  16.597 -0.2116  0.1828  0.0361
11452W        W30986   2.163   4.040   1.088 -0.1106  0.1200 -0.2001
11453W        W30987   7.963   9.696  14.858  0.0321 -0.1670  0.1248
11454W        W30988   0.073   1.172   2.853  0.4216  0.1889 -0.2348
11455W        W30989   7.870  16.909   3.862 -0.1623 -0.2302 -0.0996
11456W        W30990   8.296   6.094   2.380 -0.1207 -0.3982  0.1258
11457W        W30991   8.581   4.679   1.015  0.4513  0.1264 -0.1257
11458W        W30992  13.227  17.451   3.399 -0.1165 -0.1335  0.0791
11459W        W30993  10.968   4.888  12.573 -0.0899 -0.2282 -0.0144
11460W        W30994  17.325   6.618  12.109 -0.3019  0.1149 -0.2204
11461W        W30995   8.065  10.296  16.408 -0.0791 -0.2115 -0.3436
11462W        W30996   2.758   7.051  17.180 -0.0229  0.1094 -0.0446
11463W        W30997   8.345   2.235   4.617  0.4143 -0.4028 -0.0211
11464W        W30998  14.400  14.757  16.417 -0.3724  0.1851  0.0183
11465W        W30999  15.755   7.521   2.486 -0.1401  0.0561  0.0393
11466W        W31000   6.627  11.498   4.661  0.0897  0.1208 -0.3334
11467W        W31001   4.691  15.144  12.301  0.0823  0.0923 -0.2250
11468W        W31002   0.258   5.478   0.977 -0.0819  0.0832  0.1353
11469W        W31003  13.687  10.539  12.473  0.1061  0.1393 -0.1240
11470W        W31004   4.189   1.972   5.017 -0.0734 -0.1997 -0.1271
11471W        W31005  11.314   9.151   2.968  0.1193 -0.0984  0.1166
11472W        W31006   5.417   2.414  14.935  0.0036  0.0384  0.2662
11473W        W31007   7.822   6.780   4.489  0.0265  0.1873  0.0280
11474W        W31008  15.138  13.936  16.925  0.1237  0.3497  0.1285
11475W        W31009   6.482  15.770   5.017  0.0582 -0.1872  0.1603
11476W        W31010  11.612  13.611  15.273 -0.3646 -0.1186 -0.2183
11477W        W31011   6.849   6.710  13.301  0.0071  0.2402  0.3467
11478W        W31012  16.058   6.114   4.205 -0.0705 -0.2751 -0.2881
11479W        W31013   3.984   6.583   3.395  0.2000  0.1395 -0.0071
11480W        W31014   4.240   9.843   4.746  0.5676  0.3167  0.0321
11481W        W31015   5.044  16.241   2.869 -0.0036 -0.1204 -0.0415
11482W        W31016   1.028  15.161  16.825 -0.3340  0.1552  0.0723
11483W        W31017  11.344   6.276   1.664  0.2606  0.2243 -0.2431
11484W        W31018  12.331   4.183  14.824  0.2078 -0.1218 -0.0991
11485W        W31019   3.546   0.449  12.552 -0.0378  0.0587 -0.2419
11486W        W31020   8.364   2.835   0.399  0.0788  0.1799  0.2124
11487W        W31021   6.545   8.618   4.214 -0.0442 -0.1925  0.1347
11488W        W31022   0.148  14.146   4.482 -0.1788 -0.1053  0.0356
11489W        W31023  16.112  14.986  12.804  0.2359 -0.1700 -0.0143
11490W        W31024   4.297  12.873   4.845 -0.0244  0.2968 -0.0553
11491W        W31025  13.241   5.082  15.274 -0.2109  0.1829 -0.0758
11492W        W31026   9.327   3.028   5.247  0.0003 -0.0333  0.0849
11493W        W31027  12.086   9.551  12.887  0.0497 -0.0143 -0.0555
11494W        W31028   0.501  11.430  14.073  0.2271 -0.0661 -0.1192
11495W        W31029   2.544  14.864   0.623  0.1961 -0.0552 -0.2881
11496W        W31030  16.075  10.194  14.029  0.0171  0.1763 -0.3542
11497W        W31031   4.400  13.994   2.148 -0.0406  0.0572  0.4910
11498W        W31032  15.561   2.579   0.438  0.0393 -0.0553  0.1554
11499W        W31033  14.542  12.409   2.397  0.2908  0.1837 -0.0966
11500W        W31034  17.182  12.864  13.772 -0.0752 -0.2038  0.3210
11501W        W31035  14.164  17.077   4.308  0.0024 -0.3780 -0.3857
11502W        W31036   4.054  15.780   4.312  0.0772 -0.2510 -0.1552
11503W        W31037  15.077   7.935   4.047 -0.0794  0.0047  0.0368
11504W        W31038  17.316   1.618  12.858  0.0187 -0.2755 -0.2001
11505W        W31039   8.899  14.651   2.496  0.0586 -0.2918  0.0102
11506W        W31040   4.395   6.483  15.963  0.4034 -0.0983  0.1626
11507W        W31041   1.852  11.956  13.972  0.1305 -0.0795  0.1014
11508W        W31042  15.687   7.632  14.812  0.0912  0.1161  0.0165
11509W        W31043  16.671   4.852   3.050 -0.2484  0.3678 -0.2375
11510W        W31044   5.923   9.418   5.106 -0.2579 -0.0364 -0.0063
11511W        W31045   1.783  11.039  13.990  0.0242  0.1251  0.2133
11512W        W31046   6.332   1.901   4.880 -0.1076 -0.3591 -0.3305
11513W        W31047   2.795  10.868  16.685  0.0751  0.0855  0.0165
11514W        W31048   0.432   1.771  14.109  0.3876  0.1652  0.2387
11515W        W31049  13.715   1.796   1.996  0.1647 -0.2112 -0.2555
11516W        W31050   2.563   5.555   0.220  0.3136 -0.3294 -0.0740
11517W        W31051  13.388  10.246  16.430 -0.0070  0.1755 -0.1546
11518W        W31052   1.707   5.147   0.336  0.0378  0.2915  0.0873
11519W        W31053  10.060  12.115  15.679  0.1952 -0.0363  0.2244
11520W        W31054  11.070  11.239  15.045  0.0885  0.1446  0.1455
11521W        W31055   4.422   4.746  14.310 -0.2798  0.0553  0.0211
11522W        W31056  11.295  13.487  13.933 -0.0308 -0.0345  0.2327
11523W        W31057   5.205  16.756  17.105 -0.0466 -0.0370  0.3096
11524W        W31058  13.669  13.781  15.151  0.0773  0.2004 -0.1388
11525W        W31059  16.817  16.763   3.488 -0.4879 -0.3333  0.2077
11526W        W31060   5.253   6.079   0.436  0.0246  0.1122  0.1565
11527W        W31061   5.863  13.677  16.916  0.0884  0.1137  0.0256
11528W        W31062   9.405  15.288  13.603  0.2912  0.0877 -0.1183
11529W        W31063  15.214  10.585   3.353  0.0719  0.1198 -0.3778
11530W        W31064  11.460  12.820  14.936  0.1936  0.2198  0.0008
11531W        W31065  11.658   6.696  13.026  0.0258 -0.0925  0.1071
11532W        W31066   8.135   2.312  12.877  0.1411  0.4672 -0.0495
11533W        W31067   8.596  11.349  15.001 -0.3256 -0.0576 -0.3432
11534W        W31068  11.132  11.788  13.541 -0.0706 -0.2068 -0.2008
11535W        W31069   7.644  11.368  13.341  0.1952 -0.0425 -0.0055
11536W        W31070   2.650   6.270  15.642  0.1873 -0.0019 -0.0979
11537W        W31071   1.663   8.639   4.272  0.1818  0.2093  0.1943
11538W        W31072  14.192  15.793  12.431 -0.0612 -0.0307 -0.3529
11539W        W31073   6.287  15.325   4.796  0.3973  0.1378 -0.0689
11540W        W31074  10.328   8.331   1.475  0.0988  0.3409  0.3037
11541W        W31075  12.417  14.041  15.067 -0.1014 -0.0607  0.0307
11542W        W31076   5.827   8.351  15.548  0.0428 -0.0682  0.0768
11543W        W31077  17.293  10.114   0.303 -0.4463 -0.2964 -0.1308
11544W        W31078  13.973   4.271  16.074 -0.5194 -0.2528  0.2707
11545W        W31079   9.326  16.322   4.967  0.0703  0.3730  0.2408
11546W        W31080   3.863   6.105   3.609 -0.0180  0.1922 -0.0344
11547W        W31081   5.855   4.495   1.649  0.3262 -0.1556  0.2142
11548W        W31082   1.649  12.269  13.657 -0.0820 -0.1912 -0.3241
11549W        W31083  17.311   8.672   3.087 -0.1572 -0.0472 -0.3230
11550W        W31084  10.906   4.222   1.514  0.2222 -0.3106 -0.0277
11551W        W31085   4.077   3.614  16.445 -0.1760  0.0570  0.0065
11552W        W31086  14.230  15.851  16.678 -0.0919 -0.0475 -0.1574
11553W        W31087   6.987  16.431   1.408  0.0840 -0.0524  0.1709
11554W        W31088  16.385   7.584   0.530 -0.1667  0.3501 -0.0151
11555W        W31089   4.027   9.771  13.862  0.3065 -0.1464 -0.0706
11556W        W31090   7.765  15.135   1.825  0.0732  0.2561  0.2824
11557W        W31091  16.252  14.060  12.854 -0.3234  0.1791 -0.0929
11558W        W31092   0.932  14.190  15.098 -0.1321  0.1886 -0.1566
11559W        W31093   6.313   5.719  16.714  0.0359 -0.0807  0.2006
11560W        W31094  12.440   8.900  17.273 -0.2573 -0.2173 -0.3460
11561W        W31095  16.828  12.390   1.426 -0.0163 -0.2444  0.1737
11562W        W31096   8.373  11.673  16.167  0.1352  0.0843 -0.0313
11563W        W31097  11.990   5.110  14.868  0.2224  0.2329 -0.0054
11564W        W31098   7.360   3.295  13.539 -0.0025  0.1448 -0.0180
11565W        W31099   5.174  14.092  16.496  0.4485  0.0193 -0.3743
11566W        W31100  11.163   3.537  14.607 -0.0007  0.0255  0.0589
11567W        W31101   0.091  16.433  14.734  0.0345 -0.0355 -0.1344
11568W        W31102   5.839  13.390  15.133  0.1798  0.1926 -0.0792
11569W        W31103  10.305   9.989   2.840  0.1068 -0.1721 -0.0738
11570W        W31104  14.579   7.842   0.375  0.1398 -0.0117 -0.0421
11571W        W31105  12.210  13.295  13.609  0.1831  0.0929  0.2398
11572W        W31106   4.570  12.639   0.051  0.0147 -0.0615 -0.0356
11573W        W31107   4.890  15.587  12.388 -0.1316  0.0325  0.3973
11574W        W31108  14.991   6.387   0.353  0.0065 -0.2920  0.1614
11575W        W31109   5.166   3.634  12.332  0.0318 -0.0284 -0.1966
11576W        W31110   5.332  14.665   5.258 -0.1560  0.0447 -0.0014
11577W        W31111   1.186   3.608   1.670  0.2255 -0.0926  0.2213
11578W        W31112   6.156   0.098  14.990  0.1166 -0.0294 -0.0499
11579W        W31113   1.893  12.126  16.030 -0.3574  0.0636 -0.0953
11580W        W31114   5.033  15.298   3.276 -0.1815 -0.1345 -0.1175
11581W        W31115   4.821   5.382  14.353  0.2343 -0.1162 -0.1880
11582W        W31116  13.272  11.998   2.224 -0.0159  0.0471 -0.0034
11583W        W31117  17.420   7.245  14.693  0.2942 -0.1971  0.1680
11584W        W31118   1.075  12.608   2.014 -0.1338  0.0403  0.0915
11585W        W31119   3.286  15.864  15.580  0.0080 -0.4034  0.1105
11586W        W31120   0.862   4.607   0.119 -0.1356 -0.1166  0.1983
11587W        W31121  15.629   4.656  12.648  0.0122 -0.1490 -0.0869
11588W        W31122   0.541   7.102  13.972 -0.1231 -0.4051  0.0301
11589W        W31123   0.964   2.450  16.546 -0.0829 -0.1680  0.1071
11590W        W31124  13.928  14.786   2.240  0.0203  0.0118 -0.1213
11591W        W31125  13.718  13.540  13.400  0.3796 -0.1258 -0.1699
11592W        W31126   2.156   9.717  13.607  0.0734  0.1544 -0.1097
11593W        W31127  10.519   5.256  16.413  0.1360 -0.1043  0.2130
11594W        W31128  17.366  15.523   0.840  0.1149  0.2652  0.2434
11595W        W31129   3.606  13.532  12.891  0.0442  0.0582 -0.0505
11596W        W31130  11.419   1.611   0.086 -0.0266  0.2797 -0.3129
11597W        W31131  14.462   2.550  12.710 -0.0576  0.0769 -0.1911
11598W        W31132   1.728  15.235   2.070 -0.1858  0.0645 -0.1401
11599W        W31133   7.650   8.431   0.858  0.0876  0.0048 -0.1317
11600W        W31134   2.657  15.621  14.986 -0.0374  0.1636  0.0528
11601W        W31135   2.529   2.624   3.141 -0.3219  0.3349 -0.2309
11602W        W31136   2.283   2.501   2.665 -0.1306  0.0198 -0.0236
11603W        W31137  17.106  12.755  15.533 -0.1780  0.1164  0.1866
11604W        W31138   0.286   4.168   1.313  0.0533  0.0197  0.3370
11605W        W31139   9.725   6.638   0.039  0.1959 -0.0616  0.1557
11606W        W31140   5.154  12.118  16.025 -0.0231  0.0037 -0.1008
11607W        W31141   8.666   8.487   0.826  0.2365 -0.2702  0.0044
11608W        W31142  17.380   0.968  14.184 -0.1899 -0.2715 -0.1670
11609W        W31143   1.683   0.785  15.620 -0.1173 -0.0367  0.0215
11610W        W31144   7.537   6.034   1.588 -0.1395 -0.3437  0.1752
11611W        W31145   2.465   9.830  14.053  0.3699  0.3506  0.1833
11612W        W31146  15.134  13.716   1.586  0.0707  0.1789  0.3585
11613W        W31147   7.735   3.954   0.132 -0.2562 -0.0278  0.0166
11614W        W31148   5.525   3.579  13.896  0.0699  0.0029  0.1413
11615W        W31149   4.712   3.576  13.668 -0.1358 -0.3095  0.0160
11616W        W31150  11.413   0.848  14.958  0.1838 -0.1399 -0.1507
11617W        W31151   1.899  13.855   0.111  0.1108  0.1819 -0.0046
11618W        W31152   9.839   0.755   1.503  0.0805 -0.1253 -0.1207
11619W        W31153  13.370  13.868   2.070 -0.1757 -0.0840 -0.0340
11620W        W31154  14.072  10.698  13.032  0.1768  0.2504 -0.0740
11621W        W31155  14.824   9.608  12.803 -0.0958 -0.1854 -0.1130
11622W        W31156   9.580   2.118  12.025 -0.2358  0.3375  0.1061
11623W        W31157   0.897  16.902   2.801  0.0833  0.1213  0.0024
11624W        W31158  17.029  16.175  12.594 -0.0432  0.2285 -0.2626
11625W        W31159   7.548   2.222   4.040  0.0328  0.0030  0.0062
11626W        W31160   8.589  13.502  13.166 -0.2815 -0.0604  0.0933
11627W        W31161  15.130  15.786   3.291 -0.1609  0.2479 -0.0423
11628W        W31162   1.381   9.553   3.016 -0.3299  0.1713 -0.0457
11629W        W31163   2.894   6.505   2.055  0.2298 -0.0902  0.1401
11630W        W31164  15.696   7.048  14.455  0.0095  0.0448  0.0937
11631W        W31165   9.598  13.672  14.653  0.2491  0.1567  0.0009
11632W        W31166  13.089  15.890   4.407  0.1483  0.1158 -0.0948
11633W        W31167   2.135   0.751  12.270  0.0584  0.1618  0.1192
11634W        W31168   2.395   0.770   2.213  0.0849  0.0319 -0.0201
11635W        W31169  15.621   8.964  15.890 -0.2382 -0.1895 -0.1900
11636W        W31170   8.403   7.453  13.616  0.1400 -0.0368 -0.1682
11637W        W31171   7.378  12.572  14.763 -0.0049 -0.1720  0.3198
11638W        W31172  11.671   7.092  15.316  0.2078  0.0527  0.2963
11639W        W31173  13.260   1.135  12.551 -0.0857 -0.0896  0.1187
11640W        W31174   4.271   6.661  16.995  0.0802 -0.0149 -0.0376
11641W        W31175  11.790   0.989  16.879  0.0065 -0.0869 -0.1839
11642W        W31176   2.141  13.235  15.590 -0.0756  0.1970 -0.0154
11643W        W31177   8.737  12.114  14.835 -0.2321 -0.0845 -0.1335
11644W        W31178   8.667   3.275  15.434 -0.0842 -0.1240 -0.0475
11645W        W31179   9.059   7.040  12.861  0.3632  0.0747  0.5109
11646W        W31180   2.899  14.301   2.198  0.0483  0.0188  0.2954
11647W        W31181   3.924   5.142  13.503  0.2319 -0.1160  0.0415
11648W        W31182   2.283  12.992   2.739  0.0588  0.1713 -0.0083
11649W        W31183  14.440  12.256  14.832  0.5731  0.0968 -0.1299
11650W        W31184   4.645   0.927  12.901 -0.5015  0.0473  0.0299
11651W        W31185   2.850   6.173  16.780 -0.3586 -0.0231 -0.0049
11652W        W31186   6.149  11.240  15.752 -0.3130 -0.1472  0.1581
11653W        W31187   4.752   7.085  15.808  0.0029  0.1122  0.3489
11654W        W31188  10.478  17.009  15.790 -0.1707  0.0755  0.1285
11655W        W31189  13.490  11.399   6.015 -0.2407  0.0762 -0.2384
11656W        W31190  13.307   5.707  14.452 -0.1726  0.3648  0.0925
11657W        W31191   8.801  11.289   1.668  0.2971  0.0517 -0.2457
11658W        W31192   5.000  16.019  14.175  0.0512 -0.2459 -0.2450
11659W        W31193  13.156   3.475  13.274 -0.1408  0.1282 -0.1003
11660W        W31194   1.775   6.921  16.737  0.0505 -0.0031  0.1882
11661W        W31195   3.027   0.065   1.987 -0.1467 -0.0134  0.0643
11662W        W31196  11.864  16.074  16.558  0.2063 -0.1624 -0.0133
11663W        W31197   1.188   5.905  14.391  0.3177  0.1259 -0.1238
11664W        W31198   8.900  13.586   1.767 -0.1752  0.0293 -0.2377
11665W        W31199  10.483  11.497  12.229  0.2229  0.1772  0.1299
11666W        W31200   3.114  10.479  12.858 -0.0332 -0.0899 -0.3275
11667W        W31201   5.753   3.879  16.482 -0.3921 -0.2270  0.0026
11668W        W31202   2.577  14.355  12.955 -0.0183 -0.3103  0.1820
11669W        W31203   4.121   0.032  14.778  0.0008 -0.0079 -0.1095
11670W        W31204   8.784   4.770   2.522 -0.0010 -0.0975  0.0359
11671W        W31205  16.194  15.104  16.437  0.1595  0.2928  0.3645
11672W        W31206  13.454  12.828   4.997 -0.1259 -0.0931 -0.0829
11673W        W31207   2.678  14.898   2.467 -0.1039 -0.2817 -0.0741
11674W        W31208  17.196  12.774  12.610 -0.1439 -0.1557  0.2915
11675W        W31209  14.713  12.705   3.887  0.3617  0.3159 -0.1121
11676W        W31210   2.349  10.962  14.807  0.0143  0.1785  0.2251
11677W        W31211  13.825  11.189   5.080 -0.2759 -0.1200  0.0205
11678W        W31212  16.493  10.883   1.551  0.3500  0.0370  0.0493
11679W        W31213  16.913   4.595  14.787  0.2426  0.3251  0.1975
11680W        W31214  14.759   9.754  15.216  0.1230 -0.4380 -0.0601
11681W        W31215   4.608   3.964  13.967  0.0073 -0.1316 -0.0724
11682W        W31216  11.577  10.633   2.184 -0.1341 -0.1786 -0.3164
11683W        W31217  13.666   0.705  14.885 -0.4896  0.1008 -0.0304
11684W        W31218   9.649   0.329   0.767  0.0037  0.2035  0.2154
11685W        W31219   0.211  14.326   3.528 -0.0742  0.0694  0.0514
11686W        W31220  13.472   1.344  13.003 -0.4305 -0.2303  0.1046
11687W        W31221   3.709   4.406   2.488  0.1685  0.1185  0.1678
11688W        W31222  10.811   6.795  16.754  0.0299  0.0884  0.1344
11689W        W31223  17.334  16.078  15.096 -0.0036 -0.1824  0.0753
11690W        W31224  13.130   7.069  14.801 -0.1317 -0.1362 -0.1701
11691W        W31225   2.724  13.181   0.770  0.1492 -0.3884 -0.2532
11692W        W31226   8.078  13.218   1.958  0.0376 -0.1126 -0.4488
11693W        W31227   8.785   1.919   1.148  0.1363  0.0466 -0.0373
11694W        W31228   3.408   2.938   4.480 -0.0811  0.4691 -0.0863
11695W        W31229  10.720   1.957   4.493 -0.0764 -0.3133 -0.1494
11696W        W31230  12.804  15.758  16.394  0.0224 -0.0084  0.0140
11697W        W31231  10.262  15.702  14.805 -0.0154 -0.0842 -0.0056
11698W        W31232   7.498  16.258   2.854 -0.0215  0.1343 -0.0161
11699W        W31233  14.563  16.156  16.426 -0.0502  0.0534  0.2645
11700W        W31234   2.705  14.843   1.499  0.0829  0.2027 -0.2302
11701W        W31235   6.369   2.651  13.405 -0.3534  0.0110  0.2423
11702W        W31236  13.732   5.064  15.100  0.3033 -0.1753  0.1799
11703W        W31237   6.415   3.096   0.917  0.1716 -0.1542 -0.0794
11704W        W31238   5.639  14.930  15.187  0.0303  0.4563 -0.2407
11705W        W31239   0.159  16.121  16.485  0.3704  0.1246  0.3132
11706W        W31240  14.764  15.676  12.694 -0.0402  0.3485 -0.2156
11707W        W31241   3.702   2.783  14.432 -0.1347  0.1327 -0.0078
11708W        W31242   4.680  10.473   0.346 -0.1976  0.0844  0.1816
11709W        W31243  13.552   7.297  12.652 -0.1103 -0.1822 -0.1100
11710W        W31244   3.723  15.237  14.752 -0.0812  0.2577 -0.1124
11711W        W31245   2.061   9.910  17.260 -0.1971 -0.0741 -0.2914
11712W        W31246   2.409   0.945   0.561 -0.0637 -0.2507  0.1840
11713W        W31247   4.738   1.876  15.469  0.0139  0.0070 -0.1814
11714W        W31248  13.924   9.043  14.252  0.0575  0.0167 -0.3375
11715W        W31249   3.882   7.138  16.611 -0.0850  0.1673 -0.1220
11716W        W31250   4.383  13.349   1.436 -0.1112  0.1779  0.2041
11717W        W31251  15.221   7.549   3.148 -0.2348 -0.0144  0.1321
11718W        W31252   9.863   2.473  13.375 -0.5153  0.3690  0.2843
11719W        W31253   2.203   6.728  12.939  0.1941 -0.0082  0.0743
11720W        W31254   9.634   2.185   5.301 -0.1194  0.0370 -0.0676
11721W        W31255   4.316  16.149   0.760  0.0655  0.0135  0.1838
11722W        W31256   0.639   8.957   4.925 -0.1971 -0.3688  0.0252
11723W        W31257   5.951   9.002  13.365  0.2259  0.4285  0.0375
11724W        W31258  16.651   6.518   1.673 -0.4815  0.1074  0.1026
11725W        W31259   1.235  14.546  13.654  0.1152 -0.2846 -0.0401
11726W        W31260   4.012   2.372   1.925  0.0506  0.0644 -0.0352
11727W        W31261   6.723  15.756   1.448 -0.1860 -0.4011  0.1503
11728W        W31262  16.957  16.895   4.002 -0.0540 -0.0579  0.1210
11729W        W31263   2.030   3.341  13.414 -0.2551 -0.1084 -0.1069
11730W        W31264  10.384   9.228  14.540 -0.1069  0.1079  0.3317
11731W        W31265   5.954   8.718  12.894 -0.1010 -0.1509  0.3197
11732W        W31266   0.451   1.319   3.130 -0.1438 -0.0141  0.0568
11733W        W31267  15.737   5.680  12.535 -0.0624  0.0739  0.2285
11734W        W31268   1.406  16.460   2.067  0.0294 -0.0230  0.0246
11735W        W31269   8.494   6.080   3.576 -0.0601 -0.2577  0.0699
11736W        W31270  16.761  15.171   4.459  0.0295 -0.4102  0.2749
11737W        W31271   7.530   0.868  14.895 -0.0529  0.0851  0.0716
11738W        W31272   1.933   4.561  14.294  0.0271  0.0480 -0.1613
11739W        W31273  13.602   0.329   4.334  0.0090  0.1041 -0.1769
11740W        W31274   1.910   1.237  14.277  0.0495 -0.0731  0.0715
11741W        W31275   8.391  17.250   3.434  0.3948  0.0897  0.0757
11742W        W31276  14.473   4.727   1.541 -0.0501 -0.2997  0.1653
11743W        W31277  14.437   3.567   1.743 -0.0649  0.2561  0.0633
11744W        W31278   8.078  16.687  13.977 -0.0970 -0.0052 -0.0794
11745W        W31279   9.766  11.362   1.933  0.1950 -0.2138 -0.1318
11746W        W31280  16.754  15.490  15.798 -0.0262  0.4290  0.0313
11747W        W31281   3.707   2.374  13.691  0.0400 -0.0581 -0.0549
11748W        W31282   8.245  14.111  16.817  0.1088 -0.1526  0.0303
11749W        W31283   0.286   0.846  15.594 -0.1054 -0.2780  0.1451
11750W        W31284  15.404   1.601   0.464 -0.0330 -0.0579  0.2393
11751W        W31285  11.836   4.244  12.421 -0.0316 -0.0469 -0.2496
11752W        W31286   5.509   8.039   0.002  0.1956 -0.0221  0.0736
11753W        W31287  11.448  12.108  16.811  0.0395  0.1799 -0.0764
11754W        W31288  11.797  14.061  15.127 -0.0705 -0.1237  0.1546
11755W        W31289   3.212  17.219  14.227  0.0574 -0.1960  0.1167
11756W        W31290  13.184   5.803  13.276  0.1323  0.0987  0.0928
11757W        W31291  14.518   6.659  16.893 -0.2192 -0.0244 -0.0321
11758W        W31292  10.122   3.799   2.033 -0.0606  0.1306  0.4098
11759W        W31293   4.975  14.543   0.859  0.2037  0.1510 -0.0969
11760W        W31294   5.540   5.320   3.502 -0.0201 -0.0692  0.3497
11761W        W31295  10.112   6.009  12.864  0.2004 -0.1664 -0.0853
11762W        W31296  10.151  11.164   3.357 -0.0794 -0.1873  0.0120
11763W        W31297  15.803  13.271   2.654 -0.1612 -0.4179 -0.1604
11764W        W31298  10.127  10.264   3.688 -0.3138 -0.0883 -0.1159
11765W        W31299  17.265  12.593   3.202 -0.1257  0.0336 -0.2553
11766W        W31300  10.196   5.371   2.394  0.2793  0.1347 -0.0203
11767W        W31301   3.860   6.723   0.559  0.0994 -0.1062 -0.0962
11768W        W31302  15.152  16.840  15.384 -0.1955  0.0321  0.0909
11769W        W31303  12.466  15.733  14.949  0.0623  0.2444 -0.0618
11770W        W31304  12.196  12.296  14.926  0.1343 -0.0524 -0.0681
11771W        W31305   7.125   1.630   2.864  0.2976  0.2039 -0.1155
11772W        W31306   0.438   4.626   3.002  0.1795 -0.0525 -0.1228
11773W        W31307  14.530   8.093  16.068  0.1509 -0.1266 -0.0675
11774W        W31308   1.576   8.343   3.331 -0.3290 -0.0417 -0.0449
11775W        W31309   0.002   7.701   3.696  0.0914 -0.2074  0.0538
11776W        W31310  15.178  12.808  16.884  0.0499 -0.1457 -0.0496
11777W        W31311   6.353   0.338   4.631 -0.2216  0.0572 -0.0717
11778W        W31312   2.087   6.818  14.279 -0.0341  0.2135 -0.0486
11779W        W31313  15.575   7.446  15.423 -0.2613 -0.1653  0.2832
11780W        W31314  14.371  12.819   0.235 -0.2140  0.2583  0.0684
11781W        W31315  15.990  13.624   0.513  0.0821 -0.0585  0.0431
11782W        W31316   7.111  14.354   1.223 -0.0656  0.1648 -0.2776
11783W        W31317  12.540   1.506  12.271  0.2520  0.1705 -0.3148
11784W        W31318  10.904   9.942  13.389  0.1119 -0.2212 -0.1418
11785W        W31319   4.911   0.528  17.124  0.3922 -0.0601 -0.2861
11786W        W31320  10.395   5.550   4.882 -0.0347 -0.0538  0.3286
11787W        W31321   4.780   3.216   2.140  0.1478  0.1140 -0.2513
11788W        W31322  14.984  10.347   0.452  0.0415  0.0280 -0.0120
11789W        W31323  11.413   5.247   0.086 -0.1504  0.1672  0.0196
11790W        W31324   5.392   3.014  13.783 -0.2152  0.2269 -0.0628
11791W        W31325  13.449  12.594   3.324 -0.1802 -0.0626  0.1830
11792W        W31326   5.106   9.654  16.569  0.1270  0.1743 -0.1133
11793W        W31327   2.375   1.790  12.233 -0.1620  0.2206 -0.0977
11794W        W31328   0.607  11.593   4.344  0.0074  0.0098  0.0786
11795W        W31329   8.900   1.606   3.850  0.1026  0.0721  0.1172
11796W        W31330  16.763  16.490   2.649  0.1334  0.1032  0.1488
11797W        W31331  14.051   5.145   3.134 -0.1245 -0.1299  0.0948
11798W        W31332  16.782  11.194  14.322 -0.1640 -0.0086 -0.0038
11799W        W31333   1.978   1.078   4.052 -0.0549  0.0891 -0.0292
11800W        W31334  12.757   6.413   0.781  0.1870  0.1768  0.1080
11801W        W31335  10.699   7.604   0.077 -0.1302  0.0315 -0.2312
11802W        W31336   4.187  16.351   0.281 -0.3384 -0.0795 -0.0649
11803W        W31337   7.952  11.128   2.111  0.2237  0.3137  0.0063
11804W        W31338   2.068  11.539  17.291  0.0163  0.0498  0.1128
11805W        W31339   2.125   4.925   2.824 -0.1115 -0.0285 -0.1635
11806W        W31340  12.646  12.571  16.957  0.0711  0.6023 -0.0139
11807W        W31341   8.832   7.101   2.534 -0.0932 -0.0497 -0.2027
11808W        W31342   9.990   8.696  14.187  0.2804  0.1058  0.1843
11809W        W31343   9.968  12.680   4.237 -0.0645  0.1414 -0.0025
11810W        W31344   7.324   4.465  15.221  0.2987 -0.1643  0.2917
11811W        W31345  13.743  16.657   0.849 -0.1264  0.0362  0.0594
11812W        W31346  10.636  15.110   4.770  0.0498 -0.2154 -0.0839
11813W        W31347   3.146  12.756   3.269  0.1762  0.1365 -0.0905
11814W        W31348   8.674  10.819   2.668  0.3001 -0.4582 -0.0517
11815W        W31349   9.170   7.786   0.592 -0.3941 -0.0129 -0.1330
11816W        W31350   1.606  12.352  15.708 -0.0516  0.1876 -0.1261
11817W        W31351   9.236  16.618   3.534 -0.0735 -0.1549 -0.1244
11818W        W31352   6.193   4.055   1.241 -0.1489  0.2555  0.2272
11819W        W31353  11.201  11.744  15.906 -0.1292 -0.0638  0.2460
11820W        W31354   0.071   0.733   4.926 -0.1794 -0.1967 -0.1550
11821W        W31355  13.389   7.597   0.850  0.2825 -0.3447 -0.1665
11822W        W31356   8.129   7.561  12.742  0.1016 -0.3247 -0.2872
11823W        W31357   8.160   4.819   0.566  0.0155  0.0707  0.1892
11824W        W31358   0.310  13.538  16.541 -0.0839 -0.0970 -0.2655
11825W        W31359  16.554  14.178  13.301 -0.1783 -0.0623 -0.1160
11826W        W31360   7.498   1.331  15.193  0.1799 -0.1894 -0.0899
11827W        W31361   1.348   0.970  14.619  0.3689 -0.2353 -0.3492
11828W        W31362   2.582   2.705   4.239  0.4776 -0.2005  0.0952
11829W        W31363   0.541   5.490   0.497  0.1508 -0.0453  0.0422
11830W        W31364  15.776  17.443   4.866 -0.1536  0.1816 -0.1525
11831W        W31365   5.480   0.380   4.392  0.1115  0.1063 -0.0161
11832W        W31366   8.497  10.797   1.798  0.1422  0.0303 -0.1449
11833W        W31367  13.201   8.815  14.617  0.1879  0.0941  0.1242
11834W        W31368  10.743  10.431  12.953  0.3099 -0.4067  0.0759
11835W        W31369   8.938   4.891   0.180  0.0601 -0.0713 -0.0732
11836W        W31370   4.599   0.935  15.535  0.0424 -0.0317  0.0325
11837W        W31371   2.210  15.481  16.655  0.1434 -0.1612 -0.1718
11838W        W31372   8.309  11.032   0.848  0.0503 -0.0718  0.0452
11839W        W31373   3.536  10.644  16.034  0.1257 -0.3363  0.1103
11840W        W31374   4.240  13.111   4.394 -0.0643  0.3155  0.4353
11841W        W31375   9.945  11.802  13.320  0.2055 -0.0769 -0.0503
11842W        W31376  15.193   2.689   0.805 -0.0390  0.1175 -0.0136
11843W        W31377  14.027   2.015  13.453 -0.1214 -0.2288  0.1653
11844W        W31378   1.486   9.277  12.559  0.3530 -0.2867 -0.1763
11845W        W31379   2.080  17.343   4.593  0.0182 -0.0744 -0.1180
11846W        W31380   0.227   1.221  15.206  0.1104 -0.0512  0.1394
11847W        W31381   9.724   9.691   2.243 -0.0200 -0.1390  0.2819
11848W        W31382   8.881   9.478   2.357  0.2760 -0.0037 -0.0322
11849W        W31383   0.223   9.920  16.077 -0.1859 -0.1407 -0.0333
11850W        W31384  12.111  12.527   0.588  0.2341 -0.0211 -0.4197
11851W        W31385  10.939   3.986   0.692 -0.1955 -0.5282  0.0949
11852W        W31386   0.515   8.660   0.855 -0.0537 -0.0336  0.2870
11853W        W31387  11.052  11.672   4.540 -0.1148 -0.1464 -0.1946
11854W        W31388  12.447   6.042   2.438 -0.2952  0.0882  0.0782
11855W        W31389  12.702   6.812  14.667  0.0569  0.2981 -0.1480
11856W        W31390  16.177   8.525  15.121  0.0821 -0.0755 -0.0990
11857W        W31391  13.603  17.397  13.396  0.1401 -0.3069 -0.0776
11858W        W31392  13.760   7.318   4.112 -0.0788 -0.0045  0.2654
11859W        W31393  17.302  11.807   2.367 -0.1047  0.3583  0.1855
11860W        W31394   4.395   3.852  17.248 -0.0884  0.2926  0.0985
11861W        W31395   6.836  11.018   3.533 -0.0582 -0.1317 -0.2479
11862W        W31396   4.497   9.248   1.586  0.0623  0.1610 -0.1322
11863W        W31397  14.470  15.371   0.248 -0.0420  0.1793 -0.0284
11864W        W31398   6.014   0.305   3.733  0.1304  0.0987 -0.1769
11865W        W31399  16.514   5.786  14.375  0.0349  0.2171 -0.0255
11866W        W31400   5.022  10.714  13.243 -0.1293  0.1943  0.3316
11867W        W31401  16.259   3.617  15.086 -0.0197  0.0217  0.1892
11868W        W31402   5.693   1.767  12.648 -0.2332  0.1797  0.1321
11869W        W31403   8.978   4.848  13.647 -0.1768  0.0970 -0.2057
11870W        W31404   4.469  11.138   5.052 -0.0322 -0.1583  0.2504
11871W        W31405   7.469   5.354   0.144  0.2419 -0.1755 -0.0925
11872W        W31406  12.805  13.827  14.262 -0.0032  0.0589 -0.1644
11873W        W31407  13.748   5.786   1.367  0.2256  0.3095  0.1026
11874W        W31408  15.564  14.247   2.835 -0.1899 -0.0137 -0.1241
11875W        W31409   0.383  11.691  15.996  0.0842 -0.0072 -0.0253
11876W        W31410   8.711  14.434   2.082  0.0332  0.1418  0.6239
11877W        W31411  14.753  13.080   3.514 -0.2563  0.1457  0.1682
11878W        W31412   5.578   8.792   2.003 -0.0055  0.4191 -0.3155
11879W        W31413   8.875   7.193   3.975  0.1495  0.1294  0.0001
11880W        W31414   0.219  12.689   2.389 -0.0202  0.0461  0.1099
11881W        W31415  10.580   1.424   1.586 -0.1278 -0.0300  0.2216
11882W        W31416   2.662   2.605   3.701 -0.1402  0.1138 -0.2011
11883W        W31417  11.965  10.193  15.953  0.3399 -0.1588 -0.1788
11884W        W31418  13.872  17.458   4.786  0.0470 -0.0062 -0.0341
11885W        W31419  15.360   5.567   0.276 -0.0822 -0.3433  0.0304
11886W        W31420  16.858   9.587   4.462 -0.0281 -0.0845  0.2251
11887W        W31421   7.856   1.004  16.051 -0.3059 -0.2535  0.2291
11888W        W31422  14.847   0.949   4.896  0.1229  0.2705  0.2337
11889W        W31423   7.235  14.417  15.313 -0.2567 -0.0323 -0.0767
11890W        W31424   6.957   5.566   4.764  0.0993  0.1579  0.1133
11891W        W31425  11.284  11.231  13.717  0.0777 -0.0416 -0.1421
11892W        W31426   2.956   9.733  15.689  0.0779  0.1140  0.5166
11893W        W31427  12.946  12.600  16.567 -0.1335  0.1350 -0.0701
11894W        W31428   9.750   8.250  15.793 -0.1386 -0.0157 -0.2784
11895W        W31429   6.809   8.461   0.402  0.3150 -0.1982  0.0929
11896W        W31430  17.075  13.323  15.429  0.1758  0.0147  0.1188
11897W        W31431   0.278   0.025  13.153 -0.0390 -0.5422 -0.0261
11898W        W31432   0.878   3.580  13.693 -0.0643 -0.1286  0.0946
11899W        W31433   9.016   6.603   4.593  0.0784 -0.1745 -0.1126
11900W        W31434   1.230  14.648  16.701 -0.4679 -0.0078 -0.0484
11901W        W31435   1.230   5.989   0.437  0.1212 -0.0425  0.0038
11902W        W31436  10.604   0.512  12.803  0.0564  0.0266 -0.2281
11903W        W31437  14.087   5.717  12.649 -0.2948  0.0996 -0.0724
11904W        W31438  13.934   6.235  16.434 -0.4151  0.1853 -0.1661
11905W        W31439   0.193   6.498  12.767  0.0536  0.0087 -0.0029
11906W        W31440   8.935  13.408   3.665  0.0107 -0.0602  0.1533
11907W        W31441   4.712   7.152  14.159  0.0527 -0.0482 -0.0519
11908W        W31442  12.079   7.935  12.583 -0.3550 -0.0992 -0.0616
11909W        W31443  13.438  13.320  16.916  0.2930  0.1441  0.0104
11910W        W31444  14.769   1.987   3.448  0.1731  0.1438  0.3058
11911W        W31445  15.791   6.216   3.646 -0.5313  0.2009  0.1943
11912W        W31446   6.195   2.877  12.464 -0.0533 -0.1234  0.0064
11913W        W31447  10.842   2.610  15.804  0.1158 -0.0973 -0.0820
11914W        W31448   9.329  15.803  13.629 -0.0558  0.1455 -0.1917
11915W        W31449  10.764  11.716  16.210  0.0646 -0.1940 -0.0906
11916W        W31450   5.248  10.111   2.587  0.2794  0.3116 -0.0113
11917W        W31451  11.427   5.340  15.985 -0.5435 -0.2438 -0.0731
11918W        W31452  10.403  13.068  15.630  0.2036  0.1606  0.0544
11919W        W31453   8.004  10.315   4.861  0.0866  0.1490 -0.0224
11920W        W31454  12.994  10.951   0.646  0.1591 -0.0293  0.0433
11921W        W31455  15.597   6.047  15.850 -0.1597  0.0531  0.1494
11922W        W31456  13.683  14.490  14.347 -0.2418 -0.2166 -0.0158
11923W        W31457   1.552   9.380  13.178 -0.0992 -0.0792 -0.0671
11924W        W31458   5.100  15.228  12.069  0.1723  0.0839 -0.1845
11925W        W31459  13.595   6.977  16.164  0.0756  0.0514 -0.0576
11926W        W31460   0.839  16.724   0.753 -0.1609 -0.1785 -0.1876
11927W        W31461   0.629   6.849   4.963 -0.2422  0.4731 -0.0324
11928W        W31462   1.721   5.261   2.856 -0.2160 -0.0431  0.1049
11929W        W31463  13.767  16.647   1.415  0.0811  0.1622  0.3876
11930W        W31464   5.151   5.275  16.397 -0.1308  0.0481  0.0227
11931W        W31465   7.142  10.815  15.682  0.2148  0.2747  0.0712
11932W        W31466   7.145  15.728  12.296  0.0473  0.0611  0.3119
11933W        W31467  14.004   0.264   0.543 -0.1830 -0.0691  0.0018
11934W        W31468   5.131   8.931   1.133  0.0961 -0.1214 -0.4502
11935W        W31469   0.957   1.479  16.324  0.2286  0.1006 -0.0433
11936W        W31470   6.717   2.627   1.001 -0.1999  0.0212 -0.0027
11937W        W31471   0.248  14.760   3.165 -0.1921 -0.1152  0.1333
11938W        W31472   7.051  16.165   0.060  0.0857 -0.0628  0.3555
11939W        W31473  10.223  14.153   3.545 -0.1801 -0.0756 -0.3323
11940W        W31474   0.535  10.827   5.078  0.1184  0.0680  0.3174
11941W        W31475  10.165  16.030  16.558  0.0322 -0.0516  0.0066
11942W        W31476   0.916   9.361   1.200 -0.1184  0.2282 -0.0608
11943W        W31477   8.726  12.714  13.898  0.1045 -0.0009 -0.3409
11944W        W31478  16.591   4.838   1.894  0.4724 -0.1561 -0.1541
11945W        W31479   0.619   7.588  16.259  0.1145  0.0661 -0.0680
11946W        W31480   3.885   1.242  16.286  0.0511  0.1779 -0.0062
11947W        W31481   6.647  10.996  15.781  0.2674 -0.0496  0.3352
11948W        W31482   9.440  10.118   0.215  0.0763 -0.1441 -0.1899
11949W        W31483  13.983  12.085  17.165  0.2997 -0.0164  0.3082
11950W        W31484   2.630  17.466  17.285 -0.0417 -0.0308  0.2742
11951W        W31485  17.181  10.791  14.033  0.1902 -0.1909 -0.3361
11952W        W31486  16.831   1.678   0.157  0.0554 -0.0603  0.5294
11953W        W31487   1.288   6.350   1.241 -0.0040  0.1861  0.2673
11954W        W31488  14.610   1.252   1.577 -0.0680  0.2302 -0.0644
11955W        W31489  11.001  17.383   3.774  0.1303  0.1691 -0.2151
11956W        W31490   3.873  11.321  15.806  0.0960 -0.1438  0.0816
11957W        W31491   8.313   1.928  16.834 -0.3258 -0.4157 -0.2073
11958W        W31492  11.869  14.439  15.475  0.0739 -0.1608  0.1730
11959W        W31493  10.656   9.900  12.366  0.0346 -0.3532 -0.0186
11960W        W31494   2.652  10.320  14.334 -0.0654  0.1105 -0.0615
11961W        W31495  12.493  13.852   2.743 -0.3302  0.2712 -0.2888
11962W        W31496   1.166   9.913   1.468  0.0394 -0.0468  0.1941
11963W        W31497  14.938  14.791   0.935  0.1464 -0.0357 -0.2597
11964W        W31498   5.873   6.653  13.289 -0.0331 -0.2046 -0.3028
11965W        W31499   0.103  16.683  13.248 -0.3044  0.2134  0.1279
11966W        W31500  12.520   5.269   0.037 -0.0273  0.0286  0.0627
11967W        W31501  14.471   9.067   1.655  0.1333 -0.0851  0.1073
11968W        W31502  11.402   5.393   2.825  0.1384  0.0503 -0.2050
11969W        W31503  11.443  11.638  12.769 -0.1212 -0.1051 -0.0415
11970W        W31504   0.400   4.499   0.950 -0.0937 -0.0963 -0.1434
11971W        W31505   1.703  13.954  12.477 -0.0152  0.2343 -0.0207
11972W        W31506  13.749  11.161   2.242 -0.2909  0.1816 -0.1208
11973W        W31507   6.218   9.100  16.006 -0.3151 -0.1033 -0.1747
11974W        W31508   0.707   3.370   1.921 -0.0543 -0.0320 -0.0887
11975W        W31509   8.912   9.501   2.905 -0.3878 -0.1556  0.1630
11976W        W31510  12.033   8.179   2.602  0.2718 -0.2924  0.1425
11977W        W31511   0.039  10.784  16.683 -0.0672 -0.2779 -0.0161
11978W        W31512   2.712  17.290  14.427  0.0196 -0.2009  0.1848
11979W        W31513  16.896   6.595  13.764 -0.0760 -0.0847  0.0558
11980W        W31514  14.813   8.097  15.068  0.0290  0.0766  0.0337
11981W        W31515  12.732  13.957   3.659 -0.1094  0.1401  0.0934
11982W        W31516  15.622   5.359  14.644 -0.2709  0.0835  0.2181
11983W        W31517  12.633  10.594  17.089  0.1113 -0.0166 -0.0488
11984W        W31518   1.889   7.281   4.054 -0.0792 -0.0970  0.0353
11985W        W31519   5.160  14.977   0.594  0.0819 -0.0487 -0.0999
11986W        W31520   5.019  13.633  14.184 -0.1329  0.1315 -0.0686
11987W        W31521   1.111  13.480  15.250 -0.1360  0.0974 -0.1261
11988W        W31522  14.635  11.750   2.815 -0.0487 -0.3093  0.0459
11989W        W31523   2.750  12.933  14.389  0.1529 -0.3537  0.1040
11990W        W31524   7.122   5.808   5.170 -0.1687  0.1655  0.0369
11991W        W31525  15.859  11.056   3.052 -0.2153 -0.3306  0.0813
11992W        W31526  11.448  17.461  12.182 -0.1956 -0.0738  0.2381
11993W        W31527  12.350   3.208   3.689 -0.2028 -0.0661 -0.2394
11994W        W31528   5.989  11.631  16.422 -0.3734  0.2379  0.2515
11995W        W31529  11.341   0.322   2.884  0.0658 -0.0399 -0.3952
11996W        W31530   6.721  11.819  12.817  0.1398  0.0321 -0.1219
11997W        W31531   3.831   7.313  11.071 -0.0463 -0.0067  0.0946
11998W        W31532   7.260  11.174   3.890  0.2131 -0.2668 -0.1517
11999W        W31533   8.528   1.253  15.232 -0.1462  0.0118 -0.0288
12000W        W31534  12.321  17.110   3.167 -0.1122 -0.2057  0.1400
12001W        W31535  10.506   7.390   0.537  0.2419  0.1307 -0.0950
12002W        W31536   1.618  17.191   3.147  0.0535 -0.2058 -0.1126
12003W        W31537   7.287  13.721   0.342  0.0088 -0.1224  0.3088
12004W        W31538  13.238   8.919  13.234 -0.1649 -0.0647  0.1169
12005W        W31539   9.266   0.064  13.512  0.1004  0.0856 -0.1253
12006W        W31540   3.640  11.041  13.722  0.0711 -0.0012  0.0763
12007W        W31541  14.261  16.131   2.629 -0.2008  0.1669  0.0273
12008W        W31542   2.708   5.848   4.362  0.1033  0.0759  0.2252
12009W        W31543  13.370   0.244   3.895  0.2608  0.0678 -0.2316
12010W        W31544   9.909  14.713  15.709  0.0723  0.3294  0.0991
12011W        W31545   1.087  10.153  15.852 -0.1846  0.0787  0.1540
12012W        W31546  16.017   1.726   2.008  0.0309  0.1877  0.1339
12013W        W31547  17.032   3.897   3.116 -0.1106  0.0739  0.0697
12014W        W31548   9.398   4.792   0.044  0.1123 -0.0196  0.1192
12015W        W31549   5.258  17.390   1.785  0.2272  0.1210 -0.0764
12016W        W31550   0.954  14.274   0.226 -0.1167  0.0228 -0.3303
12017W        W31551   5.352  11.420  16.169  0.3966 -0.0742  0.0843
12018W        W31552   1.083   9.649  15.726  0.2555  0.0151 -0.0183
12019W        W31553  11.867   3.316  12.373 -0.1218  0.0408 -0.1875
12020W        W31554  10.290  14.317  14.495  0.1877 -0.3250 -0.1989
12021W        W31555   6.000   0.898   5.603 -0.0628 -0.2023  0.0222
12022W        W31556   2.504   7.374   0.714  0.1775 -0.0008 -0.1609
12023W        W31557   7.308  14.733   2.098  0.1338 -0.0373  0.0053
12024W        W31558  17.361   5.884   3.383 -0.0972 -0.4485 -0.1939
12025W        W31559   7.993  15.794  16.210 -0.1179 -0.1992 -0.1155
12026W        W31560   3.781  14.599  15.204 -0.1963  0.0034  0.1175
12027W        W31561   9.459  15.839   4.332 -0.0061 -0.3055 -0.1557
12028W        W31562  14.017  10.597   0.975 -0.0722 -0.1221 -0.1282
12029W        W31563  14.567   3.834   0.582 -0.1908 -0.1421  0.3035
12030W        W31564   6.222   1.734  16.320  0.4211  0.0845  0.1525
12031W        W31565  15.776   2.684  16.470 -0.1941  0.2035  0.0456
12032W        W31566  11.347   1.714  16.875 -0.0484 -0.1105 -0.1554
12033W        W31567  16.745  12.335  12.556  0.0148  0.0183 -0.0712
12034W        W31568   5.521  10.421   4.171  0.0703  0.0019 -0.0533
12035W        W31569   7.936   0.610  16.399 -0.0832 -0.0735 -0.2816
12036W        W31570  13.577  15.093   4.578  0.2620 -0.1659  0.0413
12037W        W31571   1.496  15.625   4.002 -0.0625 -0.0510  0.0835
12038W        W31572  13.960  12.995  16.155 -0.0633  0.0806 -0.2538
12039W        W31573   9.574   4.107   2.071 -0.0267 -0.0002 -0.2013
12040W        W31574   4.140   4.404  12.551 -0.0229  0.0588  0.1883
12041W        W31575   2.920   0.171  15.707 -0.2771  0.0924 -0.0443
12042W        W31576  17.000   1.881  14.598 -0.3141 -0.0559 -0.0124
12043W        W31577   4.265   3.326   4.335 -0.0720 -0.1755  0.0374
12044W        W31578   8.156   8.738   2.480  0.2886 -0.1901  0.0639
12045W        W31579   5.160   7.189  15.005  0.1293  0.2845  0.0858
12046W        W31580   5.940   0.369  12.981  0.2352  0.1750 -0.0557
12047W        W31581  15.888  14.141  12.358  0.4069  0.2189  0.1036
12048W        W31582  12.653   6.094  16.724  0.2350  0.2681  0.2814
12049W        W31583   7.278   2.927  17.290 -0.1517  0.0781 -0.0826
12050W        W31584   8.163   6.643   4.070  0.1268  0.0423  0.3246
12051W        W31585  12.488   6.011  15.722  0.0331  0.2896  0.1868
12052W        W31586  10.356  12.498   1.849  0.0025 -0.0370 -0.2049
12053W        W31587   5.324  11.107  13.128 -0.2112 -0.3251 -0.1319
12054W        W31588   8.335   3.318  15.039 -0.0433 -0.1809  0.0491
12055W        W31589  17.440   8.482   2.184  0.0836  0.1058 -0.1544
12056W        W31590  16.030  10.650  15.889 -0.0538  0.0840 -0.0306
12057W        W31591  16.486  11.206   1.061  0.0632 -0.2341  0.1325
12058W        W31592   8.913  13.610   4.838 -0.3367  0.3049  0.2559
12059W        W31593  13.247   6.517  12.824 -0.1386 -0.1464 -0.0015
12060W        W31594   9.165   5.953  17.224 -0.2609 -0.1415 -0.0909
12061W        W31595  12.473   8.187   3.942 -0.1977 -0.1499 -0.0960
12062W        W31596  10.779   9.251  14.187 -0.1736  0.0343 -0.1657
12063W        W31597  12.992  15.284  13.786  0.1035 -0.1724  0.1034
12064W        W31598  16.912  12.216  13.287 -0.2218  0.0815 -0.3764
12065W        W31599   1.067  10.307   1.190  0.0824  0.4111 -0.0103
12066W        W31600   3.963  14.308  14.252  0.2094  0.1644  0.1249
12067W        W31601  11.365   2.423   4.090 -0.1039 -0.1088 -0.4828
12068W        W31602  17.234   5.361  14.844  0.2139 -0.0585 -0.2368
12069W        W31603   8.367   3.565   1.197  0.1002 -0.1139 -0.1035
12070W        W31604  16.509   1.323  13.185 -0.0365 -0.3832  0.1796
12071W        W31605  13.713   4.727   3.110 -0.0285  0.0753  0.0464
12072W        W31606   1.863  10.648   2.635  0.3245 -0.1502  0.2726
12073W        W31607  14.597  16.326   4.356 -0.1680  0.1982  0.1359
12074W        W31608   3.780  12.102  17.252 -0.2243  0.0634 -0.2318
12075W        W31609   4.068   5.720  14.183  0.3127  0.0974 -0.2052
12076W        W31610  10.989   3.080   3.689  0.1955  0.0973  0.0553
12077W        W31611   5.566  13.807   4.341 -0.1578 -0.1817 -0.0258
12078W        W31612   6.850   3.911   0.158  0.1475 -0.1134 -0.0454
12079W        W31613   7.406   6.426   4.577  0.1448 -0.0587 -0.4259
12080W        W31614   5.487   9.064  14.787 -0.1253  0.1613  0.2410
12081W        W31615   7.342   4.815   2.351 -0.0121  0.2175 -0.0665
12082W        W31616   8.371  15.392   4.424 -0.1964 -0.0882 -0.0234
12083W        W31617   0.089   1.793  16.813 -0.1257 -0.1946 -0.1640
12084W        W31618   6.503   1.628  16.828 -0.2004  0.2758 -0.2352
12085W        W31619  11.489  15.100  12.530 -0.0117 -0.0202 -0.0926
12086W        W31620   8.557   6.747   1.574  0.0356  0.1830  0.1501
12087W        W31621   9.199   5.780   0.409 -0.1878  0.0604 -0.0865
12088W        W31622   4.047  10.530   0.815  0.0239  0.1574 -0.0849
12089W        W31623  10.654   1.652  13.046 -0.1404  0.0687 -0.1497
12090W        W31624   0.168   1.303  13.374 -0.2771 -0.0365  0.1967
12091W        W31625   4.709  10.172   2.085  0.1517 -0.0874  0.0398
12092W        W31626   7.388   5.095  13.878 -0.1913  0.0652  0.0128
12093W        W31627   7.085   6.780   2.690  0.2818  0.1234  0.0915
12094W        W31628  12.423  13.665  15.890  0.2937 -0.1508 -0.0344
12095W        W31629  15.620   1.395   1.907  0.0200 -0.1436  0.3560
12096W        W31630  11.044   3.880   4.731 -0.0808  0.1582  0.1483
12097W        W31631  15.910   1.633   1.516  0.1846  0.0656  0.0556
12098W        W31632  10.671   0.770  13.276 -0.1025 -0.2219 -0.0308
12099W        W31633  10.441  14.337  16.576 -0.1167 -0.1131  0.0989
12100W        W31634   7.035  10.044   1.084 -0.0394 -0.2177 -0.2606
12101W        W31635   3.278  17.174  13.726  0.1797  0.1755  0.0452
12102W        W31636   7.181   4.964  15.439  0.1559 -0.1398 -0.0183
12103W        W31637   1.365  11.039  12.600  0.1474 -0.1421 -0.1073
12104W        W31638   4.285  14.023   0.204  0.0492  0.0769  0.2615
12105W        W31639   3.937   5.439   4.385  0.1612  0.0565  0.2613
12106W        W31640  14.267   1.400  15.711 -0.2407  0.0370  0.1611
12107W        W31641  15.539  16.863   0.541  0.1245  0.4027 -0.0620
12108W        W31642  11.903  14.981   3.700 -0.0111 -0.0649 -0.0712
12109W        W31643   4.206  15.152  17.039  0.1116  0.0757  0.2281
12110W        W31644   8.142  15.780  15.630  0.0333 -0.0019 -0.2051
12111W        W31645  16.190   0.831   0.861  0.3776 -0.3179  0.4642
12112W        W31646  10.804  14.044   0.464 -0.2599 -0.0275  0.1268
12113W        W31647  12.095  15.225   4.926  0.0856  0.3414  0.2072
12114W        W31648   6.750   2.259   1.655 -0.1100  0.0975 -0.2139
12115W        W31649   0.360  15.634  12.547 -0.3149  0.0131  0.2405
12116W        W31650   3.491  11.706  17.169  0.2481  0.0947  0.1838
12117W        W31651   0.663  15.891  11.163  0.0366  0.1506  0.1420
12118W        W31652   1.145   3.966  13.494  0.1970  0.0001 -0.1780
12119W        W31653   1.681   7.170   1.081  0.0360 -0.1228  0.0000
12120W        W31654   2.703   3.148   0.034 -0.1859 -0.1122 -0.0349
12121W        W31655   0.065   5.314   2.689 -0.1750  0.1334  0.0504
12122W        W31656   1.893   9.810   4.630  0.0575  0.0818 -0.2654
12123W        W31657   4.195   0.994   3.289 -0.3149 -0.1568  0.0408
12124W        W31658  14.984  16.541  12.707  0.2703 -0.1369 -0.2004
12125W        W31659  15.678   6.113  14.210  0.2457  0.1691 -0.0618
12126W        W31660  12.879  15.040  14.207 -0.1103  0.1047 -0.1727
12127W        W31661   9.616   2.598   4.486 -0.0001  0.0479  0.0683
12128W        W31662   9.819  13.793  13.699 -0.1171 -0.1210  0.0597
12129W        W31663  12.433  14.155  14.145  0.1785 -0.0908 -0.1412
12130W        W31664   1.078  13.304  12.395 -0.1405  0.1833 -0.0285
12131W        W31665  12.689  15.648  15.414  0.0188 -0.0703  0.2711
12132W        W31666   9.090  12.484   4.407 -0.1660  0.0910 -0.1633
12133W        W31667   2.629   8.464   1.621 -0.1587  0.2074 -0.1651
12134W        W31668   1.645   1.443   0.824  0.0566  0.2238  0.0407
12135W        W31669   0.673   5.885   4.312 -0.0287 -0.2071 -0.1308
12136W        W31670   1.274  12.429   2.467 -0.1540 -0.1520  0.0161
12137W        W31671   0.465  12.968   0.126 -0.1563 -0.3855 -0.0696
12138W        W31672   3.564  13.229   3.590  0.2910  0.3416 -0.1084
12139W        W31673  15.399  17.201   2.635  0.0423 -0.0238 -0.2371
12140W        W31674   1.622   0.923   1.821  0.3293  0.2385  0.2329
12141W        W31675   7.659   9.454   4.322  0.0118 -0.0985  0.2930
12142W        W31676  13.349  13.072  13.236 -0.1055 -0.2681  0.0059
12143W        W31677  10.119  11.129  14.487 -0.0244 -0.1746  0.0928
12144W        W31678   7.737   7.881  15.549 -0.0172 -0.1352 -0.3693
12145W        W31679   2.349   1.961  14.293 -0.1040  0.0297  0.1828
12146W        W31680   3.204   2.517   0.290 -0.1203 -0.0009 -0.1366
12147W        W31681   6.896   5.339  15.068  0.2637 -0.1715 -0.0650
12148W        W31682  15.202   0.444   1.151 -0.2259  0.1377  0.1211
12149W        W31683  11.233   6.230  16.170  0.1451 -0.2427 -0.0740
12150W        W31684   6.465  16.336  16.681  0.2302  0.1510  0.4134
12151W        W31685  14.208   7.058   1.227 -0.1087  0.2533 -0.1849
12152W        W31686  13.995  16.813   3.307  0.3615 -0.1716 -0.1013
12153W        W31687   1.782  15.461  16.356  0.1409 -0.4139  0.0544
12154W        W31688  13.637   6.902  15.676 -0.0845 -0.3345 -0.0972
12155W        W31689   6.623   7.971  13.057 -0.0104 -0.1990  0.1183
12156W        W31690  15.997   0.945   2.978  0.0738  0.0754  0.1945
12157W        W31691   7.078   0.666   0.297  0.1108 -0.2171  0.2397
12158W        W31692   3.256   3.856   2.036 -0.0044 -0.0907 -0.0618
12159W        W31693   1.249   4.559   3.162  0.0890  0.4612  0.2045
12160W        W31694   8.904   3.380   5.345 -0.2231  0.0620 -0.0639
12161W        W31695   5.426  11.551  13.845  0.2357  0.0794 -0.2119
12162W        W31696  11.441  17.237  16.798  0.0226 -0.0527 -0.2299
12163W        W31697  13.430   3.119   4.237 -0.2979 -0.1359 -0.1385
12164W        W31698  15.086  14.197  12.383  0.1596 -0.1830  0.0610
12165W        W31699   3.760   9.064   0.496  0.0031  0.1756 -0.0139
12166W        W31700   8.140  10.797   4.957 -0.1315 -0.0393 -0.0369
12167W        W31701   5.828  12.187   1.685 -0.1062  0.0033 -0.0472
12168W        W31702  10.908  14.516  16.586 -0.4301 -0.0602  0.0552
12169W        W31703  12.763   3.723   0.596  0.0990  0.0557  0.0398
12170W        W31704  14.556  17.267  13.531  0.4113 -0.0156  0.1287
12171W        W31705   5.273   4.159  13.240  0.0413  0.0175 -0.2122
12172W        W31706  13.222   9.680   0.058  0.3118  0.1709  0.1243
12173W        W31707  12.220   8.401   2.188 -0.0248 -0.3002 -0.0298
12174W        W31708   8.775   0.341  12.177  0.1184  0.2169  0.1269
12175W        W31709   3.110  15.239   2.754  0.2143  0.0428  0.1021
12176W        W31710  10.770   9.293   3.878 -0.0676 -0.3213  0.1040
12177W        W31711   7.827   3.464  13.395 -0.0361 -0.0265 -0.3014
12178W        W31712  16.644  15.754   3.309 -0.1786 -0.0890  0.1375
12179W        W31713   1.751  16.740   1.039 -0.2503 -0.0178  0.0099
12180W        W31714   0.960   9.847  13.700 -0.1709 -0.3820 -0.1307
12181W        W31715   7.225   1.498   4.294  0.0884 -0.0718 -0.1244
12182W        W31716  11.395   9.273  14.611  0.0385  0.0532 -0.1457
12183W        W31717   6.760   6.608  14.742 -0.1622 -0.3123 -0.2923
12184W        W31718  13.774  11.441   1.199  0.1288 -0.0975 -0.0307
12185W        W31719   6.894   3.205   1.106  0.1079 -0.1696  0.1446
12186W        W31720   7.251   8.371   0.175 -0.0007 -0.1179 -0.1365
12187W        W31721   0.291   4.050  16.822 -0.1650  0.1472 -0.0727
12188W        W31722  12.275   5.515   3.188 -0.0103  0.0384 -0.0770
12189W        W31723   4.742  11.633   4.135 -0.0522 -0.2580 -0.0397
12190W        W31724   2.571  14.109  15.544  0.2026  0.0765 -0.1510
12191W        W31725  13.707  11.391   3.983  0.1167  0.1450  0.1465
12192W        W31726  15.909  11.558  15.586 -0.6782 -0.4608  0.1826
12193W        W31727  14.314   6.452   2.848 -0.0507 -0.2716 -0.1920
12194W        W31728  11.555  16.548  12.334  0.1570  0.2171  0.0921
12195W        W31729   3.276   1.071  14.087  0.2574  0.1857 -0.1420
12196W        W31730   8.982  11.229   4.607  0.1214 -0.0957  0.3367
12197W        W31731  14.401   0.097   0.827 -0.1189  0.1083 -0.2050
12198W        W31732  17.065  10.322  17.223 -0.0410 -0.1543  0.1843
12199W        W31733  15.732   1.203  14.516 -0.2636 -0.1273  0.2290
12200W        W31734  14.939   7.432   0.302  0.1574  0.1539  0.1149
12201W        W31735   7.539   0.654   1.008  0.2046  0.0008 -0.2229
12202W        W31736   5.244  13.719   1.432 -0.2540 -0.0874 -0.0393
12203W        W31737   0.908  17.302  16.855 -0.0192  0.3129  0.2515
12204W        W31738  16.596   1.210   0.172  0.1016  0.0014 -0.0019
12205W        W31739  12.314   0.435   4.276  0.2258 -0.1340 -0.4675
12206W        W31740   8.236  14.580   1.817  0.0890  0.0758 -0.1386
12207W        W31741   6.526   3.582  12.116 -0.0848  0.0377 -0.0913
12208W        W31742   4.333  15.273  14.229  0.2361 -0.0535 -0.1322
12209W        W31743  15.130  15.267   1.195  0.3500  0.1226 -0.2852
12210W        W31744   0.128  17.148  14.316  0.0388 -0.0429  0.2461
12211W        W31745  16.819   1.486  12.765  0.0914  0.0294  0.1478
12212W        W31746  13.349  10.919  15.037 -0.0616 -0.0760  0.0792
12213W        W31747   1.458  13.011   3.059 -0.2670 -0.0356 -0.0566
12214W        W31748   4.721  15.870   3.992  0.2444  0.1601 -0.1302
12215W        W31749   6.894   0.653   4.644 -0.0835  0.2842  0.0016
12216W        W31750   0.717  13.019  12.650  0.0045 -0.0342 -0.3045
12217W        W31751   1.385   0.224  16.457 -0.0230  0.1834 -0.0246
12218W        W31752  15.847   6.246  13.317 -0.1943 -0.0982 -0.2666
12219W        W31753   6.661   8.845  15.441  0.1398 -0.0786 -0.2423
12220W        W31754   8.400  10.524   4.577 -0.2016  0.2070  0.1478
12221W        W31755  12.450   8.325  12.417  0.0750  0.0301  0.2161
12222W        W31756   3.004  13.650  14.248 -0.1466 -0.1290 -0.0846
12223W        W31757   0.845  11.218   4.525  0.0282  0.0658 -0.1585
12224W        W31758   6.544   4.274  14.491 -0.0336 -0.2873 -0.1965
12225W        W31759  16.877   2.338  17.019 -0.0193 -0.0130 -0.0200
12226W        W31760   0.411   5.455  14.249 -0.1735 -0.1606  0.1265
12227W        W31761   6.177  17.100   3.308  0.1569 -0.2472  0.2081
12228W        W31762   5.940   2.434  16.682  0.0231  0.2918  0.1265
12229W        W31763   2.087   3.765   3.366  0.4187  0.2017  0.0434
12230W        W31764  11.162   1.382  16.522  0.0127  0.1255  0.2991
12231W        W31765   8.609   4.465   4.431 -0.0689  0.4757 -0.0335
12232W        W31766   7.582   0.048  15.125 -0.0138  0.0144 -0.2094
12233W        W31767  13.917  10.358  13.379 -0.0623 -0.0459  0.0068
12234W        W31768  11.435   3.750   1.415  0.0387 -0.2189  0.0355
12235W        W31769  12.665  11.501  16.243 -0.2414 -0.2522 -0.3963
12236W        W31770  16.404  13.409  14.203 -0.0592  0.3293 -0.1568
12237W        W31771   0.128  17.433  15.788 -0.0939 -0.2289 -0.0307
12238W        W31772  12.021   9.363  14.239 -0.1970 -0.0535 -0.0886
12239W        W31773  12.333   2.458  13.638 -0.2712  0.0182 -0.1048
12240W        W31774   9.617   2.996  16.604 -0.2886  0.0768 -0.0213
12241W        W31775   8.224  12.687  15.926 -0.0327 -0.0051 -0.0518
12242W        W31776  11.477   2.956   3.925  0.0752  0.0241 -0.2958
12243W        W31777  16.412  15.472   3.701 -0.3470 -0.1306  0.1108
12244W        W31778   5.710   5.530   4.304  0.1180 -0.1587  0.0502
12245W        W31779  15.429   3.776   1.043  0.6699  0.1594  0.0376
12246W        W31780   0.756   6.395   4.449  0.1084 -0.1637  0.1306
12247W        W31781  16.131  12.025  15.408  0.1271 -0.1284 -0.0977
12248W        W31782  10.459   0.347  16.307 -0.1753  0.0993  0.0048
12249W        W31783  17.263   0.611   1.172  0.0717  0.0064 -0.1986
12250W        W31784   0.811   9.498  13.363  0.1171 -0.0113  0.0854
12251W        W31785   3.311  16.162  12.054 -0.0016  0.1287  0.1403
12252W        W31786   4.608  14.368  14.978  0.0598  0.2271  0.1989
12253W        W31787   2.231   1.259  12.122  0.1539  0.3396 -0.2979
12254W        W31788  12.801   9.262   0.042  0.1575 -0.4094 -0.0736
12255W        W31789   9.034   8.283   0.548 -0.0086 -0.2897  0.2530
12256W        W31790  14.076   8.353  11.533 -0.0436 -0.0219 -0.1323
12257W        W31791   2.325   3.972   2.578  0.0135 -0.5846  0.0618
12258W        W31792   4.721   9.386   0.624  0.3146 -0.0595  0.2325
12259W        W31793  14.506  13.840  13.848 -0.2252  0.0212  0.1326
12260W        W31794   8.377   8.148   3.321  0.1548  0.0985  0.0281
12261W        W31795   7.912  13.899   4.620  0.0401 -0.2298 -0.0176
12262W        W31796  16.495  13.953  15.030  0.0037  0.3252  0.2277
12263W        W31797   9.351   0.794  12.619 -0.1813 -0.1188 -0.1312
12264W        W31798   9.685   7.681   5.137 -0.1316 -0.0384  0.0081
12265W        W31799   2.444   8.848  13.473  0.0080  0.3691 -0.1086
12266W        W31800   8.157  13.251   3.343  0.1498 -0.1333 -0.2280
12267W        W31801  10.311   3.068   4.973  0.4258 -0.0652  0.0129
12268W        W31802   5.571  11.992  12.705  0.0046 -0.3198  0.2893
12269W        W31803  11.776   7.945  14.706 -0.0913 -0.2698 -0.1345
12270W        W31804  17.450  11.991   4.797  0.1021  0.0932 -0.0696
12271W        W31805  13.890   5.604  14.292  0.2753  0.3736 -0.1590
12272W        W31806  16.212   5.597   2.927 -0.0709 -0.0805  0.0526
12273W        W31807   6.993   9.248  15.401 -0.1938 -0.3033 -0.2986
12274W        W31808   6.919  14.144  14.625 -0.2453  0.4150 -0.1282
12275W        W31809  10.419  16.545  15.655  0.0839  0.0711 -0.0783
12276W        W31810   6.909   9.785   4.331  0.0682 -0.2900 -0.1747
12277W        W31811  11.688   0.411  12.380 -0.1678 -0.0585 -0.0849
12278W        W31812   1.919   2.050   2.273  0.0273 -0.1240 -0.1312
12279W        W31813   0.683  10.017   3.252 -0.0444  0.1017 -0.0214
12280W        W31814  14.015   4.182  15.434 -0.1590  0.0050  0.0967
12281W        W31815  15.679  15.022  16.234  0.1964 -0.1654  0.1116
12282W        W31816  13.022  16.790  13.860 -0.1075 -0.1162 -0.4199
12283W        W31817   4.849  12.241   3.304  0.4299  0.1692 -0.2847
12284W        W31818   9.396   8.310  17.069 -0.1376 -0.3318  0.4378
12285W        W31819  17.419  15.890   2.873  0.1054  0.1545  0.0460
12286W        W31820  13.163  12.652  14.119  0.2512 -0.1379  0.1430
12287W        W31821  14.722  13.665   4.368 -0.1249  0.3455 -0.0756
12288W        W31822  15.345   3.308  16.988  0.0912  0.3715  0.1176
12289W        W31823  11.145  10.490   0.748  0.0152  0.3477  0.0327
12290W        W31824   6.602   0.031   0.397  0.0556  0.0294 -0.1446
12291W        W31825   5.775  15.300   2.853 -0.0545  0.1876  0.3178
12292W        W31826  12.144   6.764  16.790 -0.3341  0.1447 -0.1734
12293W        W31827  15.590   5.941   4.177  0.2380  0.0238  0.0128
12294W        W31828  13.780   4.218  13.785  0.5006 -0.1851  0.3053
12295W        W31829   3.223   7.990   3.766 -0.1104 -0.0641 -0.1110
12296W        W31830   1.850   7.558  12.591 -0.0177  0.1180 -0.0740
12297W        W31831   7.804  16.938  17.122 -0.2327 -0.1553 -0.0711
12298W        W31832   8.895   1.659   5.226  0.0632 -0.1751  0.6299
12299W        W31833  11.108   1.165   0.172  0.0078 -0.0336 -0.0828
12300W        W31834   6.212  14.065   0.945 -0.3667 -0.0667  0.1521
12301W        W31835  13.458  10.093   0.849  0.0141  0.2244  0.1488
12302W        W31836  11.478  12.790   2.386  0.0128  0.0085  0.5568
12303W        W31837   9.807   8.724   5.198 -0.0309  0.1051 -0.0684
12304W        W31838  12.414   9.939  12.632 -0.4114 -0.2318 -0.0643
12305W        W31839   5.416  12.150  14.983  0.1138  0.1107  0.0659
12306W        W31840  13.179  11.204  13.064  0.1523 -0.0637 -0.0482
12307W        W31841  11.558  12.462  12.479 -0.1136  0.0116  0.4032
12308W        W31842   7.654  17.039   0.410 -0.3065  0.3900 -0.0135
12309W        W31843   0.607  17.147   4.541 -0.2471 -0.1852  0.0891
12310W        W31844   8.197   3.819  12.517 -0.2263  0.0772  0.0959
12311W        W31845   6.104   7.463   1.025  0.1985 -0.1263 -0.3980
12312W        W31846  17.264  16.529   3.628  0.2196  0.1398  0.1759
12313W        W31847  12.871   2.048  13.941 -0.0629 -0.1469 -0.0255
12314W        W31848   8.147  12.690  16.400 -0.3241  0.0907  0.2532
12315W        W31849  14.432   7.009   3.650  0.0759  0.1583 -0.3038
12316W        W31850   6.335   7.928  12.634  0.2263  0.1834  0.0731
12317W        W31851   1.464  16.536  14.194 -0.1006  0.1146 -0.1598
12318W        W31852   3.682   2.447  17.228 -0.0146  0.0903  0.1018
12319W        W31853   9.512   3.420   3.172 -0.2295 -0.0250 -0.2764
12320W        W31854  14.686   7.589  16.750 -0.1168  0.0920 -0.1742
12321W        W31855   9.903  17.352  12.701  0.1429  0.4149 -0.1309
12322W        W31856   1.852  10.728  15.799 -0.1567  0.0698 -0.0645
12323W        W31857   0.636   9.467  14.258  0.1120  0.0122 -0.1072
12324W        W31858   2.387   1.226  13.629  0.0373  0.2083 -0.1528
12325W        W31859   2.923  12.128  15.402 -0.0942  0.1249 -0.1252
12326W        W31860  16.855  13.892   2.768  0.0603 -0.2564  0.1111
12327W        W31861  10.910   8.257  13.982  0.0243 -0.1988  0.3117
12328W        W31862   7.620   7.908  14.209 -0.2371  0.0419 -0.3088
12329W        W31863   6.278   0.536  15.957  0.0412 -0.0362  0.1007
12330W        W31864   0.911  13.001  16.122  0.1462  0.2513  0.0464
12331W        W31865  13.495   0.462  16.093 -0.2301  0.0548  0.2723
12332W        W31866   7.446   0.905  15.439  0.1872 -0.0333 -0.1563
12333W        W31867  14.416   7.933  15.607  0.0670  0.1635  0.1583
12334W        W31868   9.290  17.344   1.540 -0.0207  0.2043  0.2814
12335W        W31869  16.152   9.658   4.758 -0.3479  0.2386  0.2084
12336W        W31870   7.995   6.620  13.745  0.2277  0.1998  0.0566
12337W        W31871   6.798   0.549   3.227 -0.1292 -0.1448  0.0086
12338W        W31872   6.176  15.755   0.659  0.0106 -0.2092 -0.0996
12339W        W31873   5.624  10.414   0.943  0.2011  0.1446  0.0196
12340W        W31874   3.352  11.998   1.726  0.0123  0.3493  0.2040
12341W        W31875  12.064   5.709  13.747  0.0170 -0.0748  0.0918
12342W        W31876   1.760  11.632  12.426 -0.2193 -0.0106 -0.0251
12343W        W31877  13.144  12.140  16.418  0.1680  0.0135  0.0761
12344W        W31878  11.276   3.858   3.139 -0.2523 -0.1501  0.0364
12345W        W31879  10.630   6.368  14.474 -0.3036 -0.3156 -0.1082
12346W        W31880  10.795   6.263  15.804 -0.2315  0.3002 -0.1026
12347W        W31881   1.944  13.967  16.958 -0.2962  0.0405  0.0358
12348W        W31882  12.142  17.362  17.250  0.0717  0.0320 -0.0088
12349W        W31883   9.028   0.775  17.144 -0.1181  0.0806 -0.0529
12350W        W31884  11.053   9.720  13.846  0.0700  0.0946 -0.1667
12351W        W31885   2.187   5.580  14.000  0.3435  0.1312  0.1505
12352W        W31886   5.020   9.232   1.543 -0.2329  0.1328  0.3091
12353W        W31887   7.671  10.932   4.925 -0.0069 -0.0619  0.1614
12354W        W31888   6.634   0.289   1.820  0.0005 -0.1304  0.3763
12355W        W31889  14.198   6.096   4.829 -0.0962 -0.2440 -0.0933
12356W        W31890   6.002   9.273  12.458 -0.0544  0.2665  0.0842
12357W        W31891   5.675   5.955  12.576  0.5432  0.0785  0.2984
12358W        W31892   1.183   1.263  12.532 -0.0553  0.0169 -0.2921
12359W        W31893  12.877   7.856   3.933  0.0002  0.0420  0.1153
12360W        W31894   4.048   8.064   0.714 -0.0437 -0.0819 -0.1090
12361W        W31895  12.747   1.822   1.311  0.1421  0.0591 -0.1793
12362W        W31896   9.493  15.403   3.588 -0.1390  0.2083  0.4930
12363W        W31897   0.871  16.984  14.598 -0.2308 -0.1261  0.0657
12364W        W31898   0.316   9.073   2.218  0.0603  0.1475  0.0829
12365W        W31899   5.562  10.664  13.393  0.1541  0.0572  0.0673
12366W        W31900   9.052   1.450  16.471  0.1058  0.2705  0.1783
12367W        W31901  13.556   2.929   0.298 -0.2498 -0.0906 -0.0867
12368W        W31902   6.776   9.950  16.258 -0.1845 -0.0524  0.0518
12369W        W31903   6.521   4.303  13.701 -0.1579  0.1249 -0.3698
12370W        W31904  11.708  16.200   4.555  0.0705  0.1889  0.1293
12371W        W31905   5.603  12.813   5.225 -0.1337 -0.1237  0.0646
12372W        W31906  10.071   7.341   4.873 -0.0080  0.1995  0.1369
12373W        W31907  13.170   2.774   3.853 -0.1044  0.0812 -0.0905
12374W        W31908  14.538  17.142  16.103 -0.0898 -0.2136 -0.1782
12375W        W31909  16.235  11.343  15.930 -0.0732  0.1232  0.1135
12376W        W31910   8.157  16.272   0.072  0.0814 -0.0292 -0.2833
12377W        W31911  10.183  12.957   1.591  0.0104  0.0055  0.0424
12378W        W31912  11.013   6.030   0.196  0.2740  0.1747 -0.0790
12379W        W31913  10.601   9.445  12.695 -0.2258  0.0522  0.0704
12380W        W31914  16.546   2.225  14.602 -0.3486  0.1974  0.1713
12381W        W31915   3.572   0.899  13.264 -0.2517  0.2761 -0.0349
12382W        W31916  14.383   1.181   5.045 -0.0715 -0.1888 -0.0684
12383W        W31917  15.130   2.902   2.175  0.1182 -0.0158 -0.1761
12384W        W31918  10.808  16.239   5.021 -0.0801  0.0244 -0.0713
12385W        W31919   0.436  16.311   2.049  0.1278  0.1804  0.2763
12386W        W31920   0.096   9.153  12.900  0.4257 -0.0405  0.3914
12387W        W31921   6.068   6.140  12.295 -0.0011  0.2339  0.1549
12388W        W31922   3.306  10.329  13.824 -0.0317  0.0526  0.0741
12389W        W31923   8.921   2.101  13.660 -0.1002  0.1723 -0.1132
12390W        W31924  12.708  12.175   3.487 -0.2696 -0.0174  0.1863
12391W        W31925   2.658  13.230   0.241 -0.0400  0.0220 -0.1731
12392W        W31926   2.883   6.632   1.596  0.0009  0.0365 -0.0773
12393W        W31927   2.059   5.941   4.187 -0.2062  0.0326 -0.0469
12394W        W31928   3.871  14.167   5.013  0.0380  0.1331  0.1908
12395W        W31929   3.014   3.626  14.900 -0.1131 -0.0975 -0.0867
12396W        W31930   6.537   4.967  16.477  0.2331 -0.0436 -0.0123
12397W        W31931  17.087  14.836   0.039 -0.0712  0.0837 -0.3134
12398W        W31932   7.290   2.105  15.297 -0.2889  0.1831 -0.0852
12399W        W31933  15.416  15.363  12.708 -0.1117  0.0705  0.2827
12400W        W31934   8.003  10.565  12.416  0.0783  0.0856  0.0802
12401W        W31935  12.878   7.010  16.235  0.1618  0.0311  0.2733
12402W        W31936  16.656  10.253  14.747 -0.1038  0.0040 -0.1062
12403W        W31937   4.753  17.146  12.737 -0.2435 -0.0883 -0.0682
12404W        W31938  14.064  16.933   3.784 -0.1440 -0.0170  0.2899
12405W        W31939   2.026  16.569   3.577 -0.1171  0.1168 -0.0930
12406W        W31940   8.257   0.512  13.519  0.0260  0.1396 -0.0716
12407W        W31941  17.264  16.286  15.536 -0.0591 -0.0358 -0.1346
12408W        W31942   8.218   2.571   4.186 -0.1838 -0.0279 -0.2146
12409W        W31943   7.210  13.318   2.617 -0.0904  0.4756  0.1429
12410W        W31944  12.408   5.308   1.903  0.1260  0.0299  0.0991
12411W        W31945  12.017  16.641   0.480  0.2359  0.2583 -0.2972
12412W        W31946  12.576   7.297  12.140  0.0507 -0.1077  0.2154
12413W        W31947   4.246   6.824  15.399 -0.1032  0.2355  0.1039
12414W        W31948   5.538   0.528   3.946  0.2766 -0.0821  0.2010
12415W        W31949   2.170   2.152  12.652  0.0349 -0.1352  0.2844
12416W        W31950   6.720   6.100   2.053 -0.2205  0.2928  0.1355
12417W        W31951   0.721  13.026   3.174  0.3041 -0.1885 -0.1180
12418W        W31952   5.817  15.015   0.109 -0.1446 -0.0809  0.1980
12419W        W31953   4.847   6.052  13.636 -0.0636  0.0350 -0.2101
12420W        W31954  13.802   0.992  12.966  0.0533 -0.1066 -0.0124
12421W        W31955   1.555   4.991   2.453  0.0286  0.4084 -0.2571
12422W        W31956   3.923   9.483   3.393  0.1511 -0.1570  0.2177
12423W        W31957   5.138  13.280   1.206 -0.1043 -0.1728  0.0633
12424W        W31958   3.006  15.423   5.161  0.0177  0.3321  0.1499
12425W        W31959  14.797   5.561   4.402  0.1435 -0.1278 -0.1030
12426W        W31960   6.873   2.010  15.039  0.1957  0.2569 -0.1425
12427W        W31961  13.261   7.784   4.950 -0.3309  0.0210  0.1184
12428W        W31962  16.557   4.348   5.364 -0.0375  0.0888  0.0913
12429W        W31963   6.442  13.233   4.111 -0.1348  0.0011  0.1373
12430W        W31964  10.786   4.921   4.255 -0.0552 -0.0535  0.0867
12431W        W31965   7.902   7.928   3.145  0.2015  0.1158  0.0098
12432W        W31966  16.529   0.821   0.477  0.0856 -0.1677  0.0355
12433W        W31967  11.770   5.596   4.598  0.2179  0.1497 -0.0576
12434W        W31968   1.423   7.542   0.816 -0.1865 -0.1658  0.0547
12435W        W31969   6.943   4.614  16.695 -0.3344  0.0896  0.0726
12436W        W31970  11.350   3.893  15.035 -0.0351  0.1155  0.2123
12437W        W31971   0.901   1.539   3.334  0.0400 -0.1498  0.5459
12438W        W31972   0.971  15.063   4.417  0.1119 -0.0977  0.3053
12439W        W31973  11.669  10.683   4.518  0.3817 -0.3362  0.0307
12440W        W31974  11.209   0.692   1.304 -0.1512  0.1140  0.1647
12441W        W31975  16.585   0.029   1.725  0.2404 -0.0339  0.1908
12442W        W31976   8.851   1.353   2.398 -0.1962 -0.3166  0.2835
12443W        W31977  12.762  14.433   1.625  0.0899 -0.0675 -0.2491
12444W        W31978   3.298  15.572   2.355 -0.0661  0.1418  0.1504
12445W        W31979  12.447   5.558   2.724 -0.1886  0.1255 -0.3046
12446W        W31980  14.992  17.054   1.442 -0.2638 -0.0100 -0.1025
12447W        W31981  15.098   6.874   4.377  0.1553  0.1344  0.0441
12448W        W31982   4.034   9.068   3.695 -0.2133 -0.0890  0.0046
12449W        W31983  16.097  14.042  16.385 -0.2390  0.2421 -0.0976
12450W        W31984   3.549   8.296   4.783  0.0559  0.1007 -0.0864
12451W        W31985  12.641   9.080  11.945 -0.2022  0.0704  0.0489
12452W        W31986   4.384  15.799   0.447  0.0946  0.1402  0.0209
12453W        W31987   7.688   0.987  13.073  0.1151 -0.1506 -0.0701
12454W        W31988   0.733   8.944  16.186 -0.1547  0.0792 -0.0559
12455W        W31989   7.150   2.514   0.756 -0.3274  0.0971 -0.0377
12456W        W31990  12.925   9.894   0.941 -0.1696  0.2090  0.1653
12457W        W31991  11.213   9.621   1.693  0.1249  0.3140  0.0083
12458W        W31992   6.907   7.282  12.344  0.3598 -0.1194  0.1643
12459W        W31993   1.929   7.571  14.498 -0.0395  0.0090  0.0423
12460W        W31994   0.882  13.375  13.375  0.4700 -0.1322  0.2420
12461W        W31995  13.745  17.419   0.238  0.4218 -0.0714  0.2819
12462W        W31996   0.670  15.515  15.225 -0.0753  0.0603 -0.1373
12463W        W31997  14.933  12.327  16.964 -0.2071 -0.0221 -0.0073
12464W        W31998   7.928  14.899   3.591  0.1562  0.1176 -0.1073
12465W        W31999   9.101   7.199   2.137  0.1120 -0.1157  0.2371
12466W        W32000   9.650  12.379   0.683 -0.1050  0.0709  0.0288
12467W        W32001  11.494  16.183  12.951 -0.0144  0.0057 -0.0798
12468W        W32002   1.507   4.938   5.438  0.0896 -0.3181 -0.2089
12469W        W32003   7.908   2.158   3.306 -0.2842  0.1465 -0.1409
12470W        W32004   3.543   3.336  16.225  0.0398 -0.0929 -0.0384
12471W        W32005  10.297   8.134   2.696  0.0746 -0.0964  0.0805
12472W        W32006  16.291  10.184   4.085 -0.2427 -0.3264  0.3937
12473W        W32007   1.815  11.848   1.832  0.2779  0.0380  0.2542
12474W        W32008  16.986   6.851   2.642  0.1047 -0.1427 -0.0737
12475W        W32009  14.734   4.535  14.144  0.1359  0.0129  0.3165
12476W        W32010   3.578  13.538   1.704 -0.2459 -0.2170 -0.1951
12477W        W32011   4.578   6.641   1.720 -0.2053 -0.2075  0.0832
12478W        W32012   1.910  11.442  13.229  0.3095  0.1434  0.1538
12479W        W32013   5.398  16.681  14.454 -0.3799 -0.0995  0.0629
12480W        W32014   4.468   9.283  14.817 -0.0013 -0.2383  0.1375
12481W        W32015   3.228  16.755  13.991 -0.1421  0.0603 -0.0054
12482W        W32016  12.861  13.680   0.207  0.1852  0.0876 -0.1396
12483W        W32017   6.403   4.583  14.146 -0.0592 -0.5545 -0.0298
12484W        W32018   8.120   5.372   3.849 -0.2456 -0.1266  0.1738
12485W        W32019   2.382  15.964  12.046 -0.0533  0.1350 -0.2419
12486W        W32020   9.736   7.170  16.459 -0.1133  0.2335  0.0206
12487W        W32021   3.827  10.641   4.424 -0.0433  0.1618 -0.1589
12488W        W32022  14.913   8.698  13.444  0.0863  0.3906  0.1181
12489W        W32023   2.775   9.767  14.488 -0.4010 -0.2758 -0.0733
12490W        W32024   1.648   1.663   3.028 -0.0142 -0.0105 -0.0405
12491W        W32025  11.319  12.174   3.694 -0.0403 -0.0857  0.0664
12492W        W32026  14.757  11.678  15.462  0.1439  0.0512 -0.0911
12493W        W32027   3.725   0.496  15.812  0.1883 -0.0540  0.0364
12494W        W32028  11.490   9.090  16.385  0.2374  0.1046  0.0067
12495W        W32029  15.434  16.014  13.767 -0.0496 -0.0376  0.0046
12496W        W32030   2.076   5.807   3.552  0.1797  0.2930  0.3088
12497W        W32031   6.554   2.558  12.412 -0.0637  0.2320  0.0417
12498W        W32032  10.280   1.952   3.072  0.0651  0.0555 -0.4847
12499W        W32033   9.833   1.201   0.293 -0.2837 -0.0456 -0.0782
12500W        W32034   3.570   6.553   0.983  0.1119  0.0234  0.2661
12501W        W32035  16.278   2.349   4.415  0.0682 -0.1296  0.0459
12502W        W32036   8.070  16.234   2.223  0.3438  0.0794 -0.0607
12503W        W32037  13.247   1.899   4.388 -0.0363  0.0483  0.0562
12504W        W32038   9.214   6.394  14.711 -0.0304 -0.0811  0.2334
12505W        W32039  12.343  12.511   0.011  0.2999 -0.0693 -0.1263
12506W        W32040   5.299   7.669   4.919 -0.0366 -0.0190 -0.2578
12507W        W32041   3.480   5.851   3.759  0.1826  0.0346  0.0976
12508W        W32042   4.385   2.681  15.184 -0.0211 -0.1705  0.0006
12509W        W32043  13.991   1.281  14.386 -0.0312  0.1160 -0.2662
12510W        W32044  16.314  12.638  16.334  0.2656 -0.3739 -0.1803
12511W        W32045  10.582   7.141   4.730  0.1757  0.0265 -0.3146
12512W        W32046   3.844  10.982   3.232  0.1400 -0.1218 -0.0782
12513W        W32047   6.781   6.820  15.927  0.2165  0.0226 -0.0827
12514W        W32048   8.366   2.544   3.333 -0.1039 -0.0956 -0.0738
12515W        W32049  16.642   7.539   3.219  0.0509 -0.0766 -0.0625
12516W        W32050   0.786  12.406  14.158  0.2176 -0.0480 -0.1042
12517W        W32051  15.967  12.073   1.230  0.1008  0.0372  0.0712
12518W        W32052  13.162  12.656  13.069  0.0562  0.0397  0.1878
12519W        W32053   3.300   6.000  14.169  0.1140  0.1282  0.2469
12520W        W32054  16.608   5.606   2.564 -0.1552  0.0806  0.1179
12521W        W32055  14.202   1.326   3.052 -0.2621 -0.0510 -0.1735
12522W        W32056   1.213  17.301  16.113  0.2774 -0.2578 -0.1144
12523W        W32057  10.472   7.601  16.695 -0.1565 -0.1550 -0.0775
12524W        W32058   4.346  11.059   1.133  0.2257  0.0146 -0.2169
12525W        W32059   0.564   9.419  13.776  0.1211  0.0180 -0.2364
12526W        W32060   3.907   7.807   4.938  0.0618  0.0570  0.3148
12527W        W32061   2.782   5.949  13.402 -0.0978 -0.1221  0.2117
12528W        W32062  14.892  11.363  15.103 -0.0144 -0.2479 -0.0303
12529W        W32063  15.426   8.030  16.579  0.2785 -0.2312  0.3605
12530W        W32064  11.856   9.408   1.634  0.1138 -0.0748 -0.0374
12531W        W32065  16.532   7.581  12.565  0.3563  0.0374 -0.1051
12532W        W32066   4.442  11.296  15.928  0.1134 -0.0843  0.0903
12533W        W32067  14.078   5.416   2.649  0.1221 -0.1332 -0.1673
12534W        W32068  12.705  14.120   4.338  0.5559 -0.0207  0.0282
12535W        W32069  10.208   1.209  16.451 -0.0496  0.1051 -0.1133
12536W        W32070   4.975  15.482  16.237 -0.0120 -0.0451 -0.0188
12537W        W32071  11.227  13.255  14.841  0.2433  0.1894  0.0637
12538W        W32072   4.830  11.058   1.049  0.0857 -0.0071  0.1859
12539W        W32073  15.734   3.148   1.595  0.2740  0.5177  0.0810
12540W        W32074  10.375  13.601   3.507 -0.2672  0.1772  0.1843
12541W        W32075  16.077  10.817   0.271 -0.1430 -0.0795  0.1238
12542W        W32076   7.727  16.626   2.147  0.1397  0.2709  0.2163
12543W        W32077  14.984  12.553  14.088 -0.1142 -0.1636  0.1793
12544W        W32078  13.608  10.940  14.173 -0.2866  0.0667 -0.0324
12545W        W32079   6.798   1.776   0.443 -0.1040  0.0574 -0.0876
12546W        W32080   8.029   5.687  13.437 -0.2373 -0.2999  0.0948
12547W        W32081   7.365  14.324   1.672 -0.0942  0.0420  0.0398
12548W        W32082   1.978  15.301   2.786 -0.4115 -0.1089 -0.2043
12549W        W32083   1.878   9.771  16.778 -0.1136  0.0433  0.0163
12550W        W32084  11.537   9.272   0.165 -0.2238 -0.1373  0.5005
12551W        W32085   1.000   6.173   5.302 -0.2684  0.1832 -0.0938
12552W        W32086   8.954   8.880  12.020  0.2970  0.2250  0.0935
12553W        W32087  10.975  14.621  12.601  0.0428 -0.0998  0.1341
12554W        W32088  16.427   2.067  16.101 -0.2310  0.2599  0.3297
12555W        W32089   6.493   8.819   0.543 -0.0965  0.1742 -0.0874
12556W        W32090   8.082   3.387   5.387  0.1988  0.2104 -0.0505
12557W        W32091  10.150   5.487  13.051  0.0648  0.2472  0.2060
12558W        W32092   4.118   1.482  13.502  0.1156  0.0546 -0.0558
12559W        W32093  16.946   4.241  15.793 -0.0021  0.1163 -0.1044
12560W        W32094  15.757  17.430  14.422  0.0789  0.1600 -0.1961
12561W        W32095   8.421   9.353   0.323 -0.1972  0.2858  0.3355
12562W        W32096   0.817  12.702   0.659 -0.2968  0.0931 -0.0776
12563W        W32097  13.272   4.293  14.043 -0.1188  0.0669 -0.3005
12564W        W32098   7.070   2.512   2.558  0.1574 -0.0044  0.3843
12565W        W32099  12.348   4.809   0.352  0.0277 -0.3657  0.2785
12566W        W32100   2.413   3.756   1.901 -0.0198  0.3978 -0.0602
12567W        W32101  12.543  12.935   2.957 -0.2800  0.1496  0.3501
12568W        W32102  16.491   6.861   5.210  0.1902 -0.0279  0.0863
12569W        W32103  13.607   5.884  16.513 -0.0681 -0.3022  0.1963
12570W        W32104   5.975  16.749   3.654 -0.0399 -0.0151  0.1735
12571W        W32105  10.978  13.979  11.451 -0.1804 -0.3152 -0.0631
12572W        W32106  14.151   4.115   3.528  0.0349  0.2826  0.2707
12573W        W32107  16.297   9.823   3.133 -0.2604 -0.2463  0.0852
12574W        W32108  15.770  13.237  12.814  0.0100  0.0010  0.0123
12575W        W32109   9.806  14.213  15.833 -0.1337  0.1081 -0.1339
12576W        W32110   0.176  12.099  14.181  0.3079  0.1170 -0.0067
12577W        W32111   8.520   8.427  16.760  0.2709 -0.2071 -0.1279
12578W        W32112   1.437   9.721  16.109  0.1252 -0.1508 -0.2062
12579W        W32113  15.591   8.273  15.433  0.0468  0.1929  0.2687
12580W        W32114  17.167   1.667   4.708 -0.3958 -0.0217  0.1684
12581W        W32115   1.046  14.356   2.149 -0.0134 -0.0154  0.2931
12582W        W32116  14.181  12.106  15.621 -0.0036  0.2523  0.4190
12583W        W32117  17.261   1.120  13.672  0.0154 -0.2544 -0.2239
12584W        W32118   9.975   7.030   1.369  0.4160 -0.1051  0.0651
12585W        W32119  17.436  17.272  13.508  0.5022 -0.2088 -0.1909
12586W        W32120   1.545   0.454   3.533 -0.0934 -0.2014 -0.2674
12587W        W32121  17.094   6.381  16.572 -0.1097 -0.0179 -0.0566
12588W        W32122   5.521  14.814   2.872 -0.2961 -0.0051  0.1221
12589W        W32123  11.903   4.554  15.773 -0.3926 -0.1574 -0.0121
12590W        W32124   4.484  15.975   2.231  0.1854  0.0540  0.0874
12591W        W32125   4.194   4.289   4.424 -0.0427 -0.3168 -0.0050
12592W        W32126   1.842   4.434  13.768 -0.1926 -0.0620 -0.1879
12593W        W32127   3.781  16.266   5.161 -0.1751 -0.1037  0.0462
12594W        W32128   1.014  16.857  16.982 -0.3992  0.2377 -0.0422
12595W        W32129  11.478   6.880   1.712  0.1536  0.2029 -0.0480
12596W        W32130   0.293  16.790   0.152 -0.1585 -0.2884  0.1581
12597W        W32131  12.060  12.378  12.638 -0.0072  0.2010  0.1591
12598W        W32132  10.955   2.485  17.062 -0.2485  0.1788 -0.1959
12599W        W32133  15.931  16.904   3.718 -0.0823 -0.1051 -0.1600
12600W        W32134  10.252   4.741   3.027 -0.1724 -0.3408 -0.2474
12601W        W32135  13.348   5.884   4.392 -0.0496 -0.0924  0.0347
12602W        W32136   3.397   1.445   4.464 -0.0807  0.0359 -0.1287
12603W        W32137  15.164   0.104  14.337 -0.1521  0.0620 -0.0520
12604W        W32138  17.029   8.402  17.093 -0.0550  0.1726 -0.2107
12605W        W32139  12.598   8.718   2.978 -0.3323  0.0402 -0.0770
12606W        W32140  11.363   8.116   1.351 -0.0930 -0.3307  0.1033
12607W        W32141   1.406   2.540   3.265 -0.0639  0.1977  0.0899
12608W        W32142  13.746  16.297  13.148  0.2069 -0.2323 -0.0590
12609W        W32143   1.560   0.559  13.890  0.2874 -0.2059  0.0870
12610W        W32144   5.324   9.771   3.617 -0.2177  0.0178 -0.1854
12611W        W32145  15.927  10.120   3.708  0.2699 -0.0277  0.2362
12612W        W32146   2.099   5.025   1.310 -0.0163 -0.1457  0.3814
12613W        W32147   8.265  10.602   0.575 -0.0763  0.1120 -0.2015
12614W        W32148   8.356   8.671   5.155 -0.1063  0.3900 -0.1816
12615W        W32149   0.684   9.871   4.936  0.1953  0.2764 -0.0347
12616W        W32150  11.810   3.504  13.550 -0.1230 -0.1462  0.0399
12617W        W32151   2.912   1.925   0.604  0.1122 -0.1248 -0.1334
12618W        W32152  12.537  10.369   4.040  0.0009  0.0772  0.0774
12619W        W32153  11.897  11.572  15.528 -0.2199 -0.1260 -0.0105
12620W        W32154  14.869   6.576   2.965 -0.3485 -0.2110  0.1169
12621W        W32155   6.799  17.236  15.637  0.1764 -0.0962 -0.3381
12622W        W32156   5.232  10.562   3.160 -0.0424 -0.0670  0.0874
12623W        W32157   4.281  15.117   3.046 -0.2551  0.2701  0.2502
12624W        W32158  11.852  14.639  13.561 -0.0107 -0.1890 -0.1039
12625W        W32159  14.868  15.712   1.571 -0.0719 -0.0406  0.0587
12626W        W32160   9.386  13.845   0.460  0.2065  0.1700 -0.0095
12627W        W32161  12.786  11.389   3.427  0.0993 -0.0060  0.2025
12628W        W32162   7.290   0.024  16.907 -0.0123 -0.0245 -0.1423
12629W        W32163   3.723  17.450  13.035  0.3162 -0.1063  0.0130
12630W        W32164   8.162  10.223   4.289 -0.0966  0.2677 -0.1387
12631W        W32165  13.831  15.423   2.985 -0.1039 -0.0786 -0.1915
12632W        W32166   0.814   1.926   0.184  0.2754 -0.1076 -0.4219
12633W        W32167  10.614   9.406  13.702 -0.0881 -0.1582  0.2188
12634W        W32168   2.267   0.373   3.393 -0.1692  0.1906  0.1693
12635W        W32169  12.998  14.981   4.442  0.3027  0.0004 -0.1015
12636W        W32170   2.181   7.689  15.459  0.0133  0.0873 -0.0139
12637W        W32171   7.874  14.377   0.409 -0.4784  0.2738  0.1702
12638W        W32172  12.061   4.611   2.642  0.0076  0.2404  0.2188
12639W        W32173  12.193   1.471  14.323 -0.3619  0.0125  0.2137
12640W        W32174   2.826   6.122  12.044 -0.1133  0.1399 -0.0470
12641W        W32175   7.223  13.502  14.809 -0.4009  0.2384 -0.1402
12642W        W32176   3.602   3.812  13.543 -0.0531  0.0147  0.1855
12643W        W32177  15.402  13.519  12.978  0.2026 -0.2648 -0.1401
12644W        W32178   3.956   5.264  13.952  0.1757 -0.0146 -0.1255
12645W        W32179   2.174   6.774   3.995 -0.0657  0.4225 -0.3568
12646W        W32180   2.437   4.088  17.220 -0.2966  0.0088  0.1796
12647W        W32181   3.382   7.139   4.658  0.0836  0.3024  0.4169
12648W        W32182  13.589  14.459  15.806  0.0745 -0.1262 -0.0347
12649W        W32183   9.038   2.187   2.310  0.0962  0.0541 -0.2586
12650W        W32184   1.237  10.475  16.236  0.1759  0.2477 -0.0015
12651W        W32185   7.164  17.242  13.058  0.0961 -0.1558  0.0110
12652W        W32186   9.260  10.719  14.959  0.0475  0.1914  0.0214
12653W        W32187  10.065   6.461   2.610 -0.2784 -0.2177  0.1610
12654W        W32188   7.598   0.401  17.143  0.2467  0.0095  0.2366
12655W        W32189   3.786   3.345   4.443  0.0692  0.1563 -0.2505
12656W        W32190   3.005  15.779   1.929  0.0429 -0.0839 -0.0748
12657W        W32191   8.456   7.044   5.192 -0.1922 -0.0565 -0.0528
12658W        W32192   7.520   4.544  12.245  0.0851 -0.0556  0.2099
12659W        W32193   6.337  17.286   1.856 -0.0323  0.1548 -0.0922
12660W        W32194  15.194   1.127   4.604 -0.3307 -0.0673 -0.0853
12661W        W32195   1.947   5.922   4.696  0.0602 -0.0938 -0.3910
12662W        W32196  15.099  12.721  13.139 -0.1864 -0.1389  0.0390
12663W        W32197   7.263  13.093  15.867 -0.0246  0.2751  0.1658
12664W        W32198   2.352  11.532  13.479  0.0587 -0.1281  0.1531
12665W        W32199  15.435  10.367  16.755 -0.0815 -0.0714  0.0222
12666W        W32200   2.699   2.081  14.650 -0.3861  0.0150 -0.3494
12667W        W32201   6.616   2.276   4.448 -0.1513  0.1770  0.2033
12668W        W32202  11.299  11.160  15.979  0.1888  0.1604 -0.1482
12669W        W32203  15.614  11.475   1.654 -0.0489  0.1248  0.0832
12670W        W32204  16.485   5.783   1.200 -0.0505  0.3837  0.1364
12671W        W32205  12.332   2.628   0.240  0.1379 -0.0654 -0.0299
12672W        W32206  11.029   0.400  15.284  0.0087 -0.0033  0.0990
12673W        W32207  16.231   4.697   3.895  0.0032 -0.2251  0.0216
12674W        W32208  11.170  14.806   4.793 -0.0768  0.1141 -0.0155
12675W        W32209  12.663  13.268  16.043  0.2903  0.2467 -0.0915
12676W        W32210   3.760  11.123  13.219 -0.3795  0.0676  0.4871
12677W        W32211   4.368   0.202   0.962  0.0128  0.1695 -0.2057
12678W        W32212  12.852  15.561   0.580 -0.1256  0.0941  0.3046
12679W        W32213   0.234  14.496   2.034  0.0411  0.2886 -0.0071
12680W        W32214  15.607   7.955  12.421 -0.2189  0.0425  0.1382
12681W        W32215   1.240   1.399   1.127  0.1344  0.3446  0.0770
12682W        W32216   3.426   9.489  15.646  0.0791 -0.1046 -0.1932
12683W        W32217   6.708  11.259  13.523  0.1886 -0.0084 -0.2105
12684W        W32218  15.572   1.285  13.586 -0.2964  0.1967 -0.2277
12685W        W32219   0.428  13.624   0.920  0.3334  0.4174 -0.1114
12686W        W32220   3.785   1.949  16.721 -0.2555  0.1861  0.1951
12687W        W32221   6.601  14.815  17.310  0.0610  0.2075 -0.0618
12688W        W32222   6.444   9.468  12.602 -0.0061  0.0430  0.1489
12689W        W32223   9.301   1.631  16.864 -0.0580  0.2828  0.0894
12690W        W32224  13.440   3.804   1.987  0.0735 -0.0826 -0.1016
12691W        W32225  12.427   3.306   2.667 -0.2821 -0.1505 -0.3547
12692W        W32226  14.781   9.398  14.824 -0.2548  0.0066  0.3481
12693W        W32227   4.020   2.769   0.617  0.0144 -0.1406 -0.1497
12694W        W32228   8.243   9.374   0.780 -0.0464 -0.3907 -0.4269
12695W        W32229  12.669  14.601  14.185 -0.1696 -0.4469 -0.2611
12696W        W32230  13.984   8.801   2.076  0.1604  0.1076 -0.0877
12697W        W32231   6.986  16.296  13.239  0.1667  0.2319  0.0208
12698W        W32232   2.954  12.011  15.876 -0.1884 -0.1519 -0.0752
12699W        W32233  13.774  11.661   0.151 -0.0205 -0.2943 -0.1455
12700W        W32234  13.676   3.039  12.384 -0.3304 -0.1119 -0.1096
12701W        W32235   3.411   1.783   4.834 -0.1266 -0.0428  0.0246
12702W        W32236  11.754  14.520   1.322 -0.0461 -0.0862  0.1038
12703W        W32237   3.818  15.873  13.025  0.0449 -0.2073 -0.1682
12704W        W32238   0.694  11.406  13.213 -0.0209 -0.0735  0.2513
12705W        W32239  11.191   7.490   1.888 -0.2126 -0.0664 -0.1387
12706W        W32240   2.635   1.326  15.085  0.2866 -0.2396  0.0567
12707W        W32241   6.129   3.317  15.842 -0.1534 -0.1977 -0.0578
12708W        W32242  15.389   0.150  16.488 -0.2591 -0.1053  0.1142
12709W        W32243   1.186   7.580   5.048 -0.1257  0.0707 -0.0469
12710W        W32244  10.823   2.729   0.177 -0.1925 -0.1494 -0.4810
12711W        W32245  16.041  14.902   3.014 -0.5097 -0.0802 -0.1363
12712W        W32246  11.366   8.642   3.077  0.1417  0.1027  0.2487
12713W        W32247  16.934  14.360   0.904  0.0732 -0.0058 -0.4185
12714W        W32248   2.958  12.746  12.128 -0.1120  0.1034 -0.0330
12715W        W32249  10.173   8.478   4.860  0.1900  0.0722  0.5018
12716W        W32250  13.659   4.766  12.527 -0.0792 -0.1917  0.0833
12717W        W32251   8.689   9.753  13.257  0.1498 -0.0460 -0.1541
12718W        W32252   7.758   2.132  16.867 -0.4412  0.1451  0.0897
12719W        W32253   1.965   8.121   0.231 -0.2332  0.1554  0.0437
12720W        W32254  11.564  12.795  14.418 -0.0689 -0.1370 -0.0333
12721W        W32255  11.035   7.319   2.908 -0.1283  0.1828 -0.3095
12722W        W32256   0.024   2.937   0.781  0.4463 -0.1538 -0.1095
12723W        W32257   5.211   0.516  11.871 -0.1449 -0.0814  0.0260
12724W        W32258   6.485  16.712  15.314  0.1251 -0.0615 -0.0100
12725W        W32259  15.542   8.631  14.065  0.1404  0.0631 -0.0728
12726W        W32260   7.213   7.412  12.746 -0.1182 -0.2905  0.1598
12727W        W32261  10.320   6.520   1.305  0.0804  0.0918  0.0234
12728W        W32262   2.062   1.173   5.344  0.1976  0.0211 -0.2639
12729W        W32263   9.814   1.589  15.075 -0.1416  0.2060 -0.1249
12730W        W32264   7.214   0.496   4.235  0.4330  0.0312 -0.4182
12731W        W32265   2.603   2.117  12.946 -0.0400  0.1161  0.0621
12732W        W32266   7.640  10.316  12.679  0.0098  0.0990 -0.1954
12733W        W32267  17.220   1.318  12.466  0.2978  0.0659 -0.0149
12734W        W32268   4.777   4.282  13.084  0.3455 -0.0166  0.1892
12735W        W32269  15.152   9.557  12.261 -0.0863  0.0994  0.0921
12736W        W32270  16.890  14.925  15.585 -0.0426  0.0756  0.1337
12737W        W32271  17.371   4.322  12.906  0.0661 -0.2092  0.1984
12738W        W32272   0.375  16.008   3.050  0.0115  0.0191  0.1334
12739W        W32273   6.326   5.394   2.695 -0.2312 -0.2125 -0.0442
12740W        W32274   0.579   5.785  16.074  0.2521  0.2239  0.1710
12741W        W32275  15.352  16.171  15.603  0.2014  0.2882  0.0482
12742W        W32276   2.476  14.630  13.358  0.0408  0.3455  0.0539
12743W        W32277  11.966  10.832   2.754 -0.0935 -0.3570 -0.1019
12744W        W32278   2.133  11.617  15.896 -0.4500 -0.1925  0.4131
12745W        W32279   4.887  10.728  15.134  0.2870  0.1466 -0.2009
12746W        W32280   5.772  16.604  17.097 -0.0324  0.0957  0.1191
12747W        W32281   1.555   3.909  13.828  0.4858 -0.0496  0.1135
12748W        W32282  14.286  14.133   3.248  0.2065 -0.2171  0.1657
12749W        W32283  16.739  12.742   3.214  0.1376  0.2423  0.1614
12750W        W32284   3.020   5.795   0.334 -0.1232  0.1948  0.0654
12751W        W32285  16.094  13.317   3.072 -0.2277  0.2031 -0.2376
12752W        W32286   6.267  15.929   1.635 -0.3695  0.1729  0.3157
12753W        W32287   4.090  15.943  16.560  0.0618  0.1933  0.4203
12754W        W32288   5.497  12.332  17.045 -0.0741 -0.2793 -0.1390
12755W        W32289  13.831  16.479  15.812  0.2917  0.0539 -0.0591
12756W        W32290  17.005   4.308   4.760  0.0280 -0.0600  0.1566
12757W        W32291  15.785   8.656  13.257 -0.1644 -0.2051 -0.1107
12758W        W32292  15.722  12.848  16.840 -0.3668  0.0766  0.0938
12759W        W32293   4.778   4.676   2.010  0.3543  0.0073  0.2935
12760W        W32294  10.377  12.132  16.948 -0.0711 -0.0594  0.0925
12761W        W32295  14.590   4.018   1.070 -0.4729 -0.1441  0.1678
12762W        W32296   0.542   5.362   5.480 -0.1556  0.3344 -0.1123
12763W        W32297   7.929   7.991  17.035 -0.0531 -0.0088  0.1845
12764W        W32298   9.393   9.270  14.486  0.0783  0.1575  0.1453
12765W        W32299   3.838   5.638  13.606  0.3211 -0.0774 -0.1694
12766W        W32300   9.947   5.848  13.312 -0.0665  0.1139  0.1715
12767W        W32301  11.731  12.008   1.434 -0.1243  0.0127  0.0839
12768W        W32302   5.944   4.583  13.022 -0.0021 -0.2347 -0.0679
12769W        W32303   1.231   1.411   3.637 -0.2740 -0.2254 -0.0966
12770W        W32304   1.366   2.797  15.202 -0.0512 -0.2692  0.0339
12771W        W32305  12.765   4.387  14.753  0.1230  0.0465  0.0902
12772W        W32306  11.552   7.783   0.016  0.3202 -0.1393 -0.0887
12773W        W32307   1.203   8.012  12.250 -0.1343  0.0703 -0.2255
12774W        W32308  10.552   9.103   2.607 -0.0654 -0.3008  0.0982
12775W        W32309   6.211   2.359   3.534  0.0467  0.1173 -0.1420
12776W        W32310  16.385   5.636   3.396 -0.1422 -0.0452  0.2320
12777W        W32311  13.383  10.804  13.297  0.1814 -0.1389  0.4027
12778W        W32312   5.824   2.052   3.558 -0.0652 -0.2229  0.0816
12779W        W32313   5.871   0.747   0.731 -0.3123  0.3837  0.1778
12780W        W32314   7.963   2.047  16.385  0.2812 -0.0938  0.2056
12781W        W32315   5.715  15.670   2.488  0.0317 -0.1214  0.0813
12782W        W32316   7.346   0.805   1.493  0.1373 -0.2118  0.0298
12783W        W32317   4.412  13.855   1.602  0.2869 -0.0158  0.1221
12784W        W32318   9.271   0.975  14.465 -0.0623  0.2079 -0.1658
12785W        W32319  12.843   1.570  13.710  0.0357  0.0999 -0.0362
12786W        W32320  13.019   4.578  13.668  0.1252 -0.0184 -0.1749
12787W        W32321   9.191  16.405   1.658 -0.0466  0.2020  0.2906
12788W        W32322  11.591   6.546  14.529  0.2472  0.1588 -0.0985
12789W        W32323   9.205   3.894   2.369 -0.1120 -0.3302 -0.0825
12790W        W32324  12.273   9.068   2.878  0.2831  0.0983  0.3107
12791W        W32325   2.760  15.299  12.172  0.0213  0.1019  0.1687
12792W        W32326   8.159  13.234  15.464 -0.1439 -0.3557  0.2818
12793W        W32327  12.053   0.047   1.540  0.2145 -0.0177 -0.3424
12794W        W32328  12.018  12.664   3.602  0.1894  0.2607 -0.1078
12795W        W32329  16.784   2.135   4.535  0.0879 -0.0238 -0.0259
12796W        W32330  14.038   8.667  15.051 -0.4047  0.1044  0.2136
12797W        W32331   3.470   3.206  14.307  0.1001 -0.3187 -0.1025
12798W        W32332   9.294   7.942   2.486 -0.0167  0.1787  0.1623
12799W        W32333   6.765   3.821   2.003 -0.0345 -0.2043  0.1188
12800W        W32334  16.982  12.611   3.616  0.0992 -0.0152 -0.0282
12801W        W32335  13.965  13.820   5.014  0.0179 -0.1532 -0.0230
12802W        W32336   9.725  16.227   1.558 -0.0909 -0.2944  0.1451
12803W        W32337   9.651  10.766   5.289 -0.0919  0.1002 -0.2682
12804W        W32338   2.032   5.932  14.673 -0.1478 -0.2513 -0.0885
12805W        W32339   5.862  16.293   2.395 -0.0709  0.1661  0.0758
12806W        W32340   9.849   7.351   2.594  0.1170 -0.2671  0.0863
12807W        W32341   4.127   9.536   5.119  0.1078 -0.0956 -0.2338
12808W        W32342  15.280   5.806  14.612  0.3880 -0.1726  0.1508
12809W        W32343   9.928   1.485  16.856  0.1486 -0.0242  0.1029
12810W        W32344  13.357   3.806   3.289  0.1044  0.2284 -0.1023
12811W        W32345  16.410  16.363   4.778  0.1649 -0.1243 -0.1035
12812W        W32346   4.037   7.077  14.579 -0.1859 -0.2726 -0.1891
12813W        W32347  15.145   8.546   0.937 -0.2487  0.1299 -0.3204
12814W        W32348  12.599   7.277  14.978 -0.0793  0.0485 -0.1233
12815W        W32349  15.512  16.356   4.013  0.0471 -0.0554  0.0375
12816W        W32350  12.981   2.130  12.905 -0.5420 -0.2870  0.6566
12817W        W32351   7.383  11.599   3.700  0.3391  0.0839 -0.0219
12818W        W32352  11.559   8.509  13.541 -0.1386 -0.1205 -0.1392
12819W        W32353  10.200  14.733   1.136 -0.1681  0.0701  0.2006
12820W        W32354   0.742   0.607  15.249  0.2129 -0.0535 -0.0729
12821W        W32355   0.153   4.647  17.238 -0.2135 -0.1008 -0.0526
12822W        W32356  16.298   1.908   2.977 -0.3588 -0.0750  0.1568
12823W        W32357  11.952   9.240   3.221  0.0080 -0.0940 -0.1243
12824W        W32358   7.312   4.683  13.212 -0.2078 -0.3854  0.1724
12825W        W32359  14.136   5.686   3.575  0.1398  0.1849  0.1094
12826W        W32360  13.907  15.968  15.866  0.0201 -0.0555  0.1061
12827W        W32361  16.799   7.757   1.355 -0.1253 -0.1084  0.0978
12828W        W32362  16.643   1.998  15.489  0.1033  0.2291  0.3046
12829W        W32363  15.919  14.316  13.764  0.1700  0.0898 -0.0695
12830W        W32364  11.650   7.537  15.112 -0.2041  0.1746  0.0546
12831W        W32365   5.201   4.554   1.114 -0.1002 -0.1192 -0.3285
12832W        W32366  14.901   1.666  13.503 -0.4723  0.0083  0.0314
12833W        W32367   3.515   3.609  15.212  0.2484  0.2113  0.1353
12834W        W32368   2.913  17.115  16.530 -0.1235  0.1399  0.2735
12835W        W32369   1.520   4.716   0.637 -0.1628 -0.1392 -0.4041
12836W        W32370  10.961  13.117  15.252  0.0824 -0.1546  0.0668
12837W        W32371  10.380   9.635  15.468  0.0112  0.1521 -0.0231
12838W        W32372  11.763  16.608   3.466  0.0832  0.1397 -0.1179
12839W        W32373   3.370   0.255  14.444 -0.0765 -0.2110  0.0666
12840W        W32374   3.623   9.080   2.729 -0.1814  0.2858 -0.0605
12841W        W32375  11.752   3.126  15.275 -0.0566  0.2764 -0.1743
12842W        W32376   8.915   0.527  12.783 -0.1161  0.1708  0.0693
12843W        W32377   9.014  13.848  14.564  0.3109 -0.2873  0.0288
12844W        W32378   6.991  12.878   2.575 -0.1119 -0.1152 -0.4368
12845W        W32379   1.537   9.890  15.058  0.1825 -0.0913 -0.3221
12846W        W32380  15.228   2.032  13.033  0.1031 -0.0728 -0.1464
12847W        W32381  13.855   3.127   2.943  0.0930 -0.0758 -0.1869
12848W        W32382   3.118  12.088   3.101 -0.0879 -0.0184 -0.0182
12849W        W32383   0.678   9.217  16.658  0.3534 -0.0247 -0.0772
12850W        W32384  12.374  15.371  12.994 -0.1268 -0.1078 -0.1262
12851W        W32385  16.631  14.962  12.772 -0.1497 -0.1183  0.1024
12852W        W32386  14.088  13.019  15.075 -0.0040  0.2826  0.0870
12853W        W32387   4.322  13.045  16.082  0.0852 -0.0483 -0.0707
12854W        W32388   0.516  12.222   1.472 -0.1815 -0.1875  0.2883
12855W        W32389   1.369  16.080  13.930  0.0596  0.3513 -0.1176
12856W        W32390  13.689   5.243  12.854  0.0098  0.2612 -0.2812
12857W        W32391  10.787  15.650   3.162 -0.0773 -0.5458 -0.0732
12858W        W32392  16.983  14.337   2.498 -0.0499 -0.1007  0.4373
12859W        W32393   2.750   7.652  12.803 -0.0204  0.1496  0.2282
12860W        W32394  14.122   2.981  12.696  0.1126 -0.2275 -0.0727
12861W        W32395  10.162  15.621   1.121  0.0318 -0.1796 -0.0791
12862W        W32396  14.511   4.969   1.978 -0.2148  0.1856  0.2888
12863W        W32397  14.198  15.871  17.171  0.1854 -0.0150  0.2472
12864W        W32398   8.455  11.835   4.036  0.0626 -0.4293 -0.0955
12865W        W32399   8.799  16.375   0.780  0.0747 -0.2680 -0.3220
12866W        W32400   2.415   3.390   4.883  0.1822  0.1042 -0.1905
12867W        W32401   5.196  15.934   0.292  0.1186  0.1658 -0.0827
12868W        W32402   1.446   6.071   2.777  0.1203 -0.0580  0.0328
12869W        W32403   1.371  16.774  12.627 -0.1579 -0.0138  0.0435
12870W        W32404   2.300  12.622  16.443  0.0975 -0.1544 -0.0147
12871W        W32405   6.183  10.279   3.678 -0.1355  0.0510  0.0448
12872W        W32406   1.415  14.916   3.858  0.0263 -0.0935  0.0391
12873W        W32407  11.121   0.637  15.755  0.1534 -0.0808  0.1641
12874W        W32408   4.473  11.979   1.990 -0.0507  0.2631 -0.0135
12875W        W32409   9.999   6.569  15.251  0.0573 -0.1166 -0.0885
12876W        W32410   7.019  15.687   0.716 -0.2216 -0.0635  0.0155
12877W        W32411  11.090  15.407   4.836  0.2397 -0.0575  0.0499
12878W        W32412   0.597  13.625   4.091 -0.2149 -0.0871  0.2548
12879W        W32413  11.574   9.906  16.256 -0.0427  0.0671 -0.1603
12880W        W32414  15.967  16.468   5.087 -0.0081 -0.0650  0.0155
12881W        W32415   4.408   0.896  15.051  0.2528 -0.1561 -0.0409
12882W        W32416  10.129   8.659  13.672  0.2189 -0.1113 -0.0971
12883W        W32417  14.504  10.662  14.028  0.0208 -0.1727  0.0934
12884W        W32418   6.419   6.470  16.741  0.2275 -0.0911 -0.0999
12885W        W32419   4.221  10.004   2.011  0.0841 -0.1595  0.0187
12886W        W32420  10.684   4.047  14.072 -0.1701  0.0597 -0.1297
12887W        W32421  13.444  16.926   4.171 -0.1849 -0.0292 -0.0486
12888W        W32422  11.752   9.814   0.854 -0.1321 -0.2422 -0.2984
12889W        W32423  16.384   0.405  12.638 -0.2545  0.0306  0.1287
12890W        W32424   3.181   0.195   1.034 -0.0186  0.0555 -0.0928
12891W        W32425   8.710  10.324  15.074  0.0379 -0.4205 -0.1717
12892W        W32426  16.561  15.187   0.345 -0.4046 -0.0858 -0.1497
12893W        W32427   8.373  10.764  14.310  0.1067 -0.0607 -0.1466
12894W        W32428  16.901  14.019   3.390 -0.0526 -0.2154  0.0607
12895W        W32429   2.088   8.447  12.307  0.0417 -0.1775 -0.2606
12896W        W32430  13.599   5.405  16.646 -0.0708  0.1802 -0.3543
12897W        W32431   9.340   0.742   1.534 -0.0607 -0.0992  0.0169
12898W        W32432  15.970   7.235   1.976 -0.3219  0.3593 -0.0068
12899W        W32433  15.785   3.162   0.309  0.1581  0.2806 -0.4705
12900W        W32434  12.245   0.894  15.386  0.0005 -0.0960  0.1087
12901W        W32435   2.439  11.722   3.924  0.0916  0.2930 -0.1451
12902W        W32436  17.108  13.832  14.806 -0.1403 -0.2067 -0.0499
12903W        W32437   5.330   3.087  16.139 -0.1524 -0.0924 -0.0405
12904W        W32438   2.730  10.863  12.908  0.0506 -0.0744 -0.1953
12905W        W32439  15.323  10.219  17.289 -0.1308  0.0432 -0.4419
12906W        W32440  10.712  16.708  17.021  0.2075  0.0006 -0.1450
12907W        W32441  11.600   2.669   3.487  0.0110 -0.0490 -0.1546
12908W        W32442  11.110   6.888   3.183  0.2784 -0.3908  0.0560
12909W        W32443  13.392  14.209   1.683  0.3147 -0.3173  0.0050
12910W        W32444   0.870   6.663  14.890 -0.0269 -0.0936  0.1328
12911W        W32445   8.848  16.503   2.720 -0.0227  0.1531  0.2540
12912W        W32446   4.372   2.171  14.990  0.1114 -0.0829  0.0223
12913W        W32447   4.738   7.459  13.486 -0.2527 -0.1183 -0.2228
12914W        W32448   1.650   2.080   0.943 -0.1336  0.0122 -0.3015
12915W        W32449   5.489   2.467   2.120  0.0393 -0.2331  0.0438
12916W        W32450  14.415   9.266  13.156  0.0076 -0.1733 -0.0580
12917W        W32451   6.161  12.919  16.950 -0.0485 -0.2503 -0.0922
12918W        W32452   6.233   5.603  15.370 -0.3051 -0.0681 -0.0337
12919W        W32453   7.998   5.854  17.157  0.0594 -0.0502 -0.0284
12920W        W32454   1.092   4.125  17.199  0.0310  0.0621  0.1292
12921W        W32455   1.978   8.556  13.782  0.1506  0.0432  0.0645
12922W        W32456   0.964  11.139  13.974 -0.3816 -0.1228  0.2315
12923W        W32457   9.627  15.299  16.903 -0.0326 -0.1897 -0.0580
12924W        W32458  14.092   2.136   4.643 -0.2927  0.1814 -0.2195
12925W        W32459  14.943  10.230  15.304  0.1879 -0.0418  0.1489
12926W        W32460   7.605  16.816   3.397 -0.4516  0.0669 -0.1230
12927W        W32461   7.534   0.137   4.776  0.3745  0.2471 -0.0848
12928W        W32462  14.985  10.304   1.442 -0.1270  0.0224 -0.0312
12929W        W32463  12.985   5.859  14.823  0.0118  0.1654 -0.2305
12930W        W32464  14.743   4.586   4.806 -0.0792 -0.0394 -0.0869
12931W        W32465  11.618   8.964   3.406 -0.1850  0.3226  0.0960
12932W        W32466   3.263   7.018  13.996 -0.1259  0.3573  0.1223
12933W        W32467   9.478   1.159   0.701 -0.0911 -0.0642  0.0965
12934W        W32468  16.425  17.355   0.344  0.1393  0.0909 -0.1421
12935W        W32469  14.796  11.983  13.443 -0.0867 -0.0767 -0.3701
12936W        W32470  17.096   2.369   1.648 -0.0741 -0.0918 -0.1819
12937W        W32471   9.019  16.692   2.181 -0.0441 -0.0376  0.0942
12938W        W32472  16.227   3.902   3.576  0.0252 -0.1599 -0.1720
12939W        W32473   2.933  16.139   4.681 -0.0945 -0.3975  0.0276
12940W        W32474   1.974   0.788   5.021  0.2871 -0.0949 -0.0075
12941W        W32475  16.839   7.219   5.300  0.0139  0.0284 -0.1264
12942W        W32476  16.208  16.163  13.224 -0.0664  0.0975  0.1840
12943W        W32477  16.868   0.464  15.767 -0.0265 -0.0802 -0.0225
12944W        W32478   9.873  13.530   1.725  0.1931  0.2728  0.1094
12945W        W32479  11.991   2.824   4.593 -0.2191  0.2097  0.2428
12946W        W32480  17.392   8.081  16.375  0.1000 -0.0974  0.0016
12947W        W32481  14.426   3.632  14.189 -0.0958 -0.0594  0.0782
12948W        W32482   2.299  10.462   1.338 -0.1589 -0.0013 -0.0485
12949W        W32483  14.654  16.908   5.016  0.0503  0.6308  0.1288
12950W        W32484  16.017   5.819  17.001  0.0087 -0.2927 -0.0085
12951W        W32485   2.958   1.544   0.880 -0.1553 -0.1278 -0.0722
12952W        W32486  12.212  16.355  16.303 -0.0853 -0.1315  0.0121
12953W        W32487   3.035  15.679   0.885  0.2310  0.3658  0.0612
12954W        W32488  14.726   5.977   4.696  0.1319  0.1645  0.0836
12955W        W32489   9.299   4.743  12.317 -0.0102  0.1435  0.1218
12956W        W32490   2.650   2.641  12.295 -0.2109  0.1102 -0.0160
12957W        W32491  10.185   3.347   1.314 -0.1031 -0.1373  0.2250
12958W        W32492  14.691   3.740  13.222 -0.0161 -0.1000  0.1711
12959W        W32493   4.562   6.951   0.435  0.1927  0.0618  0.1268
12960W        W32494   0.114   7.070  15.898 -0.2558 -0.1197  0.2227
12961W        W32495   5.883   1.572   1.143 -0.1173 -0.0802 -0.1133
12962W        W32496   8.162   9.866  15.495  0.0408 -0.1691 -0.0344
12963W        W32497  16.477   1.877  12.882 -0.0431 -0.2113  0.1484
12964W        W32498   2.522   6.347  12.934  0.0395  0.0965 -0.1315
12965W        W32499   1.726   5.825  14.240  0.1099 -0.0048 -0.0557
12966W        W32500   5.282   1.692  13.387  0.0749 -0.1384  0.1072
12967W        W32501  11.953  12.437  12.090 -0.1793  0.1687 -0.1524
12968W        W32502   6.645   9.688  15.455  0.0772  0.2206  0.0727
12969W        W32503  12.379   6.969  16.019  0.0372  0.0352 -0.2100
12970W        W32504  14.653   3.301  14.528  0.2756  0.0602  0.0216
12971W        W32505   1.573  11.969   3.446 -0.0878  0.2002 -0.0744
12972W        W32506  17.214  12.240  12.397  0.1397  0.0598  0.0728
12973W        W32507   8.584   2.420  12.972  0.0541 -0.1700  0.0802
12974W        W32508  12.113  17.300  16.260 -0.1893  0.1192  0.0477
12975W        W32509  11.879   1.178   3.839  0.1164 -0.1551  0.1022
12976W        W32510  10.664  15.679   0.957  0.3134 -0.2041 -0.2744
12977W        W32511  12.711   2.254  15.904  0.0597 -0.0637  0.3540
12978W        W32512  16.732   7.165  14.793 -0.0133 -0.1853 -0.0688
12979W        W32513  11.526   6.436  12.254 -0.0292  0.0985  0.0583
12980W        W32514   7.960   4.570  15.787 -0.0920  0.0206  0.3182
12981W        W32515   6.867  17.153  12.165  0.1264  0.0755 -0.1185
12982W        W32516  13.801  13.067  13.441  0.0201 -0.1116  0.1880
12983W        W32517  15.297  16.972  12.986  0.1469 -0.1574 -0.1089
12984W        W32518   7.744   6.959   1.890  0.0506  0.0756  0.0402
12985W        W32519  14.473  16.600  16.512 -0.0319 -0.2749 -0.4700
12986W        W32520   9.810   5.932   3.724  0.0257  0.1592 -0.0373
12987W        W32521   7.666  16.155   0.141 -0.0255 -0.0617  0.0327
12988W        W32522   0.175   1.214   3.929  0.1905  0.1084  0.3308
12989W        W32523   2.915   1.061   0.806 -0.0783 -0.1196  0.0424
12990W        W32524   8.105  10.176  13.716 -0.2563  0.3106  0.0385
12991W        W32525  12.238   2.145  17.094 -0.4394 -0.0168 -0.0526
12992W        W32526  13.470  16.437   4.107  0.1639  0.0184  0.5167
12993W        W32527   4.226  16.384  12.843 -0.0550  0.1749 -0.1949
12994W        W32528  11.525  12.003   0.940 -0.2648  0.1026  0.1277
12995W        W32529   1.352   6.834  14.892  0.0565  0.2436 -0.1153
12996W        W32530   5.414   6.750   3.047 -0.0357  0.1727  0.1542
12997W        W32531   7.509   7.515  15.757  0.0259  0.2428 -0.2156
12998W        W32532  12.641   5.714  16.233 -0.2864 -0.2870 -0.1535
12999W        W32533  11.973  13.338  17.163 -0.0790  0.1797  0.0414
13000W        W32534   2.240  14.865  14.523  0.1275  0.1149  0.2806
13001W        W32535  15.850   7.034  15.049  0.1458  0.1622  0.2857
13002W        W32536   7.565   3.683  14.638 -0.0674  0.1048  0.0015
13003W        W32537  11.201  15.807  15.852 -0.3396 -0.0286  0.0395
13004W        W32538   1.486  11.987   1.391  0.1128  0.1977  0.1730
13005W        W32539   6.772  15.598  13.945 -0.0331  0.1583 -0.2123
13006W        W32540   1.601   3.636  12.409 -0.4575 -0.0524 -0.2402
13007W        W32541  13.717   7.750  16.441  0.0693  0.1531 -0.0911
13008W        W32542   8.406  12.638  17.225 -0.5093 -0.3161  0.4965
13009W        W32543   3.153  13.103  15.808 -0.1986  0.0815  0.5083
13010W        W32544  12.184   6.409   1.001  0.0162 -0.3552  0.1155
13011W        W32545  12.231   5.636   4.445  0.2235  0.3175 -0.0004
13012W        W32546  15.886  11.011  13.429 -0.0279  0.0952 -0.0430
13013W        W32547   2.755  10.113  16.567 -0.2009  0.0338 -0.1057
13014W        W32548   5.486   0.184   2.822  0.1488  0.0570 -0.1404
13015W        W32549   5.402   6.898   0.603  0.1707  0.1900  0.1095
13016W        W32550  12.776   8.113   2.190 -0.1182  0.0461 -0.1323
13017W        W32551  11.422   6.881   4.935  0.2091 -0.0034 -0.1687
13018W        W32552   3.271   7.918  13.994 -0.1678 -0.2219  0.0521
13019W        W32553   4.895  14.559  12.414 -0.2275  0.0395 -0.0087
13020W        W32554  16.097  13.763   0.958  0.1725  0.2402  0.0009
13021W        W32555  15.980   0.627  15.089  0.0266  0.0116 -0.4041
13022W        W32556   9.415  15.226   1.148  0.3037  0.0138 -0.0209
13023W        W32557   2.636  16.013  14.347  0.0200 -0.2567  0.4167
13024W        W32558  13.318  11.991  14.057  0.2017  0.1278  0.0516
13025W        W32559   2.270   2.333  12.120 -0.0067  0.0081 -0.1377
13026W        W32560   3.701   0.406  16.428  0.0383  0.0661  0.0676
13027W        W32561   3.765   2.541   4.497 -0.1363 -0.2797  0.0236
13028W        W32562   8.916  10.801  13.638  0.1999 -0.0478 -0.2258
13029W        W32563  11.596  14.955  16.245  0.1670  0.1800 -0.1638
13030W        W32564   6.712  14.342  16.094  0.0729  0.1703 -0.0422
13031W        W32565   6.792   0.867   1.641  0.2917  0.1598 -0.3078
13032W        W32566  12.218   3.528  15.957 -0.1089 -0.2102  0.2234
13033W        W32567  10.883   2.190  14.803  0.1405  0.0809 -0.1287
13034W        W32568   4.467   4.443   0.613  0.2553  0.1653 -0.0347
13035W        W32569   7.870  16.231  14.176  0.0837  0.2570  0.2129
13036W        W32570  15.892   3.493   3.708 -0.0989  0.0239  0.0174
13037W        W32571   1.962   9.533   2.721  0.0075  0.2168  0.2198
13038W        W32572   6.464  14.598  15.188 -0.1889 -0.2631 -0.0196
13039W        W32573  11.065  10.658  16.124  0.0674  0.1340  0.0764
13040W        W32574  17.234   7.187   0.253 -0.1416 -0.0030  0.0134
13041W        W32575   0.867  10.465  16.578 -0.1014 -0.3232 -0.1587
13042W        W32576   8.683  17.465  13.961  0.1882 -0.1899  0.4486
13043W        W32577  16.288  10.285   0.975  0.0109 -0.1567  0.1274
13044W        W32578  11.409  11.653   3.601 -0.1901 -0.0712 -0.1117
13045W        W32579  15.593  11.735  12.794  0.2326 -0.1259 -0.1801
13046W        W32580   3.128   5.544   1.064 -0.1331 -0.2097 -0.2675
13047W        W32581   6.606  11.467  15.712 -0.1788  0.1682  0.1076
13048W        W32582  13.287  11.807   4.590  0.2298 -0.4526  0.1549
13049W        W32583  10.661  12.660  15.672 -0.0062  0.0624  0.0423
13050W        W32584   3.091  14.113   0.461 -0.3036  0.0431 -0.2321
13051W        W32585  11.763   7.322   4.432 -0.0321  0.0540  0.1330
13052W        W32586   4.785  14.637  15.368 -0.0093  0.1587  0.0555
13053W        W32587   5.203   3.358  12.783  0.2121 -0.0090  0.2938
13054W        W32588   8.380  13.326   2.416 -0.1280 -0.0737  0.1060
13055W        W32589  16.840  16.228   3.486  0.1794  0.2130 -0.0710
13056W        W32590  12.964  15.150  12.852  0.1635 -0.0206  0.0473
13057W        W32591  11.279   8.263  14.742  0.1106  0.1127 -0.0453
13058W        W32592  15.179   2.103  12.526 -0.1531 -0.1050  0.2173
13059W        W32593  11.222  16.978   0.530 -0.0140 -0.2137  0.1441
13060W        W32594   1.555   6.110   0.856  0.2566 -0.1631  0.3010
13061W        W32595  10.651   5.723   1.197 -0.0885  0.2014 -0.1369
13062W        W32596  11.103  15.121   4.378  0.4305  0.1600 -0.3534
13063W        W32597   1.524   2.518   0.631 -0.2503 -0.1506 -0.0374
13064W        W32598  11.474  10.224   4.529  0.1526  0.1716 -0.1007
13065W        W32599   3.720   1.466  14.787 -0.1425  0.0516  0.1235
13066W        W32600   0.158   6.369   0.491  0.2125 -0.0329 -0.0271
13067W        W32601  14.109  13.484   0.536 -0.1169  0.0631 -0.0865
13068W        W32602   1.255   0.579   3.916  0.0454  0.1441  0.1094
13069W        W32603   0.721  16.015  12.627 -0.1037 -0.1761  0.0981
13070W        W32604   0.009   9.241   3.120  0.0844 -0.0259  0.2761
13071W        W32605   6.877   1.293  13.282 -0.0158 -0.2792  0.0853
13072W        W32606  10.404   4.257  15.355  0.0461 -0.1105 -0.2195
13073W        W32607   4.279  13.185   0.652 -0.2159  0.2331 -0.2562
13074W        W32608  16.188   6.633   0.338 -0.0461 -0.4845  0.1129
13075W        W32609   9.695   1.113   3.058 -0.3706 -0.0892 -0.0845
13076W        W32610   9.515   6.709  16.761 -0.0420  0.0903 -0.2017
13077W        W32611  10.895  15.324   1.485 -0.1487 -0.3064 -0.1555
13078W        W32612  11.743   4.238   2.211  0.0779  0.1770 -0.2109
13079W        W32613   5.069  14.729   4.104 -0.1001 -0.0861 -0.1095
13080W        W32614   0.262   9.587  16.872  0.2307 -0.2304 -0.1474
13081W        W32615  10.402   7.614   3.540  0.0218 -0.1751  0.0692
13082W        W32616   6.118   6.806  15.469 -0.1568  0.1447 -0.0651
13083W        W32617  11.536   4.618  13.179 -0.1857 -0.2438  0.1552
13084W        W32618   8.091  16.837  16.658  0.1012  0.1753 -0.1029
13085W        W32619   4.536   2.389   1.841 -0.0615  0.0190 -0.1127
13086W        W32620   2.881  13.049   2.399 -0.1592  0.1586 -0.1427
13087W        W32621  16.689  12.954   0.515 -0.3885 -0.1280 -0.1811
13088W        W32622   5.592   6.426  16.415 -0.3010 -0.1592  0.1738
13089W        W32623   8.640   3.528  12.403 -0.0001 -0.2588 -0.0350
13090W        W32624   8.874  10.220  13.457  0.4503  0.2773 -0.0361
13091W        W32625   3.816  12.815   4.490  0.1825 -0.0409  0.2371
13092W        W32626  14.315   5.538  14.679 -0.2202  0.0764  0.0268
13093W        W32627   6.330   1.558   3.536  0.2210  0.2311 -0.0375
13094W        W32628  15.863  15.039   1.744 -0.2090  0.1161  0.1878
13095W        W32629  14.221   3.710  13.272 -0.1142  0.1267  0.0127
13096W        W32630   7.744  10.249   2.692 -0.2438  0.0133  0.0485
13097W        W32631   7.401   4.572   4.369  0.1575 -0.1623 -0.0573
13098W        W32632  13.300   3.365   3.054  0.1779 -0.0048 -0.2832
13099W        W32633   2.590   1.763   1.191  0.0732 -0.1380  0.2470
13100W        W32634   2.345   0.677  12.768 -0.4565  0.0286  0.2300
13101W        W32635   0.253   5.578   3.372 -0.2228  0.0549  0.0618
13102W        W32636  15.093  10.421  13.276 -0.0949  0.2277 -0.1106
13103W        W32637   5.416   4.080   0.929  0.3532  0.0390  0.1175
13104W        W32638   2.771  15.432  16.798 -0.0351 -0.1407  0.2694
13105W        W32639  12.949  10.052  16.862 -0.1088  0.1860  0.0190
13106W        W32640  12.781   7.840  13.110  0.0088  0.0292 -0.1434
13107W        W32641   3.712   7.764   3.505 -0.2472  0.2843 -0.0640
13108W        W32642   3.532  16.222   2.621  0.2127 -0.0415  0.1580
13109W        W32643   0.928   0.840  12.780 -0.1104 -0.2256 -0.1117
13110W        W32644   6.226  14.955  16.920 -0.1337  0.0547  0.0454
13111W        W32645   0.195   5.935   0.171 -0.2603  0.3506 -0.1917
13112W        W32646   8.750  13.849   2.860  0.1774 -0.2876 -0.0979
13113W        W32647   1.836  12.772   2.805 -0.0033 -0.2037  0.1402
13114W        W32648   0.960   7.733  12.658  0.1089  0.0712  0.1499
13115W        W32649   6.533  11.203   1.868 -0.1352  0.1373  0.0486
13116W        W32650   0.769  11.302   2.327  0.2542  0.1362 -0.2539
13117W        W32651  12.446   9.680   0.747  0.2570  0.1792 -0.2070
13118W        W32652   3.895  10.017   0.667 -0.2353 -0.1712  0.0320
13119W        W32653   3.602  16.956  13.263 -0.3632 -0.2691 -0.0515
13120W        W32654   3.215   4.198  14.616 -0.0835  0.3572  0.1669
13121W        W32655  13.420   1.170   0.611  0.1288  0.2235  0.0998
13122W        W32656   7.098  10.961   4.784 -0.1995 -0.3052 -0.0825
13123W        W32657   2.323   8.939   0.825  0.3356 -0.6170  0.1908
13124W        W32658   0.040   4.614  13.926  0.1889  0.0730 -0.1696
13125W        W32659   4.148   7.370   4.810  0.1469  0.0461 -0.1976
13126W        W32660   5.046  13.511   0.376  0.0248  0.1490  0.5879
13127W        W32661   1.461  16.433   3.822  0.1621  0.1224  0.0183
13128W        W32662   1.861   0.269   4.316  0.1952  0.1416  0.1475
13129W        W32663   0.039  11.009   5.071 -0.0834 -0.0670  0.2477
13130W        W32664   9.342  17.329   5.225  0.0502  0.0101 -0.0597
13131W        W32665   3.235  16.713  14.985 -0.0199  0.0872 -0.0445
13132W        W32666   6.235  16.671   1.067 -0.0070 -0.0880 -0.1433
13133W        W32667   2.725  10.648  15.200 -0.0598  0.0958  0.1054
13134W        W32668   2.210   0.748  10.569  0.2633 -0.4034  0.0186
13135W        W32669   4.491  10.898  16.316 -0.1021 -0.1481  0.1753
13136W        W32670  13.638   4.165   2.752 -0.1584 -0.0440  0.1506
13137W        W32671   5.676  14.053   3.399  0.0574 -0.1378  0.3820
13138W        W32672   1.825   6.428  15.941 -0.3630 -0.0093 -0.1335
13139W        W32673   1.749   1.040  16.353  0.0341  0.1620  0.0803
13140W        W32674  11.697  10.627   3.856  0.1644  0.2160  0.0875
13141W        W32675  12.946   8.737  14.177 -0.0746  0.0177 -0.1150
13142W        W32676   3.980   3.612  14.502  0.0774  0.2149  0.2178
13143W        W32677   7.724   1.315  15.682  0.0405 -0.1666  0.3258
13144W        W32678   2.844  13.563   5.121  0.2397  0.0669 -0.0888
13145W        W32679   3.721  13.559  16.621  0.0065 -0.2568  0.0742
13146W        W32680  14.231   6.143  12.231  0.1262 -0.2846  0.0853
13147W        W32681   0.840   1.448  12.818 -0.1819  0.0693  0.1570
13148W        W32682  11.953   6.449  12.591 -0.0300  0.0333  0.2390
13149W        W32683   5.814   2.966   0.399  0.3001  0.0440 -0.1585
13150W        W32684   1.675  12.955   4.382  0.1652 -0.0845 -0.0474
13151W        W32685  16.196   9.252   3.884  0.3082 -0.1368 -0.1205
13152W        W32686  12.372   5.019  15.122  0.1123 -0.0989 -0.0725
13153W        W32687   7.267  17.432   0.518 -0.0071 -0.0479 -0.0846
13154W        W32688  12.087  16.717   4.187 -0.0497 -0.2070 -0.0781
13155W        W32689   4.935   3.771  13.255 -0.1134  0.2404 -0.1252
13156W        W32690  16.096  15.969  12.800  0.0222 -0.1968  0.2150
13157W        W32691  10.777  12.037   4.826  0.0734 -0.0317 -0.0988
13158W        W32692   5.293   1.586   4.723  0.2450  0.1757 -0.0676
13159W        W32693   6.897  10.298  12.958 -0.0387  0.1785 -0.0026
13160W        W32694  14.283   3.705  15.455 -0.2308  0.0195  0.3529
13161W        W32695  15.753   8.568   3.362  0.0399 -0.0955 -0.1024
13162W        W32696  16.304  13.814   2.173 -0.0986  0.0343 -0.2035
13163W        W32697   6.238  10.827   1.730  0.0424 -0.0589  0.1557
13164W        W32698   8.050  11.200  13.649  0.0168 -0.2068  0.1831
13165W        W32699   9.831   5.045   0.654  0.0302  0.1137 -0.1494
13166W        W32700   9.772  17.237   1.338 -0.2655  0.0230 -0.1357
13167W        W32701  13.494   9.212   1.425 -0.2111 -0.2397  0.1074
13168W        W32702   6.836   8.907   0.138 -0.2103  0.1285  0.0276
13169W        W32703   0.399   5.976   2.522  0.0470 -0.0072 -0.0209
13170W        W32704   9.127   1.026   4.676  0.3814  0.0401  0.4659
13171W        W32705  17.019   8.333  15.660  0.1830 -0.1376  0.3899
13172W        W32706   0.166   3.023   4.142  0.0653 -0.0002 -0.1474
13173W        W32707  14.139   1.625  13.898  0.1448 -0.0333 -0.1694
13174W        W32708   6.613   6.182  14.868 -0.1751 -0.0090 -0.1884
13175W        W32709  12.788   1.330  15.903 -0.0994  0.0607  0.0150
13176W        W32710   5.193   8.209   3.914  0.0173 -0.0124  0.2058
13177W        W32711   1.948  11.804   0.400 -0.0329 -0.3978 -0.0577
13178W        W32712  13.980  15.547  15.479 -0.1878 -0.1966 -0.0048
13179W        W32713  13.361  13.403   1.884  0.0648 -0.1107 -0.0287
13180W        W32714   7.878   5.191  12.671  0.2570 -0.0713 -0.0245
13181W        W32715   8.798  13.043  13.143  0.1513 -0.0984 -0.0617
13182W        W32716  16.229   2.487  16.557  0.1051 -0.1394 -0.2649
13183W        W32717   2.580  11.741   0.048 -0.2695 -0.3710  0.1750
13184W        W32718   8.007  16.515   1.692 -0.0297 -0.0389  0.0687
13185W        W32719   5.112   1.801   1.600 -0.0928  0.0468 -0.1440
13186W        W32720   6.881  10.292   1.522  0.2418  0.3515 -0.2310
13187W        W32721   1.211   6.986  12.318 -0.1283  0.0979  0.0224
13188W        W32722   1.576   3.675   4.616 -0.0993  0.2607 -0.1888
13189W        W32723  15.879  13.421  13.312  0.0080 -0.0391  0.0858
13190W        W32724   1.237   3.731  16.972 -0.0642 -0.0125  0.1584
13191W        W32725  14.739  16.538  15.451  0.0763 -0.3863 -0.3068
13192W        W32726   0.347   5.126  12.680  0.0341 -0.3817 -0.1561
13193W        W32727  15.013  13.820   0.266 -0.0412  0.1435  0.2138
13194W        W32728   1.644   8.241  15.573  0.1935  0.0165 -0.0077
13195W        W32729   0.079  12.167  14.782 -0.0031  0.4111 -0.2586
13196W        W32730  17.438  10.792  15.416 -0.1162  0.1570 -0.0272
13197W        W32731  11.927  10.818  13.207 -0.3464 -0.0258 -0.0367
13198W        W32732   4.437  16.614   0.898  0.2286 -0.0266 -0.1417
13199W        W32733   8.626   0.914   4.598 -0.0566  0.0807  0.0416
13200W        W32734   5.320  16.729   4.650 -0.0078 -0.3450 -0.2794
13201W        W32735  15.098  14.215   1.497  0.1293 -0.0390  0.0545
13202W        W32736   1.985   0.445  13.094 -0.2265  0.1477  0.1408
13203W        W32737   4.384  12.234  12.999 -0.1605 -0.2530 -0.0258
13204W        W32738   8.798  15.690  12.427 -0.0551 -0.1087 -0.0446
13205W        W32739   3.604   2.204  12.508 -0.0103  0.1595  0.4302
13206W        W32740  17.415  10.390   4.390  0.0245 -0.0581  0.0622
13207W        W32741   5.306   7.803   3.683  0.0654  0.0055  0.0921
13208W        W32742   6.794  10.595   1.102  0.0870 -0.3012  0.2297
13209W        W32743  13.796  12.506  15.695  0.2546 -0.1308  0.1103
13210W        W32744  16.699   4.880   3.685 -0.0662 -0.2860  0.1194
13211W        W32745  12.487   0.237  14.965  0.2242 -0.0309  0.2923
13212W        W32746   8.033   5.550  14.442 -0.0384  0.3093  0.0016
13213W        W32747  11.940   3.760   4.888 -0.0288  0.0986  0.1172
13214W        W32748  15.981   2.382  12.868 -0.0594 -0.5025  0.0380
13215W        W32749   9.121   2.533  13.880  0.0704  0.1714 -0.1769
13216W        W32750   9.622  16.002  14.508  0.2055  0.0270  0.1475
13217W        W32751   9.270   2.176  15.603 -0.2744  0.1412 -0.0804
13218W        W32752  10.606   0.234   2.458  0.1818  0.0293  0.1432
13219W        W32753   5.805  15.087   3.520  0.0186  0.2936 -0.1898
13220W        W32754  15.430  11.286   4.978  0.0344  0.1478 -0.4079
13221W        W32755   4.215   0.171   0.080  0.0959  0.1129  0.1067
13222W        W32756   1.618  11.585  14.196 -0.0419 -0.1874 -0.0960
13223W        W32757  12.739   5.772   3.883  0.1738  0.2221  0.0644
13224W        W32758  13.036  10.620   2.021 -0.1987 -0.1420 -0.1221
13225W        W32759   3.431   4.916   4.169 -0.2511 -0.2332  0.0318
13226W        W32760  14.431   5.336   1.621 -0.0067  0.0145 -0.1592
13227W        W32761  16.991  11.799  13.035  0.3605 -0.2090 -0.0447
13228W        W32762   1.566   8.195  17.220 -0.1347  0.0695  0.0071
13229W        W32763  13.172   8.320   0.839  0.0625 -0.3325 -0.1090
13230W        W32764   8.930   0.508   4.651  0.1749 -0.1544 -0.3003
13231W        W32765   6.818   9.632   0.880 -0.0493 -0.4229 -0.0922
13232W        W32766   7.549   4.679   0.893 -0.2035 -0.0931  0.1339
13233W        W32767   8.468  13.717   1.330  0.1659  0.0544 -0.1329
13234W        W32768  15.611  14.484   4.591 -0.0861 -0.0290 -0.3005
13235W        W32769  14.326   9.925  15.920  0.0656 -0.0550 -0.1175
13236W        W32770   6.364   2.452  16.995 -0.1945 -0.3919 -0.1557
13237W        W32771   3.427   8.695  14.556 -0.1904 -0.0435  0.1195
13238W        W32772   5.366   8.830  12.765 -0.1901 -0.0553 -0.0210
13239W        W32773  15.413   5.141  12.482  0.0210 -0.0039  0.1251
13240W        W32774  14.823   2.605  13.657 -0.0343 -0.0052 -0.1484
13241W        W32775   2.068   8.930  16.957  0.1602 -0.3147 -0.1321
13242W        W32776   4.134   7.375  12.155  0.2603  0.2014 -0.0938
13243W        W32777   9.414   9.288   3.069 -0.0059  0.0586  0.1448
13244W        W32778  11.240   1.320  15.110 -0.2820 -0.3256 -0.0201
13245W        W32779  16.620  16.196  16.559  0.1035 -0.0884 -0.0355
13246W        W32780  10.290   7.609   0.919  0.4257 -0.2036  0.3326
13247W        W32781  16.087   8.975   3.430 -0.2202 -0.0281  0.1247
13248W        W32782   8.616   7.490   2.742  0.2735  0.1755 -0.1590
13249W        W32783   6.054  13.760  14.057 -0.2226 -0.2699  0.1175
13250W        W32784  14.818   2.141   0.069  0.2161  0.0436  0.1750
13251W        W32785   3.468   4.708  17.055 -0.4604 -0.1200  0.1414
13252W        W32786   5.993   6.600   1.861  0.0147 -0.0855  0.2058
13253W        W32787   0.846   6.677   1.011  0.0891  0.2695  0.2243
13254W        W32788   0.572  13.453   1.852 -0.0565  0.0441 -0.0885
13255W        W32789   6.118  11.153  12.837  0.0021  0.1299 -0.1792
13256W        W32790   9.524   9.511  13.767 -0.1768  0.1164  0.2078
13257W        W32791  16.758  13.493   2.368  0.0207  0.1893  0.0877
13258W        W32792   4.061   5.037   4.654  0.1866 -0.1876 -0.2875
13259W        W32793  10.873  13.468  12.457 -0.0565 -0.1592  0.2033
13260W        W32794   9.336  13.247  14.209  0.0951  0.0650 -0.1902
13261W        W32795  10.447   2.508  16.123  0.0756  0.0876 -0.0963
13262W        W32796  11.178  17.156  13.950 -0.0088  0.0380 -0.0860
13263W        W32797  12.345   2.161   0.242  0.0151 -0.2987 -0.4165
13264W        W32798   4.882  15.682  12.920 -0.0112 -0.0110  0.1826
13265W        W32799   3.909   0.716   4.879 -0.1280 -0.0551 -0.1802
13266W        W32800   0.755  14.740  15.956  0.3462  0.2016  0.1208
13267W        W32801   5.762  10.454  15.437  0.0881 -0.3208  0.0496
13268W        W32802  16.429  11.062  15.180 -0.1399 -0.1926  0.0310
13269W        W32803  14.348  12.125  13.732 -0.2798  0.0003 -0.0237
13270W        W32804   5.034  13.698   2.814  0.0701 -0.1588  0.0601
13271W        W32805  17.059   6.167  14.932  0.0108 -0.1633  0.1982
13272W        W32806   5.431   2.352  16.757 -0.0856  0.0635 -0.0593
13273W        W32807  12.289   3.055   1.908  0.0882  0.1337 -0.0245
13274W        W32808   7.400  14.836   3.596 -0.0929  0.0060  0.0606
13275W        W32809   5.989  11.509   0.126 -0.0080 -0.2601  0.0680
13276W        W32810  13.077   3.397  14.427 -0.0199 -0.1118 -0.0140
13277W        W32811  11.212   1.870   3.152 -0.1993 -0.0520  0.0511
13278W        W32812  11.887   1.297  12.907  0.0476  0.2074 -0.0848
13279W        W32813   9.251  13.079  12.923 -0.1614  0.0307  0.2421
13280W        W32814  15.260   0.657   0.672  0.0306 -0.0016  0.0707
13281W        W32815  16.790   5.426   4.031  0.3224 -0.0778  0.0616
13282W        W32816   9.398   4.206  13.125  0.2611  0.1692 -0.0469
13283W        W32817  10.677  16.111   3.431 -0.0156  0.1448  0.2922
13284W        W32818   3.984  13.244   2.157  0.0218 -0.5041  0.0272
13285W        W32819   2.426   1.721  12.736 -0.0157  0.2470  0.1003
13286W        W32820  16.307   4.325   1.904 -0.0607 -0.1194 -0.0543
13287W        W32821  16.008  12.057  16.209 -0.1683 -0.1032  0.0873
13288W        W32822   7.981   7.386  13.322  0.0363 -0.1863  0.2232
13289W        W32823  12.547   4.187  17.029 -0.0412 -0.0448 -0.0341
13290W        W32824   3.457  11.592   4.837 -0.0369 -0.0765 -0.0721
13291W        W32825  12.548  12.126   2.288  0.2405  0.1386 -0.1656
13292W        W32826  16.855  11.731   3.193 -0.0118  0.1490  0.0431
13293W        W32827   3.456  10.806  14.156  0.0923 -0.3467  0.0096
13294W        W32828  12.368   0.177   1.982 -0.1479 -0.0796  0.1125
13295W        W32829   0.815  12.617  16.863 -0.0806  0.0527 -0.0344
13296W        W32830   6.413   6.094   4.814 -0.1730 -0.0022 -0.0331
13297W        W32831   9.295  17.159   3.538 -0.0891  0.2250 -0.0008
13298W        W32832   6.824  16.825   2.576  0.0641  0.1094 -0.0152
13299W        W32833   9.217   0.388   4.150 -0.2302 -0.0258 -0.0470
13300W        W32834   2.638   9.559  17.158 -0.3131  0.0601 -0.0937
13301W        W32835   4.814  14.035   0.202  0.1953 -0.1469  0.4127
13302W        W32836   7.871  11.151   0.060 -0.1379  0.1042 -0.1946
13303W        W32837   7.054   5.271   0.395 -0.0763 -0.0911 -0.0258
13304W        W32838  11.932   6.531  14.182  0.0575  0.1230  0.5088
13305W        W32839   6.912  16.475  16.458  0.1718 -0.0796  0.0565
13306W        W32840   9.507   0.825   2.703 -0.1317  0.2396 -0.1893
13307W        W32841   8.499  13.511   0.089 -0.0290  0.0268 -0.0839
13308W        W32842  14.481  13.084  12.951 -0.0152  0.0108  0.3790
13309W        W32843   8.345   5.098  12.439 -0.1371  0.1293  0.0574
13310W        W32844   3.166  11.580   1.030 -0.0170  0.2914 -0.1065
13311W        W32845  16.612   8.336   1.584  0.0049 -0.0387  0.0813
13312W        W32846  17.401   3.656  16.961  0.1136 -0.1364 -0.0623
13313W        W32847  16.754   9.879   3.931  0.4593 -0.2213 -0.0565
13314W        W32848   0.073  10.597   0.331 -0.2231 -0.0913 -0.1482
13315W        W32849  14.236   9.400   0.157 -0.4411 -0.1801 -0.1107
13316W        W32850   5.081  13.548  14.680  0.1719 -0.2752 -0.0397
13317W        W32851  17.361   9.755   3.177 -0.1354  0.3486 -0.0863
13318W        W32852  13.865   6.168   3.493 -0.1781 -0.2180 -0.4384
13319W        W32853   2.958   8.763  14.658 -0.0335 -0.2430  0.0159
13320W        W32854  16.935   5.561  13.543  0.0477  0.0511  0.1867
13321W        W32855   3.109   4.874  15.477  0.1123 -0.2389  0.3464
13322W        W32856   8.003   1.811   2.231  0.2258 -0.0529 -0.0464
13323W        W32857   9.666   2.571  14.884  0.2635 -0.0869  0.0892
13324W        W32858   3.304   3.615   1.523 -0.0163  0.0994 -0.0509
13325W        W32859   4.973   4.453  15.159  0.0880 -0.0216  0.0311
13326W        W32860  10.836  15.359  16.657  0.0368  0.3069 -0.0180
13327W        W32861  15.218   1.545   2.736 -0.1794 -0.0897  0.3986
13328W        W32862   8.716  15.620   4.680 -0.3404 -0.1133 -0.0925
13329W        W32863  14.078   7.395   4.530  0.1286 -0.1984  0.0030
13330W        W32864   0.880   7.638  14.747  0.3236 -0.0733  0.0205
13331W        W32865   2.087   4.559   3.170  0.3341 -0.3073  0.1203
13332W        W32866  10.669  12.169   3.670 -0.0980  0.1016 -0.0841
13333W        W32867  15.928  14.193   1.923  0.0379  0.2754  0.0745
13334W        W32868   8.242   2.896   3.769  0.2698  0.0835  0.0055
13335W        W32869  12.485   9.651   3.991  0.0772  0.0494 -0.2409
13336W        W32870   4.434  14.319  13.305  0.3558 -0.2445  0.1212
13337W        W32871  10.822   8.070  15.593  0.0534  0.2638  0.3398
13338W        W32872   4.868   5.117  13.212 -0.1077  0.3889 -0.1909
13339W        W32873  14.450   7.453   1.011 -0.3275  0.1086  0.2379
13340W        W32874  16.824   3.139  15.700  0.1018  0.0900  0.2755
13341W        W32875  12.851   5.720  15.779 -0.0268 -0.0076 -0.1419
13342W        W32876   1.107  17.203   1.440 -0.0693 -0.0272  0.0088
13343W        W32877   5.098  12.640  14.448 -0.1197  0.2489  0.1346
13344W        W32878  17.259  14.548  15.633 -0.0142  0.0377  0.0838
13345W        W32879  10.838   8.172  12.423 -0.0176 -0.2993 -0.0638
13346W        W32880   2.435  13.723   0.371  0.0681 -0.2634 -0.0231
13347W        W32881   9.944  13.387  15.494 -0.1588 -0.2213  0.1758
13348W        W32882   4.300   0.607  12.573 -0.1643 -0.0973  0.1279
13349W        W32883  12.778   5.077  12.715  0.0176 -0.0192  0.0253
13350W        W32884   8.744  14.822   3.293 -0.4238  0.0509  0.1416
13351W        W32885   1.579  15.684  13.609 -0.1064  0.1767 -0.1985
13352W        W32886  14.896   5.282   0.241 -0.2595 -0.0376  0.0385
13353W        W32887  16.173   0.222  14.367 -0.3560 -0.0314 -0.1803
13354W        W32888   2.002  11.283  11.231  0.0393 -0.0102  0.0456
13355W        W32889  10.937  10.426  17.238 -0.0801  0.2523 -0.0817
13356W        W32890   6.601   7.162  12.995  0.2592 -0.0615 -0.1937
13357W        W32891   6.645   3.833  16.301 -0.1099  0.1825 -0.1198
13358W        W32892   2.998   3.647   1.149  0.1963  0.0700  0.0440
13359W        W32893   9.272  15.550  12.392  0.1153  0.2638 -0.0297
13360W        W32894  11.276  10.254   0.291 -0.0874  0.1283  0.1089
13361W        W32895  14.962   5.409  12.883 -0.0427 -0.0269  0.0057
13362W        W32896   5.854   9.898   2.646  0.0477  0.2537  0.3935
13363W        W32897   2.386  10.321  11.822  0.3192 -0.0065  0.0304
13364W        W32898  15.291   5.716   1.777  0.2204  0.0272  0.0752
13365W        W32899   8.614  14.362   3.533 -0.2401  0.0765  0.0605
13366W        W32900  10.410   8.896  14.964 -0.1198 -0.0133 -0.2281
13367W        W32901   4.253   4.447   3.884  0.1559 -0.2364 -0.0567
13368W        W32902   6.256   4.188   3.655 -0.0627 -0.1123 -0.2030
13369W        W32903   5.522   7.121  14.047  0.1651 -0.0351 -0.0466
13370W        W32904  14.531   2.228   1.680 -0.2153 -0.0449 -0.2765
13371W        W32905   5.361  16.647  12.107  0.2273  0.2384 -0.2045
13372W        W32906   9.215  15.700   0.917  0.1803  0.0130  0.0546
13373W        W32907  13.738   4.106  14.292  0.1635 -0.2267 -0.1660
13374W        W32908   3.608   9.579   2.602  0.0930  0.1017  0.0970
13375W        W32909   4.484   3.433   0.184  0.0077  0.0515  0.1557
13376W        W32910   6.886   6.641   0.090 -0.0158  0.0841 -0.1414
13377W        W32911  15.946  14.782  12.318  0.2981 -0.0194 -0.0719
13378W        W32912  13.424  10.593  13.709 -0.0880  0.2431  0.1016
13379W        W32913  13.203  14.831   4.007 -0.3012 -0.1244 -0.1312
13380W        W32914   6.024  13.259   1.084 -0.3029  0.1548  0.2965
13381W        W32915   2.030   7.655   2.722 -0.1413  0.0280  0.0106
13382W        W32916   0.768   9.471  14.768  0.1208 -0.1632 -0.1699
13383W        W32917   2.028  15.310  14.255  0.2765 -0.1559 -0.1291
13384W        W32918  15.609  15.890  12.957  0.1417 -0.2073  0.1281
13385W        W32919  13.544   8.348  16.735  0.0055  0.0827  0.2666
13386W        W32920  16.412   2.913   4.582  0.0067  0.1463 -0.2097
13387W        W32921  12.111   2.421   1.042 -0.1592 -0.2137  0.3076
13388W        W32922   2.725  10.586   2.542  0.1028 -0.0615 -0.0372
13389W        W32923   9.949   4.906   3.809  0.0412  0.0177 -0.1609
13390W        W32924   9.941   1.788   5.013 -0.2849 -0.1474  0.1526
13391W        W32925   4.231  16.112  14.100 -0.0905  0.2193  0.1194
13392W        W32926   7.511   2.454  13.913 -0.0618  0.0618 -0.2582
13393W        W32927   4.352  12.307  15.574 -0.2227 -0.1804 -0.0762
13394W        W32928  12.741   3.611  13.530  0.0018  0.2829  0.2282
13395W        W32929   7.408   5.998  15.162 -0.0751 -0.0798 -0.0064
13396W        W32930  10.618  11.155   3.812 -0.1040  0.1061 -0.0549
13397W        W32931   2.666  11.374  16.591  0.0826  0.1685  0.3002
13398W        W32932   3.713   4.137   4.543 -0.2067 -0.0446 -0.0781
13399W        W32933  11.245   2.792  16.767 -0.1057  0.0537 -0.0798
13400W        W32934  12.297  12.264  13.146 -0.1759  0.2067  0.3380
13401W        W32935   9.523   0.463  14.168 -0.1282 -0.2029 -0.0330
13402W        W32936   2.657  14.294   2.637  0.0011  0.1080  0.2237
13403W        W32937  12.311  14.287   2.886  0.2193 -0.2703  0.0640
13404W        W32938  14.529   0.301   2.295 -0.1334  0.0734  0.2043
13405W        W32939  12.862   8.512   4.880 -0.0445 -0.1316  0.2223
13406W        W32940   6.809   8.909  14.938  0.2079  0.1855  0.1549
13407W        W32941  11.792   2.189   3.868  0.1466 -0.1154  0.0848
13408W        W32942   8.880   1.512  13.751  0.0559  0.0440  0.3895
13409W        W32943  11.415   6.685  16.191 -0.0198  0.1074  0.1034
13410W        W32944  12.972   0.739  17.296  0.1339  0.3578 -0.1864
13411W        W32945  13.789   3.692  15.370  0.0999 -0.3257  0.4441
13412W        W32946  14.676   7.789   1.353  0.0149  0.2426  0.1492
13413W        W32947  13.555  11.295  16.562 -0.2305 -0.1713 -0.1136
13414W        W32948   6.499  10.554   3.390 -0.5176 -0.0408  0.1672
13415W        W32949  12.988   8.377   3.910  0.1126  0.2534 -0.1114
13416W        W32950   2.660  12.349   4.843  0.2430 -0.1837 -0.1290
13417W        W32951  15.858   0.609  17.244 -0.0032  0.5831 -0.0756
13418W        W32952  14.015  13.807  12.852 -0.0903 -0.1621  0.1473
13419W        W32953  12.889  17.456  13.138 -0.1493  0.0778 -0.1519
13420W        W32954   3.731   1.782  13.713 -0.2464  0.1600 -0.1004
13421W        W32955   4.902  12.442  16.380  0.0226 -0.3851  0.1836
13422W        W32956   4.973   3.776  16.814  0.0496  0.1733  0.1530
13423W        W32957   2.868   7.593  15.886 -0.0386 -0.2845  0.0595
13424W        W32958   3.439  15.737   2.772  0.1846 -0.0453  0.0460
13425W        W32959  11.744  12.943   3.362 -0.2568 -0.5206  0.1797
13426W        W32960   5.542  13.224  16.879  0.2849  0.3850 -0.0586
13427W        W32961   9.040   5.763  13.613  0.0781 -0.0840 -0.2631
13428W        W32962   4.050   9.529  14.792 -0.3018 -0.3123 -0.1640
13429W        W32963  17.435   5.235  17.227 -0.0096  0.2694 -0.0419
13430W        W32964  10.831   8.563  15.391 -0.0929 -0.3285 -0.1962
13431W        W32965  10.112  14.162   2.120 -0.0038 -0.1601  0.0312
13432W        W32966   1.977  13.104  12.483  0.1787 -0.1721  0.2824
13433W        W32967  17.172  10.784   3.471  0.1641 -0.4883  0.1309
13434W        W32968   5.907   9.232   1.390  0.0032 -0.0300  0.0919
13435W        W32969   3.023  15.470  13.603 -0.4234  0.1278  0.0848
13436W        W32970   5.122  14.990  12.523  0.0395  0.0420  0.1981
13437W        W32971  10.093  10.948  14.012 -0.0983 -0.0917  0.0714
13438W        W32972   7.234   8.130  16.402  0.1089 -0.0322 -0.0480
13439W        W32973   4.420   3.979   4.139 -0.0241  0.0808  0.1126
13440W        W32974  15.692  10.564   2.012  0.1224 -0.1005  0.1013
13441W        W32975   2.663   9.203   0.302 -0.0533 -0.1375 -0.0955
13442W        W32976  13.452  14.923   0.531  0.0377 -0.1292 -0.2762
13443W        W32977  14.399   0.369  16.872  0.0895  0.1401  0.0690
13444W        W32978   7.304  13.834   3.616  0.2985 -0.1012 -0.1922
13445W        W32979   1.374   2.625  14.712 -0.0335 -0.3347  0.2326
13446W        W32980  16.286   6.454   1.258 -0.0438 -0.1033  0.2332
13447W        W32981   1.680  17.430   0.176  0.2143  0.2230  0.0719
13448W        W32982  13.755   1.324   1.064 -0.0849 -0.1091 -0.0271
13449W        W32983   5.685   9.101   2.954 -0.2072 -0.2806 -0.0455
13450W        W32984  14.769   0.548  15.764 -0.1843 -0.1643 -0.1965
13451W        W32985  17.201  12.674   1.692 -0.3812 -0.2231 -0.1039
13452W        W32986   8.527  15.123  16.943  0.3309  0.2257 -0.0450
13453W        W32987   5.635  11.817   4.915 -0.1118  0.0774 -0.2002
13454W        W32988  10.961   1.073  14.257  0.0153  0.0221  0.1807
13455W        W32989   4.479   5.219   3.924  0.2764  0.2365  0.0907
13456W        W32990  17.175  11.809  14.730  0.0966  0.1314 -0.3710
13457W        W32991  11.396   0.647   3.249  0.1062 -0.4065 -0.2358
13458W        W32992   4.341  12.135   3.249  0.1583  0.3782  0.1030
13459W        W32993  16.911  16.653  12.310 -0.0678  0.1663 -0.1104
13460W        W32994   6.198  13.980  15.852 -0.1221  0.1267 -0.5056
13461W        W32995   2.682   3.355   2.614  0.2672  0.0476  0.2792
13462W        W32996  11.213  10.252  16.408 -0.1783 -0.2698  0.1082
13463W        W32997   9.835  16.671  15.620 -0.0412  0.2891  0.0872
13464W        W32998   0.878  13.927  17.200 -0.1029  0.1624 -0.1931
13465W        W32999   1.442  16.072   4.159 -0.1648 -0.1149  0.0300
13466W        W33000   5.109  11.001   2.319  0.0190 -0.0919  0.2164
13467W        W33001  11.417   3.146   5.182  0.0654 -0.1159 -0.1936
13468W        W33002   7.229   3.267  13.983 -0.1254 -0.1034  0.0589
13469W        W33003   0.586   4.848  14.106  0.1371  0.0923 -0.0385
13470W        W33004   9.270   8.417   3.396  0.2710  0.1899  0.0069
13471W        W33005  11.910  16.984  14.593  0.0551 -0.1522  0.0496
13472W        W33006   8.485   8.956   4.072 -0.2092 -0.1748  0.1482
13473W        W33007   3.077   3.124   1.390 -0.0358 -0.0865 -0.0166
13474W        W33008  10.510   7.530   5.061  0.2219 -0.0247 -0.2098
13475W        W33009  10.105   6.323  13.290  0.0221 -0.2561  0.1798
13476W        W33010  14.594  13.938  15.289  0.2240  0.0420 -0.2917
13477W        W33011   8.694   3.286   3.653  0.0466  0.0069  0.1665
13478W        W33012   3.255  11.248  14.008  0.1517  0.1836  0.3083
13479W        W33013   0.738   3.188  15.322  0.0327 -0.1552 -0.0745
13480W        W33014  15.008  16.691   0.687  0.3275 -0.3456 -0.0674
13481W        W33015  12.672  14.860  16.081 -0.0850  0.1057 -0.0443
13482W        W33016   0.622   1.623  16.661  0.0870 -0.2800  0.3979
13483W        W33017  12.396   9.951   2.933 -0.1270  0.1051 -0.4264
13484W        W33018  14.310   3.032   2.666 -0.3889  0.2501 -0.2691
13485W        W33019  16.280   0.327  17.121 -0.0580  0.1269  0.1181
13486W        W33020  11.365  12.813   0.938 -0.1082 -0.0126  0.0534
13487W        W33021   1.334   0.740  12.507 -0.1825  0.0053 -0.1497
13488W        W33022  10.121   7.886   4.882  0.1154 -0.2172 -0.0482
13489W        W33023  14.080  17.334   1.823  0.1493  0.0348  0.0836
13490W        W33024  13.658   1.181   3.752  0.2398 -0.0761  0.0308
13491W        W33025   8.786  15.197  12.252 -0.1971 -0.2948 -0.0594
13492W        W33026   6.800   7.488   1.506  0.0980 -0.2565 -0.0789
13493W        W33027  10.343  13.605  15.255 -0.0465 -0.1383 -0.0398
13494W        W33028  14.857  14.301  17.111 -0.0520  0.3337 -0.0870
13495W        W33029   9.880  14.978  17.229 -0.0988  0.0432  0.0506
13496W        W33030   0.651   7.128  13.095 -0.1396 -0.2179  0.3695
13497W        W33031  16.874   4.035   0.965 -0.0283 -0.2049  0.4060
13498W        W33032  15.027  11.914  16.749  0.1790  0.1284 -0.3414
13499W        W33033  10.625   6.607  14.020  0.1552  0.0746 -0.1682
13500W        W33034   9.704   3.103  17.213 -0.2314  0.0348 -0.0137
13501W        W33035  17.304   3.329   4.465  0.0716  0.0869 -0.2240
13502W        W33036   1.137   8.007  15.467 -0.4110  0.1757 -0.0344
13503W        W33037  12.376   2.039   1.589  0.0092  0.0039 -0.1890
13504W        W33038  10.397   5.220   0.347  0.1620 -0.0709 -0.1626
13505W        W33039   9.542   2.657  17.017 -0.2124 -0.0497 -0.3118
13506W        W33040  16.630   6.324   3.684 -0.1927 -0.3785 -0.2415
13507W        W33041   1.965  10.895  16.362 -0.2056  0.0763 -0.0426
13508W        W33042   4.616  11.029   2.498 -0.2660 -0.1150 -0.1192
13509W        W33043   0.607  14.178   4.688  0.1661  0.2437 -0.2575
13510W        W33044   4.193  12.768   2.492  0.0047 -0.2057  0.2861
13511W        W33045   7.832  10.158   1.271 -0.3054  0.0144 -0.0521
13512W        W33046  14.962   9.280  14.063  0.0466 -0.1292  0.2281
13513W        W33047   9.319  13.924  12.086 -0.0809 -0.1085  0.3065
13514W        W33048   8.726  14.138  16.623 -0.0384  0.1930 -0.2129
13515W        W33049   2.262   2.624  12.566  0.0337 -0.2245 -0.0925
13516W        W33050   2.663   0.560  11.981  0.0532 -0.1982  0.1643
13517W        W33051   8.046   4.260  16.304 -0.2207 -0.0585 -0.0427
13518W        W33052  11.319  14.101  15.083  0.1890 -0.1558  0.2160
13519W        W33053   7.164  13.125   1.410  0.1480  0.3112 -0.1766
13520W        W33054  14.498   9.467  16.082 -0.1267  0.2491  0.1976
13521W        W33055  14.533   5.572  17.310  0.1041  0.0375 -0.0087
13522W        W33056  13.846   5.451   1.749 -0.1486 -0.0885 -0.2196
13523W        W33057   3.096  11.257  16.838 -0.2009  0.0586 -0.0429
13524W        W33058   4.503   4.536  14.841  0.0830 -0.1252  0.0122
13525W        W33059  12.547  11.265   5.047 -0.1056  0.0592 -0.0230
13526W        W33060   7.236  11.791  14.032 -0.0467 -0.2222 -0.0846
13527W        W33061  14.038   6.013   3.945  0.1953  0.0319  0.0333
13528W        W33062   3.474   8.286   0.581  0.0253 -0.2722 -0.2179
13529W        W33063  13.217   9.951  11.997 -0.0715  0.0975 -0.0641
13530W        W33064   4.893  13.407   1.662  0.0553  0.1538 -0.2087
13531W        W33065   5.795   5.172   6.362  0.2216  0.2145  0.2019
13532W        W33066   7.730   9.214  12.974  0.2215  0.1463  0.0215
13533W        W33067  17.313   4.384  16.709  0.1461  0.0686  0.0597
13534W        W33068   9.620  12.058  16.797  0.2533 -0.2748 -0.0262
13535W        W33069  17.025   7.134  12.965 -0.0145  0.0667  0.0205
13536W        W33070   8.629   5.483   3.049  0.1017  0.0653  0.2087
13537W        W33071   2.736   0.739   3.069  0.1169  0.0219 -0.1082
13538W        W33072   2.384   1.051  14.689 -0.3210  0.3166  0.2430
13539W        W33073  13.150  14.722  16.107  0.0197 -0.2469 -0.0888
13540W        W33074  12.155  14.508  14.508 -0.5901 -0.2323  0.2834
13541W        W33075   2.448   6.348   4.130  0.1210 -0.0485 -0.1397
13542W        W33076  11.710  11.917  14.182 -0.1347  0.0074  0.2562
13543W        W33077  14.573   3.052  16.723 -0.0607 -0.1538  0.0088
13544W        W33078   8.466  11.756   2.926  0.0488  0.1120 -0.0051
13545W        W33079  16.175  13.812   4.760  0.0846  0.4003  0.1191
13546W        W33080   3.345   1.967  13.394  0.1059  0.0382  0.2338
13547W        W33081  12.433   8.952  13.702 -0.1140  0.0456  0.1819
13548W        W33082   8.546  14.347  16.135 -0.1644  0.1370 -0.0422
13549W        W33083  10.079   8.652  12.672  0.0808 -0.2125 -0.3090
13550W        W33084   4.329   5.395   3.457  0.1928 -0.0502 -0.0217
13551W        W33085  14.124   7.658   0.683  0.0190  0.0307 -0.0576
13552W        W33086   7.143  16.999  13.626 -0.1069 -0.3532 -0.1439
13553W        W33087  11.568  12.292   2.174 -0.2080 -0.0666  0.0087
13554W        W33088  15.439   5.989   3.333  0.0127  0.1836 -0.1965
13555W        W33089   5.634   4.817   3.553 -0.1452 -0.0557 -0.0573
13556W        W33090   4.502  10.694   0.877 -0.0619 -0.0616 -0.1754
13557W        W33091  14.255   2.242   0.882  0.3122  0.0525 -0.0034
13558W        W33092   1.601  15.865   0.412 -0.0584  0.1764  0.0798
13559W        W33093   2.230  16.168  12.437 -0.1181 -0.0844  0.2295
13560W        W33094   8.147  17.190   2.593 -0.2014  0.0583 -0.0648
13561W        W33095  12.050  10.268  14.749  0.0404 -0.1969 -0.0495
13562W        W33096   1.323   2.972  16.061  0.2536  0.1608  0.0136
13563W        W33097   3.460   0.522   4.645 -0.2390  0.0315  0.0105
13564W        W33098   2.814   9.132  15.064 -0.1549  0.1791  0.1357
13565W        W33099  15.913  14.178   2.414  0.1086  0.0480 -0.0975
13566W        W33100  10.719   7.666   2.059 -0.0365 -0.0210 -0.3451
13567W        W33101   2.360   0.934   2.708 -0.0629  0.0020  0.0557
13568W        W33102  14.889   6.419   1.037 -0.1209  0.0667 -0.0708
13569W        W33103   4.201  12.616  14.227 -0.0937 -0.0335 -0.0042
13570W        W33104   5.594   2.221   4.030 -0.1694  0.0272  0.0395
13571W        W33105  10.106  13.261  12.974 -0.0433 -0.0826 -0.1409
13572W        W33106   3.581   5.128   3.696  0.0684  0.4384 -0.0468
13573W        W33107   6.182   6.950   5.251 -0.1769 -0.0891  0.3800
13574W        W33108   1.622  11.968   2.874  0.0742 -0.1262  0.2239
13575W        W33109   7.687   2.524   1.015 -0.0923 -0.0031 -0.1472
13576W        W33110   1.136  15.295   3.908  0.0404 -0.0566  0.0631
13577W        W33111   8.682   4.932  16.337 -0.4457 -0.3200 -0.1261
13578W        W33112   9.749  13.912  16.887 -0.0109 -0.1169 -0.0162
13579W        W33113  12.069   8.681  17.007 -0.1874  0.2503 -0.0129
13580W        W33114  15.800  11.263  14.650 -0.3513 -0.0717  0.1547
13581W        W33115   3.335  12.542   4.391  0.4384  0.5523  0.2390
13582W        W33116   5.051  16.434  16.743 -0.1061  0.2551  0.0498
13583W        W33117  14.804   8.933  11.981 -0.0592  0.0990  0.0764
13584W        W33118   8.144   0.770   2.362 -0.1108  0.4086  0.0439
13585W        W33119  12.156  13.188   1.296 -0.1556  0.0856 -0.2587
13586W        W33120  10.182  13.518  17.132 -0.1427 -0.2007 -0.0285
13587W        W33121   7.672   8.861   5.705 -0.0966 -0.0012  0.1560
13588W        W33122   4.398  12.147  13.535 -0.1220  0.2231 -0.2321
13589W        W33123  10.951  11.799   1.758 -0.1585 -0.1821 -0.0100
13590W        W33124  16.772  17.010   1.842  0.1825 -0.2474  0.0677
13591W        W33125  12.832  15.682  14.580  0.0788 -0.0947 -0.2404
13592W        W33126  17.062  13.196   4.733  0.0237 -0.0097  0.2157
13593W        W33127  16.677   8.962   0.745 -0.0865  0.1364  0.0554
13594W        W33128  10.552   6.371   3.501 -0.1041  0.1216 -0.0193
13595W        W33129  14.520  11.670   3.633 -0.0994 -0.2719 -0.0054
13596W        W33130  12.584   4.280  13.564 -0.2462  0.0427 -0.2425
13597W        W33131  13.257  13.119   1.420  0.1502  0.4799 -0.2640
13598W        W33132   4.495  11.764   5.359 -0.1057  0.2697  0.3214
13599W        W33133  12.127   5.657  17.196 -0.2762 -0.1687 -0.0908
13600W        W33134   1.442   1.160  15.985  0.0389 -0.1245 -0.0782
13601W        W33135   0.427   4.144   2.702  0.0941  0.3060 -0.2399
13602W        W33136  11.227   0.311   1.654  0.2263 -0.2304 -0.2011
13603W        W33137   5.780   6.749   2.501  0.2475  0.0274  0.2170
13604W        W33138  16.833  14.265  12.769 -0.2811 -0.2201  0.2803
13605W        W33139   6.800  17.198  16.568  0.2898  0.2476  0.0582
13606W        W33140  13.307   1.084   2.657 -0.0967  0.1353 -0.1953
13607W        W33141  14.724   2.534   0.656 -0.0712 -0.0247  0.0103
13608W        W33142   5.469   9.042   4.923  0.0435  0.1655  0.1256
13609W        W33143  14.789  11.888   2.268 -0.0380 -0.0630  0.1630
13610W        W33144   9.130  10.152   4.420  0.0398 -0.3357  0.0082
13611W        W33145  12.251   8.503   1.150 -0.0258  0.0522 -0.0609
13612W        W33146  15.218   0.822   3.653  0.1952  0.1323  0.2815
13613W        W33147  11.367   3.416   3.031 -0.0150 -0.0653  0.1542
13614W        W33148  13.212   1.819   2.221 -0.0924 -0.1041  0.1561
13615W        W33149  13.173  12.468  15.544 -0.0163  0.1124  0.1921
13616W        W33150   6.352  16.188  15.123 -0.0848  0.0003  0.0448
13617W        W33151   1.940  14.068   4.334  0.0186  0.1472  0.0103
13618W        W33152   1.211   3.264  14.983  0.0207  0.4409 -0.0309
13619W        W33153  11.411  12.455  16.329  0.0963  0.0103  0.1649
13620W        W33154   4.030  15.214  15.696 -0.1536 -0.3441 -0.0674
13621W        W33155   3.682  13.297  14.407 -0.0060  0.0633  0.0141
13622W        W33156   6.865   5.092  12.809  0.0419 -0.0087 -0.3025
13623W        W33157   6.212   9.323  15.453  0.2330 -0.1857  0.0690
13624W        W33158   5.222   3.130   4.068  0.1523  0.0777 -0.5540
13625W        W33159  14.100   1.880  14.306  0.0195  0.1298 -0.0617
13626W        W33160  10.818  12.564   6.137  0.0481  0.0087 -0.3433
13627W        W33161   2.032  11.688   2.600 -0.2693 -0.0200 -0.1668
13628W        W33162   2.353   3.431  13.828  0.1239 -0.0959  0.0632
13629W        W33163   0.043   5.477   0.430 -0.0075  0.0389  0.3261
13630W        W33164  10.578   8.186   3.126  0.0907  0.1986 -0.0175
13631W        W33165   4.092   8.534  15.161  0.1505  0.3935 -0.4043
13632W        W33166   9.280   7.934   3.799  0.0388  0.1575  0.2261
13633W        W33167   4.669  16.671   0.020 -0.0366 -0.0200  0.2092
13634W        W33168   6.193  15.461   1.435 -0.1772  0.0406 -0.1822
13635W        W33169  11.984  13.378   2.196 -0.1211  0.2244  0.1339
13636W        W33170   4.770   9.684   3.288 -0.0329 -0.2597 -0.0993
13637W        W33171  15.393   2.714   4.691  0.0734  0.0887  0.0633
13638W        W33172   8.466  15.764  14.866 -0.2496  0.1381  0.0257
13639W        W33173   2.414   8.574  16.991 -0.1254 -0.0258 -0.2721
13640W        W33174   9.984   3.329   0.823  0.1335  0.1240  0.0835
13641W        W33175   9.261   0.069  15.169 -0.0176 -0.0587 -0.1892
13642W        W33176   8.303   1.246   3.135 -0.1560 -0.0030  0.2357
13643W        W33177  12.826   8.155   2.976 -0.2316 -0.1609 -0.1521
13644W        W33178   9.940   1.716  11.969 -0.0890  0.0886  0.1290
13645W        W33179  15.434   6.551  14.356 -0.1022 -0.0704  0.3057
13646W        W33180   0.576   9.021  14.950 -0.0770  0.2288  0.1693
13647W        W33181   9.014   4.574  13.183 -0.2329 -0.1802 -0.0651
13648W        W33182   4.749  14.024  15.399 -0.1239  0.3458  0.2020
13649W        W33183   5.319   8.473   1.040  0.2548 -0.2266  0.1863
13650W        W33184   4.998   2.193  14.719  0.2383  0.2974 -0.0304
13651W        W33185  10.087  15.992  13.376 -0.1382  0.2158  0.2079
13652W        W33186   2.704   3.068   3.928  0.2093 -0.0870  0.0537
13653W        W33187   4.027  16.030   2.033 -0.1895  0.1808 -0.0395
13654W        W33188   1.935   1.678   0.074  0.1414 -0.2286  0.0687
13655W        W33189  10.682   9.121   0.912  0.1326  0.4059 -0.2638
13656W        W33190   3.547   8.728   3.718  0.0900 -0.2440  0.0434
13657W        W33191  12.651   8.099   1.062  0.0745 -0.2042  0.0822
13658W        W33192  10.287   4.890  13.860  0.1094  0.1482 -0.4001
13659W        W33193   0.605  10.082   2.703 -0.0426  0.2325  0.2068
13660W        W33194   2.858   3.917   4.950  0.1125 -0.0255 -0.1161
13661W        W33195  10.995   0.897  15.284 -0.0454  0.2486  0.1687
13662W        W33196  10.753   5.869   2.122 -0.0055 -0.0487 -0.2968
13663W        W33197   5.500  13.932  13.706  0.1108  0.0994 -0.2755
13664W        W33198   7.251   1.353  15.663  0.2980 -0.1943 -0.2048
13665W        W33199   2.321   9.646   0.293  0.1040 -0.0767 -0.1012
13666W        W33200   6.580   4.244  16.660 -0.2505  0.4018 -0.1326
13667W        W33201   3.513   0.801   2.848 -0.3252 -0.0896 -0.3331
13668W        W33202  10.126  11.912  15.170 -0.2473 -0.1495 -0.2856
13669W        W33203  11.529  15.152   4.160 -0.3780  0.2174 -0.4014
13670W        W33204  10.283   2.608  14.795  0.2440 -0.2404 -0.3895
13671W        W33205  16.664  14.293   1.303  0.2073  0.0604 -0.1134
13672W        W33206   7.510   1.206   3.441  0.0244 -0.0513 -0.0456
13673W        W33207   8.789  16.361  15.850  0.0505 -0.0816  0.0023
13674W        W33208  10.786   3.047  11.499  0.1032  0.0258  0.1694
13675W        W33209   7.574   1.754  16.627  0.1328 -0.0453  0.2344
13676W        W33210  15.990  14.260  13.231  0.0176 -0.1153  0.1638
13677W        W33211  14.156   5.229   0.071  0.3259  0.1085 -0.0594
13678W        W33212  14.570  15.623  15.165 -0.0966  0.0821 -0.2133
13679W        W33213  16.322   9.106  16.603 -0.0404 -0.0570  0.0362
13680W        W33214  13.025  12.191  15.125 -0.0054  0.1806  0.1402
13681W        W33215  13.252   8.742   0.534  0.0052 -0.0716  0.0333
13682W        W33216   6.500  12.532  14.218 -0.0192  0.1176 -0.0665
13683W        W33217  13.024  14.751  16.599 -0.0175  0.0013 -0.2711
13684W        W33218   1.428  14.874  12.376  0.2080  0.0615  0.0590
13685W        W33219   6.861  11.796  13.711 -0.0992  0.0322 -0.2265
13686W        W33220   6.018   9.648  16.857  0.0491  0.1448  0.3239
13687W        W33221  13.016   2.716  15.237 -0.0002 -0.2814  0.1228
13688W        W33222   3.699   2.491  16.716 -0.1833 -0.0877  0.2461
13689W        W33223   7.729  15.312  12.972  0.1097 -0.1929  0.1204
13690W        W33224  15.982   0.095  13.282 -0.0598 -0.1966 -0.2372
13691W        W33225  13.313   0.498   3.445 -0.1301 -0.1733  0.0393
13692W        W33226   0.282   2.535  12.735 -0.0604  0.0940  0.2726
13693W        W33227  17.118   7.419  15.826  0.1572 -0.0976  0.4792
13694W        W33228  12.157   9.391  16.469  0.1739  0.0979  0.3550
13695W        W33229  14.630   0.487  14.162  0.5918  0.1350  0.0213
13696W        W33230  13.980   9.439  12.938 -0.0135 -0.0915 -0.2321
13697W        W33231   4.460   9.196  17.115 -0.1757 -0.2458  0.3306
13698W        W33232   0.776  13.848   0.385  0.0493  0.0836 -0.2666
13699W        W33233   3.683   9.755   3.043 -0.2792  0.2297 -0.0833
13700W        W33234   8.911   6.335   3.488 -0.0736  0.1675  0.0457
13701W        W33235  14.370  12.186   1.073 -0.2655 -0.1635  0.0248
13702W        W33236  16.581   2.376   1.591 -0.0662  0.0028 -0.0433
13703W        W33237   8.363   6.268   4.935 -0.1220  0.0133 -0.1843
13704W        W33238  14.385   8.499   3.693  0.1155  0.0194 -0.0220
13705W        W33239   0.894   5.604  14.105 -0.0463  0.0762 -0.3784
13706W        W33240   6.577   0.910   0.069  0.1362  0.2312 -0.0702
13707W        W33241   9.119   0.195   0.681  0.1601 -0.1613 -0.1300
13708W        W33242  16.377  10.870   3.068 -0.1105  0.0677 -0.0001
13709W        W33243   6.845   6.610  14.211 -0.0739 -0.1790  0.2194
13710W        W33244  10.329   5.078   0.774  0.0118  0.1745  0.1183
13711W        W33245   9.556   7.695  14.224 -0.2452  0.3918 -0.1231
13712W        W33246  13.969   2.919   3.404  0.0697 -0.0123  0.1849
13713W        W33247   8.500   9.011  16.413 -0.4795 -0.0816 -0.1883
13714W        W33248   6.301   4.949   2.410  0.0938 -0.1048  0.0368
13715W        W33249   7.414   0.257   3.353  0.3341  0.1469 -0.0525
13716W        W33250   8.815  16.902   3.508 -0.1870  0.0459  0.3080
13717W        W33251   4.017  11.473   0.932  0.1417  0.0748 -0.2416
13718W        W33252  10.179  14.522   4.658 -0.0886 -0.1343 -0.1136
13719W        W33253   7.072   1.805   2.405  0.3682  0.3012 -0.1473
13720W        W33254  13.523  13.284  16.235 -0.2160  0.0579  0.1411
13721W        W33255   2.043  16.434  13.491  0.3119 -0.1029  0.0771
13722W        W33256  12.920   1.421   0.785 -0.2734  0.1953  0.0191
13723W        W33257  16.725  14.184  12.300  0.2210 -0.1219  0.1732
13724W        W33258  13.303   6.772   1.474 -0.5047 -0.0389 -0.0740
13725W        W33259   4.958  10.862   0.603 -0.2494  0.1222 -0.0586
13726W        W33260  17.227   5.308  16.754 -0.0733  0.0420  0.0708
13727W        W33261   7.387   1.286  16.482 -0.0458  0.0755  0.0644
13728W        W33262  17.406   6.237   3.988  0.0612  0.0749  0.2278
13729W        W33263   1.285   4.847   1.326  0.2221  0.1013 -0.0524
13730W        W33264   3.181  11.583   1.528  0.2956 -0.1749 -0.1488
13731W        W33265  15.938   5.786  11.992  0.1000 -0.1803  0.0030
13732W        W33266   7.545  16.481  14.970 -0.0604 -0.2045 -0.1034
13733W        W33267  15.010   4.379  13.786 -0.1467 -0.0945 -0.1460
13734W        W33268  16.412   1.552   3.438 -0.0128 -0.0565 -0.1588
13735W        W33269  13.434   4.710   2.624 -0.0033 -0.2953  0.0447
13736W        W33270   4.124   0.800   0.023  0.2282 -0.1090  0.1447
13737W        W33271  12.491  12.698  14.695  0.2299 -0.2024 -0.1102
13738W        W33272  17.431   3.770   1.940 -0.1953 -0.2921 -0.1151
13739W        W33273   5.716   3.966   0.493 -0.2070  0.0028 -0.2694
13740W        W33274  15.115  12.375   4.592 -0.0257 -0.2542  0.0813
13741W        W33275   5.422   6.568   0.977 -0.0209  0.0546  0.1905
13742W        W33276  16.069  12.047  12.792 -0.0758  0.3744 -0.0446
13743W        W33277   2.385   6.666   4.647 -0.1621 -0.1524  0.1257
13744W        W33278  10.321   1.127   3.508  0.1521  0.0321  0.1058
13745W        W33279  11.130   4.618  13.534  0.4566  0.1345 -0.2031
13746W        W33280   1.039   0.320  11.509  0.0374 -0.2370 -0.1355
13747W        W33281  16.753   9.669  13.251 -0.1459 -0.1554  0.2038
13748W        W33282   3.566  15.837   1.949 -0.2309  0.2172  0.0328
13749W        W33283  16.271   3.154   0.887  0.1321  0.1289  0.0739
13750W        W33284   0.428   8.637   2.023 -0.0664  0.0595  0.0792
13751W        W33285   6.060   9.375   2.830 -0.1671  0.1452 -0.0940
13752W        W33286  11.810  12.121   3.562 -0.0333  0.0691 -0.3941
13753W        W33287   2.258   3.914  16.211  0.0068  0.0301  0.0041
13754W        W33288   7.989  13.574   1.555  0.0507  0.1292  0.2559
13755W        W33289   8.432   0.568   4.971 -0.0568  0.1462  0.3208
13756W        W33290  14.664  15.925   3.028 -0.1366  0.1532 -0.0738
13757W        W33291   3.213  14.007   3.465 -0.0128  0.2431  0.2416
13758W        W33292   3.620  14.043  16.818  0.3829  0.0444 -0.4021
13759W        W33293   6.420   8.840   1.499  0.1482  0.3030  0.1395
13760W        W33294   3.990   1.792  14.493 -0.0947  0.1518 -0.0357
13761W        W33295   6.485  15.032   1.956 -0.5571 -0.3093 -0.1183
13762W        W33296   2.618  16.224  12.743 -0.1903 -0.0985 -0.0624
13763W        W33297   5.075  12.739   4.331 -0.0482  0.0297 -0.1073
13764W        W33298  16.939  13.615   0.805  0.0906 -0.0790  0.2968
13765W        W33299   6.258   1.975   3.213  0.1023 -0.0106 -0.1208
13766W        W33300   3.697  12.166   4.434 -0.2476  0.0210  0.3289
13767W        W33301   5.596  10.334   2.894  0.3388 -0.0889  0.1588
13768W        W33302  10.597   4.652  16.469  0.1424 -0.3120 -0.2058
13769W        W33303  11.509   6.580   0.869 -0.2742 -0.1337  0.3398
13770W        W33304  14.036  11.132  16.296  0.3127  0.2689 -0.0629
13771W        W33305  15.573  11.551  17.212 -0.0510  0.0397  0.0871
13772W        W33306  10.468   0.560   4.450 -0.1153 -0.1311  0.2820
13773W        W33307  15.318   1.254  14.790 -0.1255  0.0515  0.2905
13774W        W33308   6.691  13.271  13.236  0.1147 -0.1938 -0.3767
13775W        W33309   2.115  14.626  15.510  0.0242 -0.0100  0.0416
13776W        W33310  10.019   4.998   4.375 -0.0725  0.0824  0.2090
13777W        W33311  15.019  14.582  13.204  0.2662  0.0347  0.0615
13778W        W33312  11.819   0.070  13.179  0.0001 -0.0642 -0.1547
13779W        W33313  12.927  14.120   0.615  0.3462 -0.0008 -0.1385
13780W        W33314  14.207   9.365   2.642  0.0309 -0.0427 -0.2025
13781W        W33315  17.009  15.797  15.494 -0.4177 -0.2479 -0.3963
13782W        W33316   3.312  16.100  13.054 -0.0038  0.2713 -0.0480
13783W        W33317  13.670   3.301  16.603  0.2585 -0.3102 -0.2291
13784W        W33318  14.540   6.036  17.082  0.2675  0.1228  0.3150
13785W        W33319   1.754  13.910   3.857 -0.3193  0.0689 -0.1631
13786W        W33320  17.223   3.258  13.847  0.0951  0.1346 -0.0600
13787W        W33321  12.114   0.290  13.502  0.0277 -0.2992 -0.1556
13788W        W33322  17.011   0.256   1.474 -0.2394  0.1035 -0.3304
13789W        W33323   1.433   7.218  16.513 -0.2756 -0.1864 -0.2601
13790W        W33324  14.186   5.932   1.120 -0.1175 -0.0212 -0.0040
13791W        W33325   7.147   6.020   4.716 -0.1796  0.0343  0.2305
13792W        W33326   6.634  17.361  14.754 -0.0093  0.0443 -0.0063
13793W        W33327   9.769   4.028   0.059 -0.1759  0.2709  0.0498
13794W        W33328   9.750   5.822  15.702 -0.0333  0.1812 -0.0788
13795W        W33329  15.084   9.854   0.264  0.2369  0.1003 -0.2747
13796W        W33330   3.914   0.799  16.193  0.2618 -0.0788 -0.0424
13797W        W33331  16.868  11.822  12.518 -0.0979 -0.1449 -0.0900
13798W        W33332  10.965   2.504  12.360  0.0701 -0.1702 -0.0191
13799W        W33333   8.150  13.844  14.923  0.3085  0.0358 -0.1915
13800W        W33334  14.481  16.563  13.920  0.0337 -0.0192  0.4544
13801W        W33335   1.875  15.470  15.285 -0.0071  0.0762  0.1461
13802W        W33336  17.247  10.291  13.865 -0.1317  0.1456  0.2056
13803W        W33337  15.202  17.444  14.825  0.0150  0.0403  0.0539
13804W        W33338   2.315   8.892   4.882 -0.2097  0.1200  0.0942
13805W        W33339  10.150   5.353  15.410 -0.0365  0.2441 -0.1126
13806W        W33340   6.000  13.917  13.567  0.2008  0.2571  0.2186
13807W        W33341   0.636   9.687  12.560  0.0453  0.0787 -0.1136
13808W        W33342   3.067  10.350   2.868  0.0532 -0.2221 -0.2052
13809W        W33343  10.527   4.019   1.734 -0.1844  0.0689 -0.0069
13810W        W33344  15.361   3.282   4.434 -0.3565  0.3148 -0.2571
13811W        W33345  10.763   0.975  13.817 -0.1073  0.0302 -0.1734
13812W        W33346  14.939   5.145   4.099 -0.1737 -0.0142 -0.3192
13813W        W33347  11.455  10.671  16.530  0.1454 -0.1303  0.0819
13814W        W33348   3.780   0.012  16.805 -0.1308 -0.1146  0.0091
13815W        W33349   3.055  10.560  14.206  0.1535  0.1193  0.2610
13816W        W33350  15.789   3.170   3.341 -0.1691 -0.0615 -0.2801
13817W        W33351   7.099  12.318  17.008  0.1061  0.1473  0.0533
13818W        W33352   7.658   1.464   0.654 -0.0237 -0.3071 -0.2312
13819W        W33353   2.069   1.867   4.302 -0.1946 -0.0130 -0.0013
13820W        W33354   1.760   8.625  17.260  0.0547 -0.2063 -0.3151
13821W        W33355   4.521  11.108  13.720  0.1319 -0.0848  0.2764
13822W        W33356   5.411  13.680  17.200  0.1368  0.1394 -0.0716
13823W        W33357   4.314   7.669   0.824  0.1272 -0.2664  0.0822
13824W        W33358   3.234  16.441   3.358  0.0494  0.0062 -0.0834
13825W        W33359  11.432   0.877  14.472  0.1008 -0.0155  0.0860
13826W        W33360  12.569   9.633   1.227 -0.2513  0.4084  0.1005
13827W        W33361   3.196  12.518  12.539 -0.0759 -0.2397  0.1164
13828W        W33362   2.448   9.817   4.342 -0.0919  0.3268 -0.1025
13829W        W33363   6.833  14.242  15.085 -0.1791 -0.2307 -0.1036
13830W        W33364   5.927   8.002   0.323 -0.1572 -0.0319  0.0724
13831W        W33365   7.978   8.692  13.021 -0.1147  0.1877  0.1781
13832W        W33366  10.777   6.867  16.237 -0.2028 -0.1067 -0.1261
13833W        W33367  14.097   2.007   1.774 -0.0645  0.0468 -0.3107
13834W        W33368  12.111  12.510   5.072 -0.0822 -0.4181  0.1531
13835W        W33369   7.211   1.579   1.909  0.0188  0.0456  0.2219
13836W        W33370   4.743  12.969  12.419 -0.2436 -0.2535  0.1043
13837W        W33371   1.568  10.036   1.260 -0.0337 -0.1428  0.0977
13838W        W33372   9.259   7.695  13.473 -0.0887  0.0622  0.2163
13839W        W33373  16.129  11.028  15.575 -0.1787  0.2225  0.0531
13840W        W33374   5.884   0.084   3.261  0.2460  0.2063 -0.0866
13841W        W33375  14.496   1.494   3.505 -0.2672 -0.3037  0.6739
13842W        W33376   0.207   4.837  15.379  0.0354  0.1738  0.2259
13843W        W33377  15.357  16.861   2.201  0.0304 -0.0381  0.0271
13844W        W33378   0.887  17.367  13.973  0.0279 -0.0580  0.0558
13845W        W33379   5.311   5.751  16.992 -0.0436 -0.0339  0.0125
13846W        W33380   1.603  13.427  15.532  0.1458  0.1191 -0.4380
13847W        W33381  10.304  14.182  14.021 -0.0083 -0.2482  0.1431
13848W        W33382  14.394   8.481   0.362  0.0878  0.1361 -0.2313
13849W        W33383   5.712  15.133   4.014 -0.3445  0.1126  0.0481
13850W        W33384  17.455   9.153   3.995 -0.0033 -0.0356  0.1256
13851W        W33385   7.734   3.228   4.665  0.1741  0.4867  0.0393
13852W        W33386  12.257  10.566  12.944 -0.1346 -0.0076  0.0223
13853W        W33387  11.224   7.940   4.219 -0.0614  0.2092 -0.0081
13854W        W33388   3.434  12.248  16.844 -0.2185 -0.2150  0.0687
13855W        W33389   4.086  16.965  16.731 -0.0371 -0.1567 -0.1671
13856W        W33390   9.307  16.235  13.422  0.0642 -0.1560  0.0852
13857W        W33391   0.466   4.767   3.507 -0.1464 -0.2462 -0.1263
13858W        W33392   3.115  10.847  13.736  0.2310  0.2733 -0.0139
13859W        W33393   0.536   3.784   3.785 -0.0188 -0.1205 -0.4112
13860W        W33394  13.363  11.118   5.219  0.0580  0.0756 -0.0940
13861W        W33395   0.918  13.693  12.690 -0.1136  0.0235  0.2100
13862W        W33396   9.502   8.258  13.283  0.0283 -0.2259  0.1294
13863W        W33397  10.045   9.126   4.411  0.0271 -0.2569  0.2090
13864W        W33398   0.440   6.657   2.833  0.2632  0.2702  0.0782
13865W        W33399  11.791   2.452  12.782  0.1753 -0.0487 -0.2786
13866W        W33400  11.263  15.771   2.159  0.1343 -0.0590 -0.0997
13867W        W33401  11.953   4.725   5.003  0.0934 -0.1411  0.2486
13868W        W33402  14.811   3.799  14.580  0.0121 -0.1701  0.3933
13869W        W33403   5.836   5.113  12.340  0.0609  0.3892  0.1746
13870W        W33404   5.230   7.282   2.250  0.0404  0.2107 -0.2833
13871W        W33405  11.026  14.845  13.059 -0.1174  0.3838  0.0338
13872W        W33406   0.364  11.219  14.629  0.1408 -0.1179 -0.3765
13873W        W33407   5.200   7.766  15.188  0.0650 -0.0518  0.0641
13874W        W33408   9.751  15.134  14.781  0.0670  0.0364  0.2157
13875W        W33409   2.809   5.554  11.830 -0.1356  0.1676  0.2188
13876W        W33410  12.129  13.089   3.834 -0.1499  0.0682 -0.0967
13877W        W33411  16.527  10.271  13.327 -0.2853 -0.1262  0.3493
13878W        W33412   8.526   5.090  15.887  0.1129  0.1143 -0.0624
13879W        W33413  13.934   8.986  16.610 -0.1946  0.0969  0.1066
13880W        W33414  10.393   3.445   1.814 -0.0705  0.0288 -0.1369
13881W        W33415   9.773  14.818  15.195 -0.3088 -0.1739 -0.1163
13882W        W33416   4.676  15.276   4.857  0.3666 -0.0046 -0.1776
13883W        W33417  11.190  15.119  13.861 -0.2102  0.1861 -0.1238
13884W        W33418   2.053   9.967   4.019  0.0069  0.1483  0.1087
13885W        W33419  12.983  17.208  16.165  0.1530  0.1351  0.0174
13886W        W33420   1.759   8.516  16.679  0.0823 -0.0531  0.2320
13887W        W33421  12.598   4.243  13.016 -0.0343  0.0485 -0.0247
13888W        W33422   3.848   9.911  15.750  0.3323  0.1770 -0.0198
13889W        W33423   7.769   7.195   2.602 -0.3657 -0.1612  0.5452
13890W        W33424   4.677  14.392   2.524 -0.1136 -0.3078 -0.1765
13891W        W33425  16.570   6.082   1.995 -0.1963  0.0521  0.1576
13892W        W33426   5.611   0.086  13.323  0.0814  0.3103 -0.0778
13893W        W33427   2.206  14.665  16.491  0.1587  0.1737 -0.0118
13894W        W33428  11.778   2.768  12.383  0.0025 -0.1378 -0.0294
13895W        W33429   2.401   1.701   0.389 -0.0554 -0.1490  0.1262
13896W        W33430   7.050   6.549   5.999  0.0408  0.0076 -0.1370
13897W        W33431   6.821   2.902  15.788 -0.0458 -0.0215 -0.0571
13898W        W33432   2.764   0.118   2.787  0.0389  0.0939 -0.1029
13899W        W33433  16.548  11.931   0.606 -0.1754  0.0263  0.1567
13900W        W33434   0.173  15.985  14.513  0.1226 -0.0071  0.0295
13901W        W33435   5.454   6.895  16.589 -0.0416  0.1534 -0.1408
13902W        W33436  14.076  10.123  14.228  0.0703  0.1743  0.0781
13903W        W33437   9.526   3.845  12.017  0.2931  0.0581 -0.1465
13904W        W33438  10.066   9.599   4.283  0.2674  0.0938 -0.0042
13905W        W33439   2.993  14.147  14.204  0.1064 -0.1468  0.0316
13906W        W33440  16.483  12.616  14.477 -0.0372 -0.3196  0.0809
13907W        W33441   1.338   5.324  15.233  0.0610  0.0838 -0.4686
13908W        W33442   2.701   2.073  13.973 -0.2182  0.1947 -0.2152
13909W        W33443  13.509  10.051   5.024 -0.1062 -0.1430  0.1222
13910W        W33444  12.079  11.129  12.328 -0.0229  0.0877  0.1551
13911W        W33445  16.668  15.287  13.677 -0.1369  0.0089 -0.0863
13912W        W33446   9.634  12.859   2.477 -0.3009 -0.0090  0.2680
13913W        W33447  10.933  11.581  13.945 -0.2137 -0.1461  0.1028
13914W        W33448  15.456  16.450   5.020 -0.0864  0.0006 -0.1486
13915W        W33449   6.710  10.103  16.855 -0.0802  0.0604 -0.2065
13916W        W33450  10.679  14.639   4.564 -0.1038 -0.1679  0.0313
13917W        W33451   8.980  17.370   1.139  0.1603 -0.1471 -0.1510
13918W        W33452   5.359  17.343  15.346 -0.0412 -0.0368 -0.1761
13919W        W33453   4.822   5.721  15.051 -0.0598 -0.0062 -0.0212
13920W        W33454  12.088  15.878   0.276 -0.0545 -0.1353 -0.1729
13921W        W33455  12.574  15.739   0.185 -0.1328 -0.1960 -0.2322
13922W        W33456  12.878  11.731  12.657  0.1339 -0.2294  0.1227
13923W        W33457  15.773   0.823   4.439 -0.1716 -0.2307  0.3459
13924W        W33458  10.445   1.269  14.548 -0.0911  0.0025 -0.0854
13925W        W33459   5.879  11.871   1.222 -0.2288  0.2253  0.1038
13926W        W33460   2.976   2.682   1.491  0.1927 -0.0494 -0.0891
13927W        W33461   0.538  13.457  16.121  0.2596  0.2839  0.1353
13928W        W33462  15.377   7.991  13.409  0.1109  0.1063  0.0057
13929W        W33463  15.836  16.959   1.921 -0.1150 -0.4107  0.0725
13930W        W33464  15.198   4.115   1.353  0.0090 -0.2143  0.3997
13931W        W33465   1.677   5.702   2.395 -0.2351 -0.0183 -0.0260
13932W        W33466  11.639   5.061   4.239 -0.0040 -0.0096  0.1812
13933W        W33467  10.932   7.358  12.877  0.0828  0.1053 -0.1256
13934W        W33468   7.614   3.358  16.342  0.0886  0.0094  0.1370
13935W        W33469  12.022   8.989  12.736  0.1025  0.0716 -0.0528
13936W        W33470  14.561  14.045  16.815  0.1438  0.2479  0.0074
13937W        W33471  16.416  15.436  12.760 -0.0129  0.2067 -0.3159
13938W        W33472  14.141   6.185   2.147 -0.1191  0.0121  0.1402
13939W        W33473   3.114   4.047  16.357 -0.0506 -0.0716 -0.2544
13940W        W33474  10.978  17.366   3.297  0.1276  0.1346  0.2898
13941W        W33475   8.292  12.043   4.539 -0.0125 -0.2320 -0.2175
13942W        W33476   6.222   3.382  14.329 -0.1314  0.1335  0.2375
13943W        W33477  13.490  10.758   0.813  0.2488  0.1506  0.0635
13944W        W33478   6.281  14.878   0.833  0.1276 -0.0798 -0.0512
13945W        W33479  15.747  15.522   4.063  0.2690  0.3610 -0.3907
13946W        W33480   3.699  12.236  12.530 -0.0112  0.1365 -0.0040
13947W        W33481  13.678  12.463   0.037  0.2059  0.4432 -0.0817
13948W        W33482   1.755  16.613   5.007  0.1021  0.1037  0.2556
13949W        W33483   5.145   8.551   2.601  0.1743  0.2134  0.1851
13950W        W33484  17.379   3.043  17.149  0.0071 -0.3358 -0.0102
13951W        W33485  15.442   4.872  12.073 -0.0735 -0.1221 -0.1523
13952W        W33486  14.552  16.989   0.098 -0.2333  0.4648 -0.0549
13953W        W33487   3.107  16.942   3.544  0.0078 -0.1588  0.2571
13954W        W33488  14.817   8.670   0.552  0.2230 -0.2372  0.0295
13955W        W33489   6.256   9.048   4.335  0.1446  0.2777  0.0640
13956W        W33490  11.793   5.057   1.812 -0.1733  0.2596  0.0865
13957W        W33491  10.022  11.034   0.410 -0.0332 -0.1472 -0.0648
13958W        W33492  15.959  14.971   2.227  0.1381  0.1607  0.2360
13959W        W33493   2.106  14.142  13.334 -0.1898  0.0275 -0.2516
13960W        W33494   0.764   7.389   4.886  0.4245 -0.0299  0.0922
13961W        W33495  10.070  13.368   0.879 -0.3151  0.2023 -0.2740
13962W        W33496  12.989  15.962  14.220 -0.1691  0.1933 -0.1192
13963W        W33497   1.320   1.707  15.564 -0.1013 -0.0650  0.1667
13964W        W33498  16.999   6.798   0.055  0.2329 -0.1896 -0.6337
13965W        W33499   2.030  14.844  15.998 -0.1750  0.1559  0.3863
13966W        W33500  10.164  12.510  15.028 -0.3476  0.1201 -0.2553
13967W        W33501  12.329   7.804  13.429 -0.0723 -0.1298  0.0904
13968W        W33502  13.744   8.001   0.808  0.2509  0.1766  0.0267
13969W        W33503   3.541  16.753  14.456  0.0396  0.1122  0.0925
13970W        W33504  10.852  12.190  13.358  0.0098  0.0062 -0.0589
13971W        W33505   8.435   6.775   3.437  0.0846 -0.0089 -0.1683
13972W        W33506   2.221   3.295  14.919  0.0069  0.0132 -0.2555
13973W        W33507   8.115  12.779   5.226  0.2979  0.1641  0.0639
13974W        W33508   7.895   7.259  16.043  0.0836 -0.0189 -0.1494
13975W        W33509   6.683   4.392   1.948 -0.1050 -0.0764 -0.0581
13976W        W33510   1.014   4.828   0.672  0.1711 -0.1892  0.0578
13977W        W33511   0.180  16.956  16.563  0.0097 -0.0905 -0.0246
13978W        W33512   7.768  11.693  16.448  0.0301  0.0188  0.2311
13979W        W33513   4.929  16.395  12.211 -0.0490 -0.1249  0.0190
13980W        W33514   5.870   6.858  14.251  0.0253  0.0302  0.2136
13981W        W33515   7.636  13.041   2.149  0.0515  0.1611 -0.2785
13982W        W33516  16.965  15.411   0.051 -0.1694  0.0680  0.2652
13983W        W33517   1.768  11.268   4.500  0.0868 -0.2502  0.0028
13984W        W33518   1.663  16.932   0.119  0.0194  0.1508 -0.1428
13985W        W33519   5.697  12.823   0.403 -0.1753 -0.2888 -0.1992
13986W        W33520   2.436   9.914  14.892 -0.0922 -0.1051  0.3847
13987W        W33521  13.597  15.657   1.191  0.2677  0.1035 -0.0500
13988W        W33522  13.496  10.879  16.860  0.0717  0.2022  0.2143
13989W        W33523   6.150  12.663   1.221  0.1628  0.0967 -0.1631
13990W        W33524  14.286   2.585  13.515  0.1042 -0.4645  0.1645
13991W        W33525   9.458   4.639  15.555 -0.1144 -0.0991 -0.1390
13992W        W33526   6.627  11.078   3.944  0.6596  0.1193 -0.1144
13993W        W33527  13.425  15.272  12.555  0.1385 -0.2349  0.1236
13994W        W33528  15.128   7.871   0.174  0.5964  0.2466  0.0729
13995W        W33529   6.447   2.462   0.169  0.2478  0.3428  0.2539
13996W        W33530   6.033  12.203  12.730  0.2731  0.0866 -0.0798
13997W        W33531   0.864   5.713  15.633  0.0894  0.2502  0.1084
13998W        W33532   6.450   4.960   0.946 -0.0247  0.0557 -0.1069
13999W        W33533   2.409  13.851   4.591  0.1039  0.1529  0.2064
14000W        W33534   0.395   8.694   3.856 -0.1897  0.1210  0.0063
14001W        W33535   7.204  12.938   4.390  0.0356  0.1277 -0.0835
14002W        W33536   6.022   5.408   2.264 -0.0845 -0.0238 -0.1907
14003W        W33537   9.915  12.614  12.489  0.0011 -0.0278 -0.0172
14004W        W33538   1.323   8.820   1.950  0.1575 -0.1711  0.1740
14005W        W33539   6.161   2.890   2.685 -0.2123  0.4021  0.0312
14006W        W33540   6.081  11.820   1.977  0.0966  0.1308 -0.0755
14007W        W33541  16.991  13.139   1.835 -0.2834  0.1656 -0.3271
14008W        W33542   9.632  11.096   3.661 -0.3776  0.0540  0.1935
14009W        W33543  14.132   9.443   5.090  0.0349  0.2263 -0.0043
14010W        W33544  10.141   2.176  16.076  0.1924 -0.0272 -0.0129
14011W        W33545  12.975   0.146   0.547 -0.0360  0.0772 -0.0162
14012W        W33546  10.856   7.530  14.700  0.2579 -0.0237  0.0115
14013W        W33547   7.022  14.629  14.297  0.2400 -0.3288 -0.2130
14014W        W33548   1.672  13.919  13.135  0.0618  0.2272 -0.2074
14015W        W33549   8.398  11.021  16.969  0.0290 -0.1951 -0.0731
14016W        W33550   2.037   0.677   0.350 -0.0110 -0.2095 -0.2405
14017W        W33551   6.022  12.357  16.975 -0.2036  0.2524  0.1257
14018W        W33552   3.571  11.202   0.002 -0.1081 -0.1020  0.1669
14019W        W33553   3.229   0.869   3.320  0.2258  0.2792 -0.0664
14020W        W33554  15.485  15.915  14.592  0.2405 -0.0931 -0.0027
14021W        W33555  17.116  15.777   3.641  0.0221 -0.2098  0.2970
14022W        W33556  10.920   1.474  17.072  0.1294  0.0627  0.1682
14023W        W33557  15.621  10.291  13.366 -0.2118  0.1738 -0.1972
14024W        W33558  17.237   7.889  12.833 -0.3067  0.3173 -0.0129
14025W        W33559   9.983   5.346  16.244  0.0071 -0.2036  0.1269
14026W        W33560   4.754   5.025  16.626 -0.2223  0.1491  0.1729
14027W        W33561  10.943   0.558   4.468 -0.1144 -0.0580 -0.0682
14028W        W33562  11.752   5.437  12.892  0.2165 -0.0654  0.1549
14029W        W33563  13.540  12.534   1.051  0.0749 -0.1640  0.1136
14030W        W33564  10.096   5.631  16.638  0.1585 -0.0142  0.0520
14031W        W33565   0.900  10.689  13.653 -0.1656  0.2236  0.0716
14032W        W33566   4.375   3.006   4.003 -0.1390  0.1052  0.0917
14033W        W33567  10.193   0.385   0.703  0.0357  0.0889  0.1375
14034W        W33568   2.560   4.071  12.834  0.0283  0.0848 -0.2195
14035W        W33569   1.738   0.755  14.318 -0.3237  0.2082 -0.0016
14036W        W33570   0.821  17.269   0.670 -0.1632  0.0703 -0.1957
14037W        W33571  14.449   0.366   3.884 -0.2018 -0.1115 -0.0074
14038W        W33572   3.782  11.822  16.103  0.2639  0.3385 -0.0598
14039W        W33573   9.359  11.623   4.413  0.1005 -0.2016 -0.3540
14040W        W33574  10.842  12.903   3.979  0.2159  0.2631  0.0780
14041W        W33575   4.016  10.187   2.814  0.0667  0.0406 -0.0060
14042W        W33576   4.028   4.880   1.665  0.0091 -0.0572  0.1972
14043W        W33577  13.161  10.071  14.245 -0.1737  0.0795 -0.0385
14044W        W33578   3.202   1.255  13.502 -0.0093  0.3338  0.0077
14045W        W33579  12.627  16.844   2.289 -0.0518  0.2901 -0.0666
14046W        W33580   1.748  11.344  16.061  0.0028 -0.1514  0.2258
14047W        W33581  10.692   2.432   0.670 -0.1211 -0.1799 -0.0955
14048W        W33582   2.017   2.115  15.241 -0.1077 -0.1040 -0.2067
14049W        W33583   3.370  16.316   5.416  0.1386 -0.1228 -0.0871
14050W        W33584   4.361   0.491  17.060 -0.1456  0.0032 -0.1265
14051W        W33585   9.265  16.872   3.990  0.1608 -0.1304 -0.1338
14052W        W33586   6.703   2.979   3.874 -0.3512  0.1542 -0.2677
14053W        W33587   6.241  14.323  14.814 -0.0337 -0.1545 -0.0874
14054W        W33588   0.630   2.728  14.550 -0.0172  0.2649  0.2328
14055W        W33589   7.369   7.291  15.196 -0.0774 -0.1801  0.0587
14056W        W33590  11.137  10.399  13.258 -0.0068  0.0306  0.0023
14057W        W33591   1.438   1.115   4.022 -0.2841  0.0857 -0.2348
14058W        W33592  15.766  15.851  16.811 -0.2499 -0.3327 -0.2617
14059W        W33593  17.183  12.326   2.503  0.2325 -0.0567 -0.2943
14060W        W33594  15.327   5.226   1.549  0.0355  0.0318 -0.1367
14061W        W33595   3.543  17.347   2.106  0.2010  0.4296 -0.0306
14062W        W33596  14.899  11.351   3.572  0.0027  0.2401  0.0729
14063W        W33597   7.049  15.686   3.386  0.1340 -0.4129 -0.0279
14064W        W33598  14.718   3.926  16.222 -0.1098 -0.0215 -0.1107
14065W        W33599   2.073   6.858   5.042  0.0931 -0.2439 -0.0263
14066W        W33600   5.632   7.454   3.879 -0.0744  0.0353 -0.2893
14067W        W33601  14.392  12.456  16.827 -0.0816  0.0349 -0.1776
14068W        W33602   5.628   3.477  14.787 -0.2907  0.3111 -0.1529
14069W        W33603   7.664  10.805   4.002  0.0062  0.0592  0.2261
14070W        W33604   3.513   9.679   4.583  0.1057 -0.3300  0.2671
14071W        W33605  16.465  15.004   4.842 -0.3542 -0.3222 -0.1509
14072W        W33606  10.208   4.382   1.458  0.2273 -0.0112 -0.0124
14073W        W33607  16.415   4.507   4.354  0.0230 -0.1852 -0.0709
14074W        W33608  13.711   2.929   0.753  0.2966  0.1150 -0.0576
14075W        W33609   7.340  15.217  13.285  0.0433 -0.3658 -0.1759
14076W        W33610   4.457   5.366  15.352 -0.2362 -0.0490 -0.2029
14077W        W33611  11.160  13.990   0.018  0.1244  0.0161  0.2063
14078W        W33612   1.824  16.610  15.796 -0.1512 -0.4126 -0.0727
14079W        W33613  13.493  10.265  15.548  0.1039  0.1538  0.0925
14080W        W33614  15.204  13.816   2.961 -0.4667 -0.0561  0.2511
14081W        W33615  14.633   9.533   0.425  0.1662 -0.0433 -0.2627
14082W        W33616   5.611  11.553  13.009  0.2489  0.1835  0.0502
14083W        W33617  13.452   1.015   2.173  0.0941 -0.0012 -0.1240
14084W        W33618  13.227  11.076   2.637 -0.1063  0.1298  0.1428
14085W        W33619   3.421  15.604  14.590 -0.0672 -0.0279  0.0822
14086W        W33620   9.598  14.643  14.721 -0.2108  0.0449 -0.1918
14087W        W33621  10.572   7.892  14.159 -0.1667  0.0578  0.1044
14088W        W33622   6.565   1.318   0.610 -0.4550  0.1215 -0.1244
14089W        W33623  11.692  11.696   2.832  0.1743  0.0341  0.0368
14090W        W33624   8.142  12.392  13.140  0.0531 -0.0703  0.0198
14091W        W33625  16.194  16.308   4.043  0.2372  0.0021  0.1136
14092W        W33626   0.687  11.659   0.009  0.1677  0.1840  0.2414
14093W        W33627   3.065   7.788   2.410 -0.2415 -0.2449  0.0352
14094W        W33628   1.127   9.449   1.708 -0.4564  0.1835  0.0837
14095W        W33629   3.430   4.203   4.942  0.0001 -0.1313  0.2820
14096W        W33630   4.001   6.563  13.140 -0.1652  0.0332 -0.0251
14097W        W33631   2.605  16.927  12.517  0.1618 -0.0155 -0.0474
14098W        W33632   9.705  13.181   4.890 -0.0932  0.1182 -0.0440
14099W        W33633  11.317   1.093   3.434 -0.1925  0.3597 -0.2021
14100W        W33634   3.480   2.604   1.558  0.2589 -0.2720 -0.1616
14101W        W33635   2.716   4.591  15.751 -0.2166 -0.0995  0.1195
14102W        W33636   3.638  16.767  13.777 -0.0720 -0.2583  0.4228
14103W        W33637   8.051  11.952  15.567 -0.0436  0.0022  0.0504
14104W        W33638   0.925  12.840  13.214  0.1421 -0.0331  0.0297
14105W        W33639  13.570   1.182  14.735  0.0597 -0.1139  0.2721
14106W        W33640   4.901  12.207   1.630 -0.1670 -0.3639 -0.0953
14107W        W33641   7.600  14.946  16.750 -0.0052  0.2174  0.0590
14108W        W33642   7.806   8.760   3.482 -0.1242  0.1895 -0.2024
14109W        W33643  16.272   9.270  14.411  0.0038 -0.0927 -0.2660
14110W        W33644   3.326  14.974   2.342  0.1347  0.0055  0.2591
14111W        W33645   4.504   7.166   5.242  0.0778 -0.2606  0.2803
14112W        W33646   0.563  12.250   0.813 -0.0471  0.0545 -0.3171
14113W        W33647  11.494   9.385   0.686 -0.3619  0.0014  0.0098
14114W        W33648   1.557  16.232  13.454 -0.0807 -0.0745 -0.0867
14115W        W33649  16.638  12.687   1.047 -0.2777  0.1108  0.1812
14116W        W33650   4.032   1.471   3.518 -0.1151 -0.2287 -0.1275
14117W        W33651   7.196   5.916   1.149  0.0464  0.1907  0.1385
14118W        W33652   6.168  13.312   2.461 -0.0141  0.3685  0.0121
14119W        W33653   2.740   3.399  15.789  0.0532 -0.0943  0.0180
14120W        W33654   4.569   9.624  14.102  0.0591  0.3041 -0.2314
14121W        W33655   2.926  12.284  13.410  0.0437 -0.2768  0.0367
14122W        W33656   6.201   4.991  13.304  0.3664 -0.1144 -0.1329
14123W        W33657   1.881   4.932  14.672 -0.0194  0.3840 -0.2384
14124W        W33658   5.374  11.043   4.304  0.1908  0.4622 -0.1388
14125W        W33659  11.639   9.378   2.119  0.0459 -0.1013  0.2075
14126W        W33660   5.815  14.502  13.131 -0.1413 -0.1323 -0.3477
14127W        W33661  14.056   1.683   3.765 -0.4582  0.0436 -0.0655
14128W        W33662   9.615   4.121  12.704 -0.0317 -0.4408 -0.0881
14129W        W33663  17.263   0.767  15.606  0.1244  0.0015  0.0362
14130W        W33664  13.715  17.161  14.389 -0.4146  0.1805  0.0344
14131W        W33665   0.044   3.718   1.414 -0.0076 -0.0055 -0.0320
14132W        W33666   3.106   2.220  12.969  0.4006 -0.1618 -0.2699
14133W        W33667   5.725   4.315  15.089  0.0934  0.1081 -0.0949
14134W        W33668  12.447   6.994  17.210  0.0178  0.1935  0.2450
14135W        W33669   9.826   0.686   0.015 -0.1454 -0.3296  0.0150
14136W        W33670  13.429  12.138  13.312 -0.2203  0.2483  0.1524
14137W        W33671  10.698   5.772  15.476 -0.2658 -0.1164 -0.1904
14138W        W33672  14.160   2.209  17.239 -0.0284 -0.0843  0.2004
14139W        W33673   6.452   0.568   3.837 -0.0665 -0.3009 -0.0528
14140W        W33674  10.704   8.430   4.592 -0.0734  0.0657  0.2612
14141W        W33675   3.413   4.096   0.739 -0.0392  0.1780 -0.1878
14142W        W33676   5.458  15.554   3.384  0.0244 -0.0770  0.2668
14143W        W33677  10.556   9.048  16.716 -0.1150  0.3693  0.0465
14144W        W33678   1.863  13.417  17.075  0.0231 -0.1673  0.3206
14145W        W33679   1.340  12.625  16.083 -0.0041  0.1228  0.1166
14146W        W33680  10.131  15.890  13.873 -0.2307 -0.0016 -0.0982
14147W        W33681   0.904   0.626  13.234  0.0899 -0.1147  0.0504
14148W        W33682  15.095   5.266  14.657  0.1234 -0.2269  0.1014
14149W        W33683   3.356   0.220  13.918  0.0290 -0.2325 -0.0415
14150W        W33684   1.643   3.753   1.877  0.0639 -0.0157 -0.0051
14151W        W33685  11.284   3.808  12.988 -0.3869 -0.1095 -0.3568
14152W        W33686   9.939  14.517   2.431 -0.2331 -0.0677 -0.0806
14153W        W33687   2.418  13.352   3.025 -0.4051 -0.1980  0.1644
14154W        W33688  12.364  13.770  14.524 -0.2176  0.1591  0.2779
14155W        W33689   5.418  12.357  11.936  0.0290 -0.2300 -0.1725
14156W        W33690  16.142   8.625  16.261  0.0944 -0.3247  0.1964
14157W        W33691  13.497   0.229  16.593  0.3051  0.3043  0.2396
14158W        W33692  14.638  10.233   4.137  0.1897  0.1100 -0.0120
14159W        W33693  11.445   4.786   5.685  0.0716  0.2030 -0.2924
14160W        W33694   5.803  13.446   2.750  0.0365 -0.0160 -0.0607
14161W        W33695   3.206  14.412   4.866 -0.0992 -0.1735  0.0751
14162W        W33696   4.899   1.003   3.922  0.1570 -0.2001  0.1054
14163W        W33697   1.470  11.533  14.650 -0.0521  0.0480  0.0994
14164W        W33698   8.487  15.359  15.290 -0.1266 -0.1911 -0.1090
14165W        W33699  16.728   4.106  16.282 -0.0903 -0.0895  0.1249
14166W        W33700   2.383  10.467   0.834 -0.0713 -0.3490  0.3292
14167W        W33701   7.713  11.918   4.349  0.1395 -0.1046  0.0873
14168W        W33702  12.169   5.616  14.523  0.0276 -0.0455 -0.1866
14169W        W33703  10.816   8.772  14.049  0.0656  0.2174  0.0476
14170W        W33704   3.925   4.873  14.357 -0.3661  0.0515  0.0002
14171W        W33705   5.022   8.893   3.386 -0.1246 -0.1417  0.2201
14172W        W33706   2.095  11.453  11.677 -0.0930  0.0785 -0.0202
14173W        W33707   5.564   1.271   2.972 -0.0988 -0.1203 -0.3743
14174W        W33708  13.774   9.391   3.665 -0.0881  0.0536  0.0411
14175W        W33709  13.235   3.719  17.164  0.0047 -0.0586 -0.1809
14176W        W33710   4.605   9.402   2.857  0.3869 -0.1368 -0.2531
14177W        W33711   6.243  16.353   2.068 -0.0345 -0.4501  0.1118
14178W        W33712  15.319   0.814  13.604 -0.1990 -0.1778  0.1832
14179W        W33713   1.595   0.489   0.493  0.0448  0.0187  0.2510
14180W        W33714   2.896   4.154  15.933  0.1221  0.0416 -0.0839
14181W        W33715   0.329   0.599  13.270  0.2920  0.2482 -0.1330
14182W        W33716   3.461   0.005  15.673  0.3108 -0.3093 -0.2105
14183W        W33717   8.227   2.462  16.941 -0.1554  0.1734 -0.0452
14184W        W33718   9.841  16.326  14.821 -0.0668 -0.0273 -0.2618
14185W        W33719   4.262   3.504  12.670 -0.1060 -0.2031 -0.2881
14186W        W33720  12.873  16.873   0.027  0.0852 -0.3274  0.2966
14187W        W33721   9.937   6.894   2.292  0.0429 -0.1242 -0.0387
14188W        W33722   4.850   3.113  15.974  0.0421 -0.1329 -0.0561
14189W        W33723  12.946  12.171  16.854 -0.2069  0.1602  0.1503
14190W        W33724  10.600  11.839  15.348  0.0015  0.0176 -0.0861
14191W        W33725   9.369   3.147  13.022 -0.0847 -0.1957  0.2545
14192W        W33726  14.619   2.996   0.422  0.2570  0.2197 -0.0792
14193W        W33727  10.814   8.728   3.093  0.2601 -0.0911 -0.3685
14194W        W33728  13.450   2.950   2.496 -0.1194 -0.0139  0.0534
14195W        W33729   9.448  15.505  14.567 -0.0807 -0.0444 -0.1386
14196W        W33730   4.789   4.120  16.349  0.3486 -0.0059  0.0133
14197W        W33731  16.450  13.072  12.871  0.0654 -0.2784 -0.1964
14198W        W33732   9.251  12.554   3.470 -0.0242 -0.0218  0.1891
14199W        W33733  15.228  14.923  16.655 -0.2334  0.0793  0.2733
14200W        W33734   3.566  16.516  16.568 -0.1066  0.1214 -0.0120
14201W        W33735   3.072   1.959   4.404  0.0425  0.0863 -0.1685
14202W        W33736   6.758  12.840   2.131 -0.2893 -0.0882  0.0434
14203W        W33737  13.262   4.834  12.785 -0.0302 -0.1075 -0.0078
14204W        W33738  13.832   3.399   5.206 -0.0382 -0.4055 -0.3046
14205W        W33739   3.588   4.791  15.291 -0.0560 -0.0649 -0.3174
14206W        W33740  16.841   3.431   4.135 -0.3248  0.1130  0.2333
14207W        W33741   7.860   3.766   3.488 -0.0391 -0.0479 -0.0013
14208W        W33742   6.730   0.895  14.753 -0.1437 -0.5461 -0.0811
14209W        W33743   7.712   1.090   4.738  0.2137 -0.1339 -0.1648
14210W        W33744   0.358   6.726  16.280 -0.2312  0.3696 -0.0065
14211W        W33745  10.572  13.421   5.365 -0.3940  0.0676 -0.1262
14212W        W33746   0.364   0.531   5.269  0.0993 -0.0972  0.1032
14213W        W33747   4.710   8.171   4.217  0.0889 -0.0682  0.2254
14214W        W33748  16.853   4.393   1.724  0.2029  0.3549 -0.2441
14215W        W33749   4.380   5.975  11.976 -0.1847 -0.0870  0.1777
14216W        W33750  13.606  14.180  16.791 -0.4532 -0.0662  0.0196
14217W        W33751   8.587   4.975   3.080 -0.3160  0.0852 -0.1277
14218W        W33752   7.600  14.372  13.524 -0.0259  0.0094 -0.1461
14219W        W33753   2.881  13.400  16.110  0.0596  0.0463  0.3022
14220W        W33754  15.018   7.853  12.502 -0.2710  0.4635 -0.2180
14221W        W33755   7.247   1.047   1.959 -0.2044 -0.1458  0.0387
14222W        W33756  13.554   3.650  14.544 -0.0867  0.1366 -0.0565
14223W        W33757   8.231  10.189   3.756  0.3274 -0.0204 -0.0435
14224W        W33758  14.169  13.527  13.613 -0.0368 -0.1489  0.1987
14225W        W33759  11.499  13.784   1.734 -0.1467 -0.3769  0.0496
14226W        W33760  13.223  10.654  12.817 -0.0406  0.2481  0.1251
14227W        W33761   6.408   1.252  13.363 -0.0667 -0.1089 -0.0742
14228W        W33762  14.408  12.338  12.209 -0.1367  0.0061  0.1097
14229W        W33763  13.680   8.242  16.197 -0.0299 -0.0933  0.1968
14230W        W33764   4.357   7.360   2.251  0.1434 -0.0031 -0.1069
14231W        W33765  10.231  10.406  13.884  0.1372  0.1835 -0.0859
14232W        W33766  10.147  16.728   2.041 -0.2010  0.1034 -0.1706
14233W        W33767   4.657   1.777   1.358  0.0478 -0.0163  0.4218
14234W        W33768   4.481   2.894   4.517 -0.0245 -0.0101 -0.0065
14235W        W33769   1.948   3.676   5.027 -0.0022  0.1126 -0.0396
14236W        W33770   5.097  13.371  12.559 -0.0270  0.0504  0.0344
14237W        W33771  14.229   1.593   4.753  0.0789  0.1150 -0.2268
14238W        W33772  10.564   8.486  17.007  0.2438  0.1600 -0.1268
14239W        W33773   7.393   2.882   0.484  0.2169  0.3767  0.0372
14240W        W33774  11.574   2.482   0.465  0.0485 -0.1964 -0.1786
14241W        W33775  17.092   8.391  12.912  0.0126 -0.2139  0.0259
14242W        W33776   3.157   3.659  15.950 -0.2002  0.0764  0.1314
14243W        W33777  14.284   3.668   5.167  0.2712  0.2960  0.1106
14244W        W33778   6.314   8.621  13.454 -0.1730 -0.1328 -0.0750
14245W        W33779   8.146  12.400  16.874 -0.0596 -0.3607 -0.1978
14246W        W33780  13.851  15.469  14.710  0.1775  0.5473 -0.0269
14247W        W33781   6.404  16.394  12.582  0.1805 -0.1007  0.0086
14248W        W33782   0.736  12.445  15.424  0.0043  0.0424  0.1529
14249W        W33783  12.191   6.588   4.605  0.0122 -0.0437 -0.0279
14250W        W33784  12.096   8.029   4.384 -0.0398 -0.0967 -0.3724
14251W        W33785   3.160   1.596  13.123 -0.1003  0.0427 -0.1211
14252W        W33786   4.338   1.695  15.268  0.0226  0.0109 -0.2789
14253W        W33787  13.970   7.065  12.732  0.0079 -0.1727  0.0599
14254W        W33788  16.593   8.419  15.350  0.3173  0.1393 -0.1037
14255W        W33789   6.751  11.487  14.790 -0.0232 -0.1432 -0.0885
14256W        W33790   7.164   5.794   3.790 -0.1414 -0.5051 -0.0277
14257W        W33791  11.865   4.108   4.209  0.0800  0.1557 -0.1205
14258W        W33792   6.258   7.743   0.034 -0.2310 -0.2628 -0.2299
14259W        W33793   0.488   6.856  17.155  0.0027 -0.4472  0.0484
14260W        W33794   3.520   6.452  16.298  0.2028  0.0555 -0.1930
14261W        W33795  16.729  12.429   0.589 -0.0772  0.1133 -0.2207
14262W        W33796   8.379   3.631  13.424 -0.0635  0.0076  0.4707
14263W        W33797  14.287  16.400  12.627 -0.0192 -0.1693  0.1979
14264W        W33798  10.835   0.946   3.239 -0.1211 -0.1733 -0.0006
14265W        W33799   9.609  11.935   3.926  0.0292  0.0248  0.0431
14266W        W33800  14.521   3.508  13.662  0.0581  0.0247  0.0223
14267W        W33801  11.077  16.183  13.983  0.1391  0.0191  0.1755
14268W        W33802  10.867   0.641   3.657 -0.0566  0.0903  0.1836
14269W        W33803  17.311   3.081   2.994  0.1042 -0.0699  0.0200
14270W        W33804  11.565  16.913  13.623 -0.2010  0.3124  0.0880
14271W        W33805   4.841   1.675   0.934 -0.2812  0.0306  0.2132
14272W        W33806   1.095   3.740  14.830  0.1399 -0.1649 -0.1075
14273W        W33807   3.862   1.870   2.068  0.1359 -0.0456 -0.1699
14274W        W33808  10.650   5.034  14.921 -0.3202 -0.0427  0.0715
14275W        W33809  12.784  13.769  14.796  0.0017  0.1118  0.0123
14276W        W33810  12.100   3.807  12.316  0.2280 -0.1384 -0.1392
14277W        W33811   8.056   8.515   2.007 -0.3550 -0.1472 -0.3323
14278W        W33812   2.006  17.253   4.094  0.1475 -0.3805 -0.0458
14279W        W33813   6.492   3.705   2.436 -0.0589 -0.1294  0.0742
14280W        W33814   2.485   3.663  13.413  0.3268  0.1938 -0.1879
14281W        W33815   1.274  10.214  15.396 -0.1598  0.1829  0.0345
14282W        W33816  16.766   2.305   2.114  0.1454  0.3199  0.1462
14283W        W33817  10.769   6.274  11.943 -0.3393 -0.0992 -0.1217
14284W        W33818   4.704   1.758  13.861 -0.1618 -0.0464 -0.1565
14285W        W33819  15.192   9.039  13.157 -0.1328  0.0534 -0.1928
14286W        W33820   6.018  15.113  13.657 -0.3143  0.3284  0.0956
14287W        W33821  14.912  12.591  15.498 -0.0161  0.0950  0.2216
14288W        W33822  11.125   2.931   4.753 -0.1487 -0.1957  0.0882
14289W        W33823   5.815  11.444   4.544 -0.0212  0.0134  0.0219
14290W        W33824   4.886   1.951   4.016  0.1768  0.0063  0.1780
14291W        W33825  15.582  13.500  14.004  0.0724  0.0769  0.0978
14292W        W33826   6.034  12.996   2.859  0.4525 -0.0023  0.2261
14293W        W33827   0.178   8.522  16.298  0.0483  0.0938  0.0227
14294W        W33828   9.015   3.245  12.721  0.0212 -0.0418 -0.1393
14295W        W33829  15.158   8.585   2.764  0.2249  0.2281  0.0970
14296W        W33830  11.717  15.590   1.400 -0.0410 -0.1918 -0.0321
14297W        W33831  13.175   8.109   3.328 -0.2931  0.2383  0.2381
14298W        W33832  11.299   5.200   3.902 -0.0903 -0.1657  0.2281
14299W        W33833   1.655  15.243  13.321  0.1647  0.0260  0.0291
14300W        W33834   8.024   3.183   3.163  0.3420  0.0475 -0.1103
14301W        W33835  14.351   4.806  14.323  0.0182 -0.1860  0.1370
14302W        W33836  13.615   9.108   0.522  0.2377  0.0861 -0.2943
14303W        W33837  11.833   9.094  16.779  0.0083  0.3189 -0.0383
14304W        W33838   1.078  13.808   2.888  0.3981  0.1395 -0.1662
14305W        W33839   8.755   6.498  13.165  0.2322 -0.2083  0.1649
14306W        W33840   3.824   3.770   1.499  0.1238 -0.0240 -0.1228
14307W        W33841   6.988   7.434  15.780 -0.0302  0.1320 -0.0575
14308W        W33842  14.671   3.850  17.311 -0.0250  0.0634  0.1310
14309W        W33843  12.293   2.697  17.029 -0.0460 -0.1405  0.0339
14310W        W33844   0.233  16.106   1.666  0.2330 -0.0929  0.1019
14311W        W33845  14.409   7.477   2.973  0.0967  0.1315 -0.0367
14312W        W33846   8.926   9.921   1.331  0.0688  0.2025  0.0288
14313W        W33847  17.234   1.120   1.246 -0.2970 -0.0960 -0.2427
14314W        W33848  10.390  17.274  16.228  0.1222 -0.0491 -0.1636
14315W        W33849  13.977   2.147   4.007 -0.0302  0.0014 -0.2173
14316W        W33850  10.431   0.657   3.364  0.0708 -0.1868  0.3206
14317W        W33851   6.179  13.741  12.719  0.0999  0.2323 -0.1451
14318W        W33852   8.881  15.620  15.165 -0.0481 -0.0682 -0.1037
14319W        W33853   8.738   1.914  13.039  0.3444 -0.1871 -0.0413
14320W        W33854   7.734   6.793  13.378 -0.0036 -0.1240  0.3150
14321W        W33855   8.418   2.043   0.858 -0.0328  0.0494  0.0524
14322W        W33856  14.188   2.975   1.714  0.1392 -0.0849  0.0683
14323W        W33857   9.619   1.825   3.526  0.0898 -0.2952  0.0710
14324W        W33858  13.930   7.986  16.831  0.0921  0.0613  0.1210
14325W        W33859   3.668  16.726  16.140  0.2502  0.2198  0.0288
14326W        W33860  15.889   7.918  15.133 -0.2027  0.0984  0.0907
14327W        W33861   0.509   4.241  17.238  0.2131 -0.3302 -0.3403
14328W        W33862   2.846  16.793   1.933  0.3972  0.2283  0.0617
14329W        W33863  11.244  10.498  12.242  0.1588  0.1899  0.1077
14330W        W33864  12.153   9.657  14.730 -0.0465 -0.0257  0.0391
14331W        W33865   0.764  15.355   1.170 -0.0081 -0.0918 -0.0462
14332W        W33866   3.012   4.089  13.191 -0.2271 -0.1950  0.2085
14333W        W33867   9.953  14.425  12.532  0.1313  0.0490 -0.1518
14334W        W33868  16.294   0.755   4.392  0.1548  0.0899 -0.1556
14335W        W33869  15.781  12.633  13.927  0.2242 -0.0753 -0.0517
14336W        W33870   1.366   9.575  16.646 -0.0995 -0.0855 -0.1382
14337W        W33871   4.109   6.778  13.600 -0.1768 -0.2231 -0.1548
14338W        W33872   8.442   7.459  17.157  0.0728 -0.2613  0.1863
14339W        W33873   0.018  13.548   0.650  0.1951  0.3268  0.2567
14340W        W33874  13.280  16.223   5.490 -0.0119 -0.2500 -0.0140
14341W        W33875  13.151   6.013  12.810  0.2537 -0.2819 -0.3058
14342W        W33876   6.919   4.977  14.156 -0.1192  0.2433 -0.0815
14343W        W33877   8.649  16.271  15.288  0.0561 -0.0709  0.0315
14344W        W33878  16.250  13.132   0.402  0.1188 -0.1747  0.0183
14345W        W33879   6.530   3.405  16.959  0.1614 -0.2022 -0.1870
14346W        W33880   6.567   3.867   2.952  0.0889  0.1460 -0.0476
14347W        W33881   8.395  15.806  16.489  0.2354  0.1552 -0.1917
14348W        W33882   1.147   6.647   5.106 -0.0598 -0.0769 -0.3210
14349W        W33883  17.450  16.448   1.963 -0.0051 -0.0959  0.1551
14350W        W33884   0.236   4.186   0.342  0.1662 -0.3259  0.3369
14351W        W33885   5.572  12.385   5.030  0.1730 -0.1066  0.0755
14352W        W33886  13.743  11.337  15.940 -0.2472  0.1514 -0.0671
14353W        W33887   3.524   9.873  15.364  0.1067 -0.0262 -0.0503
14354W        W33888   6.749   7.662  12.665 -0.0802 -0.0232  0.1243
14355W        W33889   1.962  14.433   1.602  0.1127  0.1925 -0.2282
14356W        W33890  13.496  13.863  12.774  0.2459  0.0992  0.1474
14357W        W33891   5.979  14.111   5.000  0.2821  0.1637 -0.1273
14358W        W33892  16.650  11.209  16.597 -0.3896 -0.0844 -0.0397
14359W        W33893  13.569   1.670  14.362 -0.0774  0.0903  0.2264
14360W        W33894   1.120   3.750   0.190  0.0904  0.0656  0.0725
14361W        W33895   3.224   4.776   3.661 -0.0798  0.2419  0.2698
14362W        W33896   9.524  12.000   5.619 -0.1387  0.2070 -0.0011
14363W        W33897  14.886   0.422   4.804 -0.2485 -0.1617 -0.0674
14364W        W33898   7.119   6.169   4.195  0.1922 -0.0932  0.0917
14365W        W33899  10.650  10.568   4.453  0.0353  0.0141 -0.1658
14366W        W33900   6.891   9.325  13.502  0.1645 -0.2407  0.1397
14367W        W33901  10.094   1.196   1.802  0.1585 -0.1646 -0.1549
14368W        W33902   5.805   4.813   2.182  0.0645  0.0555 -0.0639
14369W        W33903   4.765  16.461   3.367 -0.0318  0.2228 -0.3065
14370W        W33904   6.863  16.752  13.235 -0.0763  0.0128 -0.0247
14371W        W33905   3.168  16.547   4.523 -0.4082  0.0902 -0.1751
14372W        W33906   4.330   5.770  13.420  0.1909  0.1470 -0.0822
14373W        W33907  10.558   5.667   2.580 -0.0284 -0.2687  0.3156
14374W        W33908  14.856  15.296  14.879  0.0603 -0.0247  0.0460
14375W        W33909   9.210   7.379   4.382 -0.1694  0.0464 -0.0079
14376W        W33910   1.876   7.638   0.617  0.2329 -0.0823 -0.0173
14377W        W33911   4.414   2.996  16.171  0.2768 -0.0338  0.1795
14378W        W33912   9.468   9.698  14.910 -0.2898 -0.2582  0.1405
14379W        W33913  12.952   6.525   3.588 -0.0142  0.1105  0.1378
14380W        W33914  13.155  17.219   1.951 -0.0793  0.4071  0.2887
14381W        W33915   3.546  11.237   4.063  0.1131 -0.1286 -0.2815
14382W        W33916   1.169   9.241   3.715 -0.0031 -0.1111 -0.0641
14383W        W33917   7.405   9.098  14.315 -0.1761  0.0585  0.0462
14384W        W33918  16.821  13.887  13.629 -0.1693  0.0140  0.3538
14385W        W33919   3.488   8.986  12.764  0.0816  0.1577 -0.0314
14386W        W33920  17.309  14.438  12.956  0.0082  0.1942  0.0778
14387W        W33921   5.844  12.370   4.155  0.1416 -0.1848 -0.1054
14388W        W33922   3.214  17.159   0.683 -0.2126  0.1783 -0.0072
14389W        W33923   6.869   9.584   1.357  0.2594 -0.2020  0.2262
14390W        W33924  12.087   5.742  15.460  0.1071  0.1767 -0.2310
14391W        W33925   4.458   6.553  12.594 -0.1896  0.0068  0.0162
14392W        W33926   3.636   2.762   2.683 -0.1995  0.0852 -0.1483
14393W        W33927   8.877  13.879  15.411 -0.1806 -0.0642  0.0305
14394W        W33928   8.023   5.252  14.981  0.0572 -0.1317  0.1522
14395W        W33929   2.073   9.203  13.426  0.1536  0.0112  0.1111
14396W        W33930   2.451   7.276  13.044 -0.0203  0.0304  0.2875
14397W        W33931  10.226  13.082  15.164 -0.0481 -0.2556  0.1318
14398W        W33932   5.909   1.220  12.182 -0.2790  0.2645  0.1052
14399W        W33933   6.992  14.706   0.783  0.2941 -0.0208 -0.0266
14400W        W33934  12.275  10.864  15.749  0.0427  0.3255  0.2659
14401W        W33935   7.408  15.350   2.078  0.1002  0.1470  0.0479
14402W        W33936   3.825   8.052   4.439 -0.0533  0.0813 -0.1117
14403W        W33937   2.857  15.643   3.999  0.3761  0.4241 -0.2353
14404W        W33938   0.165  12.235   1.107  0.1407  0.2543  0.1704
14405W        W33939  15.249   7.478  12.266  0.0300  0.2402  0.1289
14406W        W33940  15.507   1.980  14.154 -0.2029 -0.1371  0.1623
14407W        W33941  12.348   0.741  16.887 -0.1508  0.3129 -0.0825
14408W        W33942  10.104   5.123  16.711 -0.1728  0.3434 -0.1811
14409W        W33943   0.961  10.400   2.513  0.3817  0.0482  0.1554
14410W        W33944   7.870  11.127  16.856 -0.4850  0.0422  0.1587
14411W        W33945  13.445  15.052  14.450  0.0439 -0.1302  0.0532
14412W        W33946  16.215   8.579  13.721  0.0406 -0.1177  0.1050
14413W        W33947  15.515   3.131   4.948  0.1882 -0.1331 -0.1839
14414W        W33948   5.733  10.272   2.356 -0.2135  0.1706 -0.1654
14415W        W33949  12.580   8.371  16.366 -0.1877  0.0043 -0.1483
14416W        W33950   2.373  10.921  12.561  0.0196  0.0636  0.4663
14417W        W33951  15.025  11.550  14.094 -0.0564  0.2999  0.0437
14418W        W33952   3.434   2.711  16.312 -0.1538  0.1369  0.0536
14419W        W33953  16.520   2.938   4.088 -0.2255  0.0500 -0.0311
14420W        W33954  12.477  11.232  16.705  0.2909 -0.1603  0.0945
14421W        W33955  17.106   2.307  16.174 -0.5333 -0.1359 -0.1795
14422W        W33956  13.722   5.174   0.882  0.0497  0.0032 -0.2294
14423W        W33957  16.095   1.780  12.566 -0.1565  0.0516 -0.0542
14424W        W33958   2.922   6.330  17.284 -0.0134 -0.0060 -0.2475
14425W        W33959  16.368  10.811  16.864 -0.0444  0.1653 -0.1900
14426W        W33960   4.990  10.136   3.421  0.0626 -0.3297 -0.3203
14427W        W33961   4.007   5.466  13.095  0.0213  0.2632 -0.0535
14428W        W33962  12.458   9.021   1.332 -0.0616 -0.1095 -0.0856
14429W        W33963   2.978   3.649  13.475 -0.2038  0.0180  0.0847
14430W        W33964   0.691  10.742   4.488 -0.2836 -0.1693 -0.4166
14431W        W33965   6.202   0.586   0.095  0.0147  0.0597 -0.0324
14432W        W33966  11.479  11.023   4.108  0.0892 -0.0322 -0.1396
14433W        W33967   6.029   9.868   4.652 -0.0692  0.1772 -0.0421
14434W        W33968   5.593  12.412   3.054 -0.1494 -0.0811 -0.4461
14435W        W33969   7.573  15.226   1.236 -0.2848  0.1780 -0.1449
14436W        W33970   6.874  13.149  13.785 -0.0211 -0.0092 -0.2110
14437W        W33971  15.438   1.178   5.957  0.1407  0.0554  0.3559
14438W        W33972  13.552  13.388   3.474 -0.1999 -0.1276  0.1792
14439W        W33973  12.910   3.427  12.697  0.1789 -0.2344 -0.0462
14440W        W33974   1.040   1.822  14.913 -0.0569 -0.1917  0.0328
14441W        W33975  12.316  17.181  14.801  0.0402  0.0304 -0.2147
14442W        W33976  13.570  16.798  13.073 -0.2964  0.0666  0.0305
14443W        W33977  11.281   0.307   3.623  0.1845  0.0965  0.0699
14444W        W33978  16.726  16.429   3.984  0.0782 -0.1544 -0.1229
14445W        W33979   9.228   3.880   4.308 -0.2970 -0.1829 -0.2461
14446W        W33980   0.178   2.557  13.657 -0.1602 -0.0593  0.1311
14447W        W33981   4.096  10.926  16.027 -0.1865  0.0125 -0.1460
14448W        W33982  11.720   5.999  16.748  0.0815 -0.1058 -0.0660
14449W        W33983  11.284   9.022  14.209 -0.2627  0.2747  0.1309
14450W        W33984   2.053   0.374  13.655  0.2206 -0.0301 -0.2614
14451W        W33985  12.496   6.813   3.397  0.0747 -0.1284 -0.1911
14452W        W33986   7.627  12.420  16.994 -0.1790  0.1488 -0.1256
14453W        W33987  11.547  10.197   6.380  0.0205  0.2768  0.0329
14454W        W33988  12.140   6.412   2.231  0.0603 -0.4694 -0.0179
14455W        W33989   5.257  13.154  14.430 -0.0375 -0.2058  0.1248
14456W        W33990  15.853   4.572   4.323  0.0657 -0.5283  0.1437
14457W        W33991   1.227  12.710   0.420 -0.2160 -0.1720  0.3276
14458W        W33992  14.696  13.057   1.088 -0.0320 -0.1609 -0.0251
14459W        W33993  12.535   3.392   4.134  0.5315  0.0552 -0.1891
14460W        W33994   3.945  11.490   4.688  0.2047  0.1888 -0.0181
14461W        W33995   1.178   8.262   4.951 -0.1158 -0.0542  0.0407
14462W        W33996  15.377  13.573  13.488  0.2541  0.2360 -0.0727
14463W        W33997  15.280  16.576   1.619  0.0279  0.1036 -0.1746
14464W        W33998  10.743   3.550  15.600  0.0045 -0.1926  0.0925
14465W        W33999   1.513   7.640   4.278  0.2445 -0.2954 -0.0735
14466W        W34000   8.662  13.747  16.898 -0.3512 -0.0205  0.1965
14467W        W34001  15.698  16.458  16.482 -0.0754  0.0947  0.2234
14468W        W34002   7.291   8.373   4.496  0.2260  0.0929 -0.1392
14469W        W34003  14.307  15.192   4.667 -0.5263  0.2055  0.2929
14470W        W34004  13.195   1.433   4.663 -0.1111  0.0270 -0.0524
14471W        W34005  12.480   1.847  15.147  0.2201 -0.3787  0.0020
14472W        W34006   4.341  15.602   4.713 -0.3340 -0.1898  0.1397
14473W        W34007  16.174   2.956  16.341 -0.3299 -0.0212 -0.2197
14474W        W34008   8.735   2.489   5.607  0.0929 -0.0065 -0.0840
14475W        W34009   9.045  15.980   4.712 -0.1915 -0.0973  0.0777
14476W        W34010   0.056  17.138  12.381  0.1260  0.0956 -0.0274
14477W        W34011  10.943   7.613   1.178 -0.1355  0.2884  0.1867
14478W        W34012   1.501   7.556   3.801  0.2150  0.0767  0.0885
14479W        W34013   6.308   2.946  13.921  0.1489 -0.0237 -0.0796
14480W        W34014   8.620  16.958   1.356  0.2099 -0.0780 -0.0770
14481W        W34015  10.289  15.745   3.286  0.1018  0.1186 -0.2482
14482W        W34016  12.847  15.294   2.355  0.0495 -0.1199 -0.0147
14483W        W34017  13.371  11.256   0.924  0.1688 -0.0904 -0.4084
14484W        W34018   9.924  17.084  15.989 -0.0544 -0.0644 -0.0415
14485W        W34019   9.198  13.093   0.229  0.2575  0.1247  0.1652
14486W        W34020  16.210   8.767  14.665  0.2101 -0.0743 -0.1457
14487W        W34021   2.688  11.458   3.445 -0.1006 -0.0084  0.0693
14488W        W34022   3.442  15.702  16.149 -0.0873  0.1740 -0.3053
14489W        W34023   4.473   9.319   4.785 -0.2445  0.0397  0.1146
14490W        W34024   0.673   0.429   0.280 -0.0773 -0.0363 -0.0730
14491W        W34025   7.349   0.565  13.435 -0.0799  0.0900 -0.1442
14492W        W34026   9.139   8.435   3.885 -0.0752 -0.0950 -0.2655
14493W        W34027   1.303   1.412   2.146  0.0264  0.3088  0.0840
14494W        W34028   8.109   6.941   1.471  0.0520  0.2997 -0.0791
14495W        W34029  11.790  10.746  12.714  0.1723  0.2144  0.1564
14496W        W34030  15.403  12.318  13.882 -0.0308 -0.2692 -0.1612
14497W        W34031   9.986  16.232   5.422 -0.3917 -0.1314  0.0794
14498W        W34032  12.140   5.626   4.997 -0.1071  0.0464 -0.0049
14499W        W34033  11.161   1.563   2.685 -0.2670 -0.1113 -0.3360
14500W        W34034   3.068   2.966  14.040  0.1137 -0.0040  0.1718
14501W        W34035  11.211  17.055   4.149 -0.0934 -0.0881  0.0917
14502W        W34036   2.775  10.602  12.498  0.0388  0.0406  0.1525
14503W        W34037   2.196  14.308   3.563 -0.1492  0.0264 -0.0476
14504W        W34038  15.524   9.591   0.919 -0.2247 -0.2316 -0.1430
14505W        W34039   6.626  12.040   4.561  0.1864 -0.0560  0.0996
14506W        W34040   5.459  17.133   3.347 -0.3040 -0.3484  0.1979
14507W        W34041   3.641  17.017  14.916 -0.0332  0.0483  0.0695
14508W        W34042   8.069   3.145  15.414  0.0201 -0.0406  0.0188
14509W        W34043   8.304  17.016   1.712 -0.1856 -0.0284 -0.1524
14510W        W34044  15.135  10.159  14.162 -0.1479 -0.1868  0.0195
14511W        W34045  14.310   5.861   2.674 -0.1677  0.0032 -0.1069
14512W        W34046  12.511   3.986   3.376 -0.2736  0.1585 -0.2944
14513W        W34047   9.081  17.030  16.788 -0.0775 -0.1516  0.1536
14514W        W34048   5.590   0.964  16.297  0.0070 -0.1167 -0.0608
14515W        W34049  13.475   1.943  15.962 -0.0078  0.2581  0.2182
14516W        W34050   0.095   4.393   5.074 -0.2758 -0.0462  0.0936
14517W        W34051  10.177   1.669  15.689  0.1248  0.1926 -0.3950
14518W        W34052  15.448  14.993  12.263  0.3397 -0.2810 -0.0957
14519W        W34053   1.571  15.037   0.340  0.0568 -0.1888  0.2116
14520W        W34054   1.857   6.524  13.414  0.0040  0.1487 -0.1549
14521W        W34055   2.477  17.148  14.905  0.0289 -0.3991  0.1569
14522W        W34056  17.253   3.539   3.334  0.0448 -0.1294  0.0878
14523W        W34057   1.103   6.391   2.240 -0.0777 -0.0720  0.1017
14524W        W34058   1.582   5.865   4.296 -0.2135 -0.1256 -0.1584
14525W        W34059  14.981   2.740   0.279 -0.0990  0.2029  0.0532
14526W        W34060   4.509   2.409  16.037  0.4037 -0.1206 -0.1974
14527W        W34061   2.160   7.834   5.299  0.1049  0.0935  0.3227
14528W        W34062   8.251  12.271   0.343 -0.2495  0.2688 -0.2268
14529W        W34063   7.665   0.281  13.690  0.1054 -0.0655  0.4643
14530W        W34064  10.763   2.928   0.758 -0.1060 -0.2820  0.1496
14531W        W34065   0.410  16.802  14.533 -0.1404  0.2001 -0.4948
14532W        W34066   1.856   3.773   2.840  0.1836  0.1348 -0.0549
14533W        W34067   1.916  15.092  16.782  0.2969 -0.1546 -0.0085
14534W        W34068   5.082   8.818   2.037  0.0725  0.0401  0.0888
14535W        W34069   3.648   7.196   4.183  0.0607 -0.2263 -0.0406
14536W        W34070   0.673   7.123   2.817  0.5466  0.1689  0.1961
14537W        W34071  12.435  15.791   5.063 -0.1332 -0.0618  0.0552
14538W        W34072  12.838   4.883  14.970 -0.1340 -0.0311  0.0803
14539W        W34073  11.304  16.250  15.594 -0.3621  0.1863 -0.1699
14540W        W34074   5.204   7.148  16.253 -0.2549  0.0704 -0.3634
14541W        W34075   8.980  13.922  12.545 -0.1569 -0.0779 -0.1119
14542W        W34076  13.940   8.323   2.928  0.0995  0.0122 -0.1331
14543W        W34077   9.724   1.766   1.151  0.0994  0.3188  0.3231
14544W        W34078   8.418  13.174   1.477 -0.1003  0.1573 -0.2411
14545W        W34079   2.046   1.583   1.032 -0.0760  0.0318 -0.1011
14546W        W34080  13.389  12.095  14.783 -0.2719 -0.1695 -0.0668
14547W        W34081   6.836   2.972  14.148 -0.1498 -0.1719  0.0115
14548W        W34082  14.955   1.619  14.157 -0.2109  0.2167  0.1657
14549W        W34083   0.153   9.807   4.852  0.0692  0.3047  0.0354
14550W        W34084   5.385   0.657  15.218 -0.0126 -0.1245  0.3308
14551W        W34085   7.272  16.048  15.136  0.1800  0.1517  0.1577
14552W        W34086  11.999  14.595   2.652  0.2639  0.0255  0.0335
14553W        W34087   7.385  10.395   1.222 -0.2555 -0.0133  0.1481
14554W        W34088  14.326   9.733   1.986  0.0748  0.1095  0.1009
14555W        W34089   9.748   9.207   3.475 -0.2149  0.1618  0.0450
14556W        W34090   8.921   0.842  12.346  0.0749  0.4011 -0.2391
14557W        W34091  14.840   9.600  13.320  0.2502  0.1209 -0.1671
14558W        W34092  10.314   3.196  12.944 -0.1945  0.0792 -0.0523
14559W        W34093  14.583   1.999  15.010 -0.1049 -0.2262 -0.1645
14560W        W34094  13.604   3.009   1.648  0.0959  0.1336 -0.2665
14561W        W34095   4.992  14.840  16.321 -0.0086  0.3709  0.0585
14562W        W34096  14.526  12.016   3.231  0.0693  0.0372  0.1422
14563W        W34097   8.729   8.899   5.503  0.3046  0.0546  0.0017
14564W        W34098  13.240  10.337  12.396  0.0860  0.2014  0.2828
14565W        W34099   5.159   4.632   3.611  0.0378  0.0647 -0.0927
14566W        W34100   8.454  11.121  13.367 -0.2969 -0.1025  0.0706
14567W        W34101  16.580   9.664   0.449  0.0276 -0.0361 -0.2255
14568W        W34102  15.556   6.697  13.863  0.0471 -0.0407  0.1987
14569W        W34103   7.241   6.406  12.697  0.2526 -0.1648 -0.1814
14570W        W34104  12.259   5.095   2.826  0.0126 -0.0535  0.0816
14571W        W34105   3.064  13.408  15.045  0.1153 -0.2692  0.2319
14572W        W34106   6.250   4.857   1.422  0.2282  0.0751 -0.3097
14573W        W34107  15.397   2.980   0.081  0.0993 -0.0028  0.0312
14574W        W34108   7.295   6.451  17.068 -0.4130 -0.1997  0.1547
14575W        W34109   8.914   6.532  16.287  0.0096 -0.0405  0.1766
14576W        W34110   8.853   7.115   4.604  0.0561  0.2947  0.0068
14577W        W34111   7.727  16.846  15.309  0.0013  0.0394 -0.0882
14578W        W34112   7.890  12.085   0.090 -0.0975  0.3243 -0.1581
14579W        W34113   2.925   2.926   0.467 -0.2365 -0.0325 -0.0587
14580W        W34114   6.042  11.167  16.565 -0.1180 -0.2499 -0.3392
14581W        W34115   1.890   6.391  11.443  0.1121  0.0374 -0.1657
14582W        W34116   8.842   9.946  14.716  0.2514  0.2679  0.2175
14583W        W34117  16.697   3.195   1.276  0.2055 -0.0427 -0.1814
14584W        W34118  12.990  10.843   4.853  0.0473  0.0494 -0.2150
14585W        W34119   5.375   2.753   1.608  0.0290  0.0363 -0.0202
14586W        W34120  11.366   8.641  16.617  0.1317 -0.1153  0.0607
14587W        W34121  11.619  14.428   2.407 -0.1182  0.1537  0.0565
14588W        W34122  10.466   3.357   4.330  0.0359  0.1622 -0.0652
14589W        W34123  13.329  11.694  16.772  0.1911 -0.0397 -0.1730
14590W        W34124   8.901  16.240  13.117  0.0589 -0.1654 -0.3769
14591W        W34125  10.050   9.500   0.968  0.0003  0.1336 -0.2480
14592W        W34126   8.244   7.428  14.207  0.2666 -0.2368 -0.3175
14593W        W34127   9.415   0.618   4.587  0.5151 -0.2005 -0.1936
14594W        W34128   3.143  14.347  12.278 -0.0833  0.4574 -0.1897
14595W        W34129   9.136  16.889  14.614 -0.1761 -0.0143 -0.2995
14596W        W34130   1.796   2.736  16.179  0.0461 -0.0043  0.1746
14597W        W34131   3.742   2.243  13.014  0.1039 -0.0648 -0.2397
14598W        W34132  14.788   9.874   1.308 -0.1409  0.0128  0.0341
14599W        W34133   7.599  13.216  16.261 -0.0481 -0.0049  0.3049
14600W        W34134  16.345  15.804  16.172 -0.1387  0.4667 -0.1515
14601W        W34135   3.773   5.981  14.469 -0.0923 -0.0974  0.3627
14602W        W34136   5.731   2.347   3.103  0.0479  0.0524 -0.0155
14603W        W34137   5.715   5.963  16.267  0.0097  0.1470 -0.0862
14604W        W34138  10.286  14.902   0.663  0.0292 -0.2356 -0.0121
14605W        W34139  15.195   4.492   3.235 -0.2105  0.0487 -0.0347
14606W        W34140   1.191  15.996   0.725  0.1569  0.2443 -0.0619
14607W        W34141  12.393  12.939   0.371  0.0193  0.0894 -0.0404
14608W        W34142  11.336   6.288   4.986 -0.2880  0.1174 -0.0193
14609W        W34143  11.765   3.114  13.917 -0.1042  0.1492 -0.0183
14610W        W34144   9.351   3.368   5.607  0.2426 -0.0785 -0.3037
14611W        W34145  11.313   6.919   2.568 -0.3198  0.3258 -0.0368
14612W        W34146   2.452  11.769   2.185 -0.0085  0.1114 -0.1087
14613W        W34147   1.259  17.351  13.555 -0.2235  0.1968  0.0290
14614W        W34148  13.181   8.774   4.571  0.1161 -0.0878 -0.4036
14615W        W34149   4.506   3.702   4.532 -0.0488 -0.1725 -0.0694
14616W        W34150   6.599   3.723  14.778  0.1182  0.0816 -0.0787
14617W        W34151   4.174  12.630  15.272  0.0071 -0.0955  0.1186
14618W        W34152  13.897  13.134   6.076  0.2477  0.1007 -0.2316
14619W        W34153  12.336   4.347   4.148 -0.3334 -0.0476  0.2715
14620W        W34154   6.409   9.198  16.733  0.2598 -0.1419 -0.1775
14621W        W34155  12.675   1.101   3.968  0.2293  0.1897 -0.2530
14622W        W34156  14.893  17.201  14.561  0.0643 -0.0948 -0.0366
14623W        W34157   8.471   9.939   1.173  0.0875 -0.0618 -0.1248
14624W        W34158   4.826   2.099   3.532 -0.1033 -0.1022  0.0238
14625W        W34159   4.894   4.574   1.547 -0.3729  0.1782  0.2128
14626W        W34160   7.666  14.098  12.394 -0.3441  0.2803  0.0358
14627W        W34161   1.101   2.165  12.908 -0.2081  0.0667 -0.3653
14628W        W34162   4.805   8.472   3.714 -0.0343 -0.2853 -0.0541
14629W        W34163  15.097  12.236  12.294  0.0687 -0.0988  0.1688
14630W        W34164   8.833  16.267   0.236  0.0310  0.0619  0.0841
14631W        W34165   6.681   5.207   3.199  0.3565 -0.0597  0.0755
14632W        W34166  13.680  14.336  15.276  0.4701  0.1293  0.1573
14633W        W34167  16.435  14.220   1.920  0.0723  0.1405  0.1364
14634W        W34168   6.819  13.254  16.085 -0.1904  0.2237  0.1172
14635W        W34169  14.655  16.928   4.492 -0.2834 -0.0128  0.2706
14636W        W34170   8.152   5.830   0.713  0.0068 -0.3260  0.1690
14637W        W34171  14.354   9.541   1.438 -0.0221  0.3103  0.1529
14638W        W34172  13.153   1.433   1.276 -0.0523  0.0833  0.2830
14639W        W34173  14.531   7.965   3.741  0.0519 -0.1274  0.0724
14640W        W34174   6.661   9.001   3.869  0.1397  0.1395  0.0366
14641W        W34175   4.985  16.601  15.747 -0.1894  0.1228 -0.1640
14642W        W34176   5.028   6.613  13.631  0.1442  0.0639 -0.2568
14643W        W34177   9.090  12.657   0.054 -0.1597 -0.2266  0.2545
14644W        W34178   6.357   1.388  11.997  0.2918 -0.1513 -0.1236
14645W        W34179  15.394  12.242   0.975  0.2508 -0.1052 -0.3920
14646W        W34180  13.132  13.104  12.384 -0.4470  0.0843 -0.0362
14647W        W34181  13.241   6.768   4.793  0.0852  0.3167 -0.3400
14648W        W34182  17.404   0.874   4.283  0.0411  0.0741  0.0023
14649W        W34183   9.535  15.605  12.814 -0.1027 -0.0066  0.2029
14650W        W34184  10.685   0.487   4.916  0.1500  0.1065 -0.2254
14651W        W34185  11.594   3.298   1.218  0.0389 -0.0020 -0.0246
14652W        W34186  12.299   9.946   2.488 -0.1051 -0.3275  0.1735
14653W        W34187  10.610   0.744  17.150 -0.2565 -0.2104  0.0109
14654W        W34188   1.787  10.289  15.323 -0.0786  0.0677 -0.0238
14655W        W34189  10.898  16.600  13.252 -0.2804 -0.3363 -0.0788
14656W        W34190   8.047   9.901   2.927 -0.0598 -0.3954 -0.1907
14657W        W34191  16.851  13.785   0.351 -0.0119  0.2666  0.0762
14658W        W34192   9.568   0.343   2.843 -0.0344  0.2701 -0.0664
14659W        W34193  14.031  16.261  14.994  0.1432 -0.1594  0.1020
14660W        W34194   1.142  10.975   0.757 -0.0625 -0.0712 -0.1662
14661W        W34195   5.308  15.728  14.947 -0.0537 -0.4138  0.1819
14662W        W34196   9.171  15.255  11.978 -0.0195  0.2489 -0.3353
14663W        W34197   9.718  16.956   0.934 -0.3288  0.0569 -0.3562
14664W        W34198  14.893  10.795  12.273  0.1768  0.0641 -0.0543
14665W        W34199  14.521   7.620  14.064  0.3438  0.1736  0.1037
14666W        W34200  16.073   9.549   1.634 -0.2054  0.2304 -0.1377
14667W        W34201  10.473   4.755   4.588 -0.0540  0.1311 -0.0824
14668W        W34202   2.391  13.894   3.371  0.2194 -0.2026  0.1489
14669W        W34203   2.660  17.045   2.860 -0.2024 -0.1126  0.3470
14670W        W34204   5.731   2.678  12.718 -0.2062  0.0851  0.1287
14671W        W34205  16.750  12.473   2.235  0.2757 -0.3423  0.0648
14672W        W34206   2.164   8.499   4.240 -0.0762  0.3839  0.1625
14673W        W34207   2.953   2.179   1.563 -0.2954 -0.0567 -0.2397
14674W        W34208   3.116   0.209   2.423  0.1514  0.1162  0.1512
14675W        W34209   5.286   7.949  13.827 -0.0044 -0.1914  0.1141
14676W        W34210   0.610   5.932   4.806  0.0933  0.0733 -0.0175
14677W        W34211  10.298  15.036  13.606  0.2146  0.3514  0.1652
14678W        W34212   3.393   8.772   0.750 -0.0401 -0.0473 -0.0126
14679W        W34213  14.482   6.247  12.617  0.0398  0.2972 -0.1749
14680W        W34214   3.965   3.933  16.872  0.5532 -0.1775 -0.0451
14681W        W34215  16.673  14.694   3.838  0.1922  0.0128 -0.0051
14682W        W34216  12.500  10.936   4.728  0.0991  0.0268  0.0673
14683W        W34217   2.156  11.977   3.563 -0.1271 -0.1512  0.0359
14684W        W34218   5.198   2.568  12.947 -0.2125 -0.0918 -0.0668
14685W        W34219  11.276  10.622  14.569 -0.4578  0.4026 -0.1705
14686W        W34220  15.371  15.744   1.493 -0.0220 -0.1288 -0.0471
14687W        W34221   3.582  10.730   1.255  0.1575  0.2753 -0.0067
14688W        W34222   1.998   5.258   1.845 -0.1895  0.1114 -0.0454
14689W        W34223   2.682   4.846  16.564 -0.1085  0.2831 -0.1595
14690W        W34224   8.937   2.088   3.881  0.0120 -0.1778 -0.2694
14691W        W34225   4.106   2.666   3.762  0.0182 -0.3470  0.0557
14692W        W34226  15.573   3.707  16.934  0.3222 -0.3617 -0.1347
14693W        W34227   0.166   1.296   0.445 -0.0292 -0.1746 -0.2762
14694W        W34228   6.503   3.743  12.776 -0.1508  0.3272 -0.1035
14695W        W34229  16.637   1.474   2.953 -0.0210  0.1272 -0.3611
14696W        W34230  12.453   2.516   3.813 -0.2004  0.0446  0.1039
14697W        W34231   9.516   7.564   2.184 -0.0575  0.0312  0.0199
14698W        W34232  17.172   9.505  14.035  0.1394  0.1929 -0.2358
14699W        W34233  12.149   8.851   4.284 -0.0915  0.0428 -0.2730
14700W        W34234  11.146  17.288   4.668 -0.1329 -0.1682 -0.2621
14701W        W34235   0.984   1.400  15.232  0.0877 -0.1694 -0.0738
14702W        W34236   4.441  14.802   4.795 -0.0779 -0.2077  0.3319
14703W        W34237   4.323   7.234  13.297 -0.1128 -0.1936 -0.1180
14704W        W34238  15.301  10.330  16.222 -0.2594 -0.0138 -0.0923
14705W        W34239   6.539   4.701   4.999 -0.0326  0.1565 -0.1076
14706W        W34240   1.727   1.556  16.482  0.2294  0.0256  0.0696
14707W        W34241  13.894   1.845  16.888 -0.1368 -0.2911  0.2151
14708W        W34242   6.382  17.407  15.372 -0.0837 -0.1848 -0.2911
14709W        W34243   3.265   2.724   5.830  0.2019  0.0449 -0.2235
14710W        W34244  12.688   1.097  13.530 -0.0177  0.5201 -0.4645
14711W        W34245   8.927  11.494   2.794 -0.1628  0.4510  0.0994
14712W        W34246  14.165  13.922  16.523  0.1224  0.1498 -0.1014
14713W        W34247   6.124   7.084  14.605 -0.1570  0.0689 -0.2549
14714W        W34248  12.556   3.040  17.249  0.0677 -0.1489 -0.2418
14715W        W34249   4.756  13.721   1.246 -0.2706  0.0162  0.3128
14716W        W34250   6.957   3.665  13.077  0.0833 -0.1600  0.0132
14717W        W34251   9.416  16.451  14.323 -0.1757  0.3026 -0.2273
14718W        W34252   4.203   9.718   3.037 -0.0355  0.2840  0.0895
14719W        W34253   6.739   5.218  15.505 -0.2069 -0.3665 -0.0977
14720W        W34254   2.208  10.762  15.395  0.4194  0.0089  0.0357
14721W        W34255   4.981  10.938   2.862  0.2283  0.1503  0.1689
14722W        W34256   7.493  11.483  16.877  0.0031  0.0521 -0.0863
14723W        W34257  15.125  15.135   4.335  0.1058 -0.1172  0.3862
14724W        W34258  16.744   9.986   4.874 -0.0881  0.0221  0.1640
14725W        W34259   8.521   9.413  16.710  0.0364 -0.2119  0.0192
14726W        W34260   3.268  15.019   5.295 -0.3153 -0.0566 -0.0428
14727W        W34261   4.243  11.843   0.055  0.2031  0.1231  0.0521
14728W        W34262  11.425   7.615  13.557  0.0654 -0.0894 -0.0132
14729W        W34263  16.795   9.272  16.780  0.0384 -0.1861  0.0069
14730W        W34264  10.203   9.727  12.893  0.0329  0.0149  0.1831
14731W        W34265  13.731   3.614   2.871 -0.4359  0.0886 -0.1626
14732W        W34266  13.693  11.345  12.126 -0.0100 -0.3111 -0.0449
14733W        W34267   7.759   7.184  17.014  0.2875 -0.2210  0.1535
14734W        W34268   8.130  13.536   0.487 -0.2369  0.1528  0.0266
14735W        W34269  15.570  17.440  12.136  0.2049 -0.2470  0.0543
14736W        W34270  13.046  13.564  12.294 -0.1746 -0.0065 -0.2867
14737W        W34271   2.510  15.211   5.152  0.1262 -0.7794 -0.4564
14738W        W34272   7.962  11.365   0.480  0.2395  0.0800 -0.1747
14739W        W34273  16.944   5.946   0.988 -0.0609  0.0964 -0.1711
14740W        W34274  12.272   1.585   2.377 -0.2229  0.0734 -0.1100
14741W        W34275  16.188   5.717   2.014 -0.1542  0.4340 -0.1036
14742W        W34276   7.747  11.491   1.845  0.0345 -0.1169  0.3087
14743W        W34277   8.835  10.757  14.192  0.1508 -0.1686  0.1322
14744W        W34278   3.192   5.760   2.669 -0.0153 -0.0258 -0.3825
14745W        W34279   5.970  12.666   0.073 -0.2408  0.0601 -0.1997
14746W        W34280  11.363   8.892   0.491  0.0609  0.0331  0.3509
14747W        W34281  16.003   7.265  12.359 -0.2345 -0.0564  0.1710
14748W        W34282   4.971   8.835  16.652  0.2146 -0.1099 -0.1935
14749W        W34283   6.006   6.133  17.054  0.0627  0.0980 -0.0186
14750W        W34284   1.653  13.310   4.876 -0.3823 -0.1320 -0.2987
14751W        W34285   4.937   6.672  12.442  0.0138  0.1804  0.1087
14752W        W34286   1.580   0.438   4.704 -0.0882 -0.2406  0.0786
14753W        W34287   9.945  12.689   3.726 -0.0992  0.0760  0.1454
14754W        W34288   1.559   4.830  15.138  0.0381  0.0553  0.0499
14755W        W34289  11.622   3.420  13.005  0.0856  0.0211 -0.0391
14756W        W34290  12.845   0.263   0.067 -0.2782  0.2437 -0.1525
14757W        W34291   6.075   7.276  15.264 -0.1476  0.3427 -0.1950
14758W        W34292   5.892   7.097   2.074 -0.1035 -0.4304 -0.1921
14759W        W34293   1.415   5.549   3.759 -0.2730  0.2898  0.0608
14760W        W34294   4.600  10.535  17.014 -0.0659  0.0780 -0.2772
14761W        W34295   1.709   4.662  13.265 -0.2645  0.1203 -0.0323
14762W        W34296  16.931  11.463  13.430  0.0534 -0.1127 -0.1020
14763W        W34297   0.892   4.300   0.849  0.0137 -0.0720 -0.3361
14764W        W34298   3.033  11.291   3.907  0.0043  0.1018 -0.0585
14765W        W34299  14.818   5.042  14.127  0.0429  0.0537 -0.0057
14766W        W34300   8.608  14.930   2.828 -0.2773 -0.1347  0.2064
14767W        W34301  12.834   2.512   2.701 -0.0227  0.1630 -0.0093
14768W        W34302   4.430  13.661  15.296 -0.0878  0.2470  0.0671
14769W        W34303  15.920   6.575  14.245 -0.1409 -0.0838 -0.0451
14770W        W34304   2.482   1.324   0.839  0.3798 -0.2975 -0.2049
14771W        W34305   7.031  11.307   2.866 -0.3791 -0.3664  0.0521
14772W        W34306  12.659   6.121   1.667 -0.1395 -0.1071 -0.1175
14773W        W34307   2.728  12.276  16.306  0.0683  0.2726 -0.0365
14774W        W34308   9.778  10.285  15.917  0.0248  0.0089  0.0566
14775W        W34309   1.472  10.069   4.491  0.1401  0.1907 -0.0406
14776W        W34310  13.545   7.220   4.577 -0.0004 -0.1788  0.1486
14777W        W34311  17.369  10.245   4.902  0.1391 -0.3686  0.1437
14778W        W34312   9.772   1.884   0.270  0.0178 -0.0132 -0.1041
14779W        W34313   4.936  12.614   0.810  0.1463  0.0611  0.0909
14780W        W34314  13.802   5.268   2.234  0.1996 -0.1241  0.0480
14781W        W34315   5.675   4.503  12.090  0.2715  0.2406 -0.0190
14782W        W34316   5.223   5.122  16.891 -0.0138 -0.1557  0.2722
14783W        W34317   7.232   0.709   3.601  0.2197 -0.1457  0.2029
14784W        W34318  11.303  15.882   4.791 -0.2482 -0.2946  0.1105
14785W        W34319  15.234   3.791  16.610 -0.0793 -0.2326 -0.0046
14786W        W34320  17.267  14.680   2.767 -0.0563 -0.0873  0.4212
14787W        W34321  12.105  16.866  17.207  0.2218  0.0298  0.1622
14788W        W34322  11.226   7.025   2.090 -0.0872 -0.2195 -0.3004
14789W        W34323   3.034  14.505   1.311  0.1495 -0.0184 -0.1203
14790W        W34324   3.851   8.570  15.616 -0.0514  0.0936  0.1044
14791W        W34325  14.995   3.388   4.090  0.0521 -0.1812  0.0794
14792W        W34326   1.604  13.224   3.507 -0.2367 -0.0278  0.0640
14793W        W34327   5.559  16.036   3.595 -0.1408 -0.1019 -0.1531
14794W        W34328   6.573   1.234  15.170 -0.1152  0.1268 -0.2317
14795W        W34329  10.946  15.857   0.115 -0.0203  0.0615 -0.2332
14796W        W34330   1.440   7.328  14.094 -0.0963  0.0579  0.3790
14797W        W34331   2.915  14.936   1.065 -0.0735 -0.1337 -0.1603
14798W        W34332   3.205  13.860   3.971  0.4120  0.0886  0.2660
14799W        W34333   4.480   2.779  13.223 -0.1682 -0.3643  0.1910
14800W        W34334   0.193  10.429  16.247  0.0379 -0.1816  0.1138
14801W        W34335   5.886   5.136   3.248 -0.2982  0.1637  0.1229
14802W        W34336  13.722   3.106  17.038  0.0137  0.0042 -0.0279
14803W        W34337  14.509  11.837   4.167  0.0928  0.2864 -0.2212
14804W        W34338  15.758   5.126   2.382  0.0250 -0.1814  0.4941
14805W        W34339  17.091   2.689   2.732  0.1226 -0.0394 -0.0529
14806W        W34340   2.368  16.235  16.474 -0.2163  0.1329  0.0152
14807W        W34341   2.852   5.575  14.766 -0.0026 -0.1524 -0.2234
14808W        W34342  16.214  11.732   3.503 -0.3067  0.0093 -0.4139
14809W        W34343  11.486   2.585   2.642 -0.3112  0.1522  0.3096
14810W        W34344  12.325   7.042  14.002 -0.2280  0.0749  0.1861
14811W        W34345  13.205  12.223   3.657 -0.3422 -0.1638 -0.1908
14812W        W34346   1.418   8.011   1.095  0.1055 -0.0132  0.1878
14813W        W34347  13.521   6.618  13.461  0.1996 -0.2533  0.2836
14814W        W34348   1.548   8.652  14.021 -0.0800 -0.2558 -0.3253
14815W        W34349  16.114   2.403   0.224  0.3103 -0.0176 -0.0783
14816W        W34350   1.390   4.781   4.585 -0.1199 -0.0401  0.1821
14817W        W34351   1.929   7.827   3.816 -0.2395 -0.3042 -0.0824
14818W        W34352   5.055   5.832  15.654  0.0209 -0.1797 -0.1285
14819W        W34353   1.175   6.815  12.930  0.2207 -0.1127 -0.0066
14820W        W34354  14.470   6.007   0.248  0.0746 -0.2467 -0.3667
14821W        W34355   2.603   6.932   2.872  0.2967 -0.0503  0.1348
14822W        W34356  13.999  16.445   3.907 -0.1372  0.1794 -0.1961
14823W        W34357   4.295   8.422  14.625 -0.1824 -0.2304 -0.0123
14824W        W34358  14.938   7.696   0.699 -0.0057  0.2494 -0.0595
14825W        W34359   5.740   7.297   4.869  0.3591 -0.1157  0.0647
14826W        W34360   1.004   0.234   1.710  0.1525 -0.1827 -0.0148
14827W        W34361   8.705   7.468   4.916 -0.1288 -0.0839  0.1822
14828W        W34362  10.998  16.765  15.599  0.1183 -0.1022 -0.3427
14829W        W34363   6.627   9.067  16.333  0.1976  0.0776  0.0751
14830W        W34364  15.441   4.727   3.540 -0.1166  0.1917 -0.0822
14831W        W34365  10.565  13.130  13.310  0.0640 -0.3916 -0.0531
14832W        W34366   2.635  13.539  13.254  0.0141  0.2920 -0.0380
14833W        W34367   7.187   0.761  14.555  0.0401 -0.0457  0.0987
14834W        W34368   0.919  12.527   3.288  0.4217  0.2384  0.1588
14835W        W34369   5.167   1.387  15.564 -0.2165  0.1353 -0.1807
14836W        W34370  17.222   4.449   2.152 -0.1445 -0.1640  0.3184
14837W        W34371  10.266  14.441   3.107 -0.1111 -0.0909 -0.0473
14838W        W34372   7.121   7.879   4.447 -0.1266 -0.2236 -0.2915
14839W        W34373  16.429   1.249   0.720 -0.1507  0.0976  0.0439
14840W        W34374  15.425   6.423   2.917 -0.0108  0.0801 -0.0787
14841W        W34375   3.807   7.496   0.109 -0.0055  0.0577  0.0081
14842W        W34376  17.284  12.043   2.918  0.3282  0.0402  0.0042
14843W        W34377   9.871  15.688  15.770 -0.0134  0.0239 -0.1733
14844W        W34378  13.751  16.520   0.353  0.0441  0.0939  0.1303
14845W        W34379   8.025   1.309  11.985  0.1970  0.2292 -0.2886
14846W        W34380   7.104   7.125  13.383 -0.3987 -0.0078  0.1567
14847W        W34381  17.224   3.879  16.007 -0.1597  0.1683  0.1716
14848W        W34382  14.234   0.722  12.908  0.0089 -0.0925  0.0442
14849W        W34383   9.904  15.619  14.387  0.2024  0.4633  0.1607
14850W        W34384   2.239   1.413  16.331  0.2909 -0.3172  0.1854
14851W        W34385   8.000   5.053   2.953 -0.0473  0.2204  0.0040
14852W        W34386  11.560  10.403  11.841  0.2613 -0.0078  0.2779
14853W        W34387   5.667  15.298  16.117 -0.0117 -0.1337  0.1032
14854W        W34388   7.715   2.271  14.392  0.0603 -0.1154  0.0837
14855W        W34389   5.125  16.741  12.535 -0.1493  0.0187  0.0702
14856W        W34390   9.908  10.200   0.425  0.3089 -0.1391  0.0937
14857W        W34391  16.963   2.628  14.475 -0.0339 -0.1729 -0.3501
14858W        W34392  15.845  13.438  14.426 -0.0268  0.0607 -0.0651
14859W        W34393   9.773  11.686  15.364  0.1649 -0.0196 -0.0506
14860W        W34394   0.317   5.517   5.054 -0.2802 -0.0232  0.2630
14861W        W34395  10.134  11.442   4.200 -0.1303 -0.1168  0.2485
14862W        W34396   6.729   4.707   3.370  0.2902 -0.0410 -0.0912
14863W        W34397   5.988   4.307  14.282 -0.0710  0.0746 -0.2806
14864W        W34398  14.196  12.945   4.908  0.2927  0.0795 -0.1506
14865W        W34399   0.112   6.022  13.728 -0.1385  0.1703 -0.0173
14866W        W34400  11.247   5.635   1.250 -0.1363  0.2185  0.1337
14867W        W34401   0.260  11.126  15.239 -0.1143  0.0288 -0.4813
14868W        W34402   3.224  16.796  15.851 -0.1570  0.0821  0.0767
14869W        W34403  16.402   2.735  12.624  0.2776 -0.0883  0.1735
14870W        W34404   0.145   8.719   0.245  0.4120 -0.1097 -0.3236
14871W        W34405  15.752  16.701   1.454 -0.1239  0.0065 -0.4012
14872W        W34406  12.576   3.513   1.717 -0.2256  0.1221  0.0977
14873W        W34407  12.094   3.908  14.386  0.0981  0.2344  0.0332
14874W        W34408  15.337   7.632  13.772  0.3526 -0.1552  0.1808
14875W        W34409   4.899   5.953   1.296 -0.0314  0.0901  0.1973
14876W        W34410  16.489   0.927   1.747  0.1036  0.0500 -0.0196
14877W        W34411   1.630  14.647   4.306  0.1875 -0.2833  0.3009
14878W        W34412  10.091   0.716   1.048 -0.1544 -0.1109  0.2519
14879W        W34413   5.095   8.334   3.310  0.1013 -0.0040 -0.0433
14880W        W34414   8.552   2.315  14.446  0.0440 -0.0991  0.0078
14881W        W34415   9.675  10.289  14.058 -0.0196  0.1037  0.0318
14882W        W34416  10.464  13.844   0.069  0.0180 -0.1531 -0.0968
14883W        W34417  14.746  14.420   5.985  0.1529  0.0112  0.1976
14884W        W34418  16.837   5.897  15.804  0.2817 -0.0617  0.0361
14885W        W34419  11.392   2.091   0.099 -0.2332  0.0580  0.1614
14886W        W34420   5.784   3.849   3.694  0.2325  0.0357 -0.1761
14887W        W34421  10.604   6.267  13.574  0.1517  0.0894 -0.0196
14888W        W34422  14.733  13.611  15.667 -0.2297  0.1523  0.1818
14889W        W34423   9.412   7.314   0.615  0.0360  0.1721 -0.2438
14890W        W34424   4.019   5.674   2.313  0.1254 -0.0447 -0.0696
14891W        W34425   5.544   0.748   1.205  0.0618 -0.1162 -0.0526
14892W        W34426  13.534   5.184  13.846 -0.0238 -0.2373  0.0093
14893W        W34427   5.691   0.247  15.254  0.0418 -0.1146 -0.3108
14894W        W34428   7.857   6.266   4.360 -0.2067 -0.3558 -0.1583
14895W        W34429  15.144   1.147  12.796  0.1199  0.2320 -0.0427
14896W        W34430   9.241   4.234  16.372  0.0105  0.1419 -0.0458
14897W        W34431  11.013   5.440  15.267 -0.1019  0.0284 -0.0013
14898W        W34432   6.856  10.487  11.698 -0.0766  0.2178 -0.1982
14899W        W34433   2.195  11.117  15.906 -0.3777  0.1937 -0.1811
14900W        W34434  15.966  11.960   4.090  0.0587 -0.0702 -0.0586
14901W        W34435  10.549  16.678   4.827  0.2155  0.1381  0.0927
14902W        W34436  11.549  14.975   2.661 -0.0430 -0.0809 -0.0755
14903W        W34437  12.905   3.972   1.014  0.3223 -0.0683  0.1476
14904W        W34438   7.364  13.880   2.609 -0.1644 -0.3524 -0.2240
14905W        W34439   2.424   8.927  13.993 -0.0754  0.3428  0.0048
14906W        W34440   9.632  16.050  13.092  0.1961 -0.1377  0.1039
14907W        W34441   9.179   2.744   2.529 -0.1376  0.0690  0.0797
14908W        W34442  11.045   0.535  12.981 -0.3373 -0.2228  0.1032
14909W        W34443   8.638   5.182   1.182 -0.3954 -0.2658 -0.1954
14910W        W34444   9.660  12.801  14.216 -0.1680  0.0594 -0.0746
14911W        W34445   9.580  13.710   2.880 -0.0708  0.0268 -0.0522
14912W        W34446  11.528   7.989  13.293 -0.1577 -0.2341 -0.3274
14913W        W34447   9.571   7.861  14.696  0.0897 -0.2223  0.0743
14914W        W34448  12.795  16.114  13.280  0.0237  0.2450  0.0359
14915W        W34449  12.707   8.968  14.734  0.0546  0.0880 -0.0692
14916W        W34450  12.854   9.683   3.086  0.0731 -0.1015  0.1676
14917W        W34451   9.567  15.319   5.178  0.2451  0.0521  0.0224
14918W        W34452  16.188   7.176   0.219 -0.0500  0.0645 -0.0148
14919W        W34453   4.542  14.436  12.863  0.0098 -0.1112  0.0850
14920W        W34454   1.025  13.053  16.644  0.1253  0.0535 -0.1383
14921W        W34455  15.437   7.131  13.517  0.2275 -0.1139  0.2185
14922W        W34456  13.041  11.303  16.735  0.1020 -0.1937 -0.0130
14923W        W34457   2.601   6.912  12.652 -0.2618  0.1197  0.1046
14924W        W34458   9.253  16.377  12.766  0.3582  0.0821  0.0313
14925W        W34459   7.412  16.144  13.491  0.2558  0.2706  0.0780
14926W        W34460   3.396   0.059  12.266 -0.1508  0.4774 -0.1081
14927W        W34461   7.851  16.498   4.147 -0.1641 -0.0382 -0.2304
14928W        W34462  13.879   5.524  13.756  0.1738 -0.0829  0.4590
14929W        W34463  16.130   5.293   4.675 -0.0113 -0.0326  0.1736
14930W        W34464   7.815  14.497  16.728  0.2025  0.1092 -0.2295
14931W        W34465   7.492   6.534   0.202  0.0763  0.1975  0.1755
14932W        W34466   3.773  10.417  13.160 -0.0784 -0.2435 -0.0347
14933W        W34467   2.299  11.348   3.061 -0.0400  0.1408 -0.0064
14934W        W34468   2.955   2.092   1.042 -0.4151  0.1149 -0.0561
14935W        W34469  12.212   6.204  16.920 -0.0176 -0.1763 -0.0388
14936W        W34470   1.612  10.436  14.603  0.0285 -0.2039 -0.1915
14937W        W34471  13.696  12.676  14.819  0.3698 -0.0633 -0.0110
14938W        W34472   6.450  12.933  12.314  0.2264  0.2935 -0.2453
14939W        W34473   3.444   2.786   0.672  0.0021  0.1452  0.1851
14940W        W34474   7.840   0.251   1.157 -0.0003  0.0798  0.2879
14941W        W34475  16.797  10.905   1.956 -0.1625  0.1053 -0.2286
14942W        W34476   1.126   9.697  12.480  0.2761 -0.3040 -0.1689
14943W        W34477   0.523  15.982   4.087  0.3656 -0.0375  0.0252
14944W        W34478   2.898   5.130   2.210 -0.3078 -0.0966  0.0746
14945W        W34479   4.713  11.504  12.990  0.1153 -0.2807  0.1143
14946W        W34480   7.426  16.585   3.819 -0.2475  0.0293  0.0159
14947W        W34481   1.404   2.054   1.485 -0.1763 -0.2361 -0.1266
14948W        W34482   9.740   6.698   4.699 -0.0002 -0.0174 -0.2046
14949W        W34483  12.229  13.141   0.820  0.1699 -0.2051  0.2177
14950W        W34484   8.954  12.416   3.866  0.0548 -0.1741  0.1015
14951W        W34485   3.717   7.706   4.022 -0.2230 -0.1512 -0.0197
14952W        W34486  15.461   7.268   4.405  0.0730 -0.2502 -0.0595
14953W        W34487  11.073  13.181   0.117  0.3036 -0.3036 -0.2604
14954W        W34488   9.906   9.178   2.993  0.2503 -0.1306 -0.0905
14955W        W34489   6.908  16.680   0.071  0.3579 -0.2044  0.0415
14956W        W34490   8.715  16.330  12.662 -0.0635 -0.3446 -0.0533
14957W        W34491  17.112   0.474   4.029  0.0276 -0.0647  0.0197
14958W        W34492   7.685   0.306  16.656 -0.1654 -0.0573  0.0326
14959W        W34493  12.541   4.005  15.553 -0.2256  0.0789 -0.0830
14960W        W34494  16.264   9.761  14.757  0.0648  0.1042 -0.1578
14961W        W34495  15.382   3.502   1.460  0.0376 -0.2449 -0.0081
14962W        W34496  11.776   0.336   4.144  0.0993  0.1209  0.1813
14963W        W34497  15.173  12.526   3.989  0.3852 -0.1678 -0.0236
14964W        W34498  16.512  17.251  15.027 -0.0799  0.0923  0.2514
14965W        W34499  16.259   2.849   5.048 -0.2837 -0.1767  0.1076
14966W        W34500  11.344   0.775   3.805 -0.1826 -0.1043  0.0168
14967W        W34501  15.852   5.682   3.294 -0.2505  0.1946 -0.1695
14968W        W34502   0.712   8.327   2.723 -0.0012  0.1722  0.0434
14969W        W34503   1.643   2.243   4.503 -0.1700 -0.1922 -0.1061
14970W        W34504   6.789   5.103   1.301 -0.2904  0.1222  0.2323
14971W        W34505   2.538   5.832   1.301  0.0097  0.0886  0.1853
14972W        W34506   3.017   2.271   5.514  0.1549  0.1946 -0.0252
14973W        W34507  14.733   5.419  15.958 -0.0325  0.3750 -0.1090
14974W        W34508   7.500  13.465  15.268 -0.0741 -0.1892  0.0806
14975W        W34509   5.844   7.578  13.352  0.2235  0.0125  0.2874
14976W        W34510  14.868   8.505  14.757 -0.1833  0.2110  0.0807
14977W        W34511   6.622  15.356  14.427 -0.1389 -0.0979  0.2678
14978W        W34512   0.798  11.539  15.491  0.1238  0.1287  0.1730
14979W        W34513   4.565  14.362  15.702 -0.1399  0.1597  0.0415
14980W        W34514  16.306  10.124   5.094  0.1364 -0.1221 -0.0892
14981W        W34515  14.483   6.480   3.321  0.3894  0.2334 -0.0871
14982W        W34516   6.808   7.529   4.774  0.0856  0.0421 -0.0742
14983W        W34517  15.628  17.246   0.900 -0.0460 -0.3595  0.0963
14984W        W34518   6.433  13.898   1.412  0.0210 -0.2481 -0.2070
14985W        W34519  10.565   0.363  12.324 -0.1273  0.2049 -0.3603
14986W        W34520   9.430  17.263  14.701  0.0381 -0.2382  0.0378
14987W        W34521   7.247  17.059   2.758 -0.0697  0.0195  0.2722
14988W        W34522   9.133  17.179   0.136  0.0749 -0.0351 -0.1143
14989W        W34523   0.658   1.296  12.017 -0.1772  0.0481  0.2002
14990W        W34524   3.989   8.679   3.975  0.1914  0.4102 -0.0610
14991W        W34525   1.968   1.797   0.594 -0.1036  0.1984 -0.2352
14992W        W34526   8.165   3.813   0.289  0.0164 -0.0569 -0.0167
14993W        W34527  16.438  14.102   2.570  0.1655 -0.1278 -0.1635
14994W        W34528  16.315   7.422  13.990  0.1388  0.1126  0.0448
14995W        W34529  13.063  14.655  14.472 -0.2483  0.1272  0.0397
14996W        W34530   0.165   5.627  16.890 -0.1098 -0.1074 -0.1214
14997W        W34531   5.128  11.706  15.293 -0.0665 -0.5704 -0.2870
14998W        W34532   3.837   9.155  14.119  0.0929 -0.0730  0.1366
14999W        W34533   5.960  14.873  12.644  0.1939  0.0618  0.0856
15000W        W34534  13.267  15.241   2.644 -0.0650 -0.3700  0.3088
15001W        W34535  11.965   5.193  14.300  0.0138 -0.2927 -0.1863
15002W        W34536   5.939   1.301   3.856  0.0694 -0.1422  0.0573
15003W        W34537  16.930   1.014   3.149  0.1022  0.0962 -0.1018
15004W        W34538   1.246   4.033  12.585 -0.0679  0.1420 -0.1476
15005W        W34539   6.345   7.290   4.198 -0.1838 -0.1254 -0.0376
15006W        W34540   2.072  13.430   5.114 -0.2019 -0.1528  0.0160
15007W        W34541   8.954   7.704   4.086  0.1102 -0.0621 -0.1341
15008W        W34542   7.167   4.700   0.530  0.1493 -0.2536 -0.1378
15009W        W34543   5.890  12.094  14.130 -0.0607  0.2779  0.0841
15010W        W34544   2.536   0.274   3.815 -0.2412  0.0669  0.2565
15011W        W34545   9.431  15.564  16.490  0.1819  0.0736  0.0446
15012W        W34546  15.453   2.822  16.904 -0.0090  0.2033 -0.0124
15013W        W34547  11.873  13.571   4.488 -0.0235 -0.2471 -0.1690
15014W        W34548   7.108  16.945  16.977  0.3539  0.0195 -0.1007
15015W        W34549  14.801  16.148   3.461  0.1406  0.1353  0.0176
15016W        W34550  15.757   5.058  17.005 -0.0874 -0.0511  0.1447
15017W        W34551  15.937  14.302   1.344 -0.3555 -0.1157 -0.1036
15018W        W34552   7.216  12.272  14.383  0.1209  0.1113  0.0317
15019W        W34553  13.880   9.513   4.269 -0.2283  0.3915 -0.4977
15020W        W34554   5.402  10.074   5.263  0.0760 -0.0515 -0.3674
15021W        W34555  12.633  11.041   0.278 -0.0073 -0.1953 -0.2917
15022W        W34556   9.067   6.815  14.438  0.1614  0.1261 -0.0494
15023W        W34557   6.291  13.032   4.766 -0.0067  0.1645  0.1112
15024W        W34558  17.062   4.942  14.527 -0.0583 -0.0842 -0.1086
15025W        W34559  12.393  10.366   3.342  0.2362  0.3929 -0.1066
15026W        W34560  10.089  12.184  16.565  0.0974  0.3119  0.0488
15027W        W34561  14.753   1.865  13.079  0.1946 -0.1331  0.1214
15028W        W34562  12.855  16.593  12.479  0.0129  0.1710  0.1641
15029W        W34563   6.776   5.360  11.806 -0.0817  0.1868 -0.1320
15030W        W34564  10.061   6.382   3.641  0.0631  0.2525 -0.2713
15031W        W34565  10.800   1.204   3.667 -0.0936 -0.0498 -0.1705
15032W        W34566   8.350   1.135   2.667  0.1282  0.0607  0.0875
15033W        W34567   3.887  14.500   0.224  0.4347 -0.0977  0.0987
15034W        W34568   8.948  17.354  14.775 -0.0425 -0.3230  0.1424
15035W        W34569   8.640   1.306   1.907  0.1477 -0.0931 -0.0492
15036W        W34570   2.112  14.142  15.681  0.2472 -0.4571 -0.0129
15037W        W34571   3.045  15.937  17.147 -0.0108 -0.0258 -0.1367
15038W        W34572   5.267   4.702   2.084 -0.0856  0.2156 -0.1314
15039W        W34573   5.037   1.375   1.799 -0.1456  0.0933  0.3543
15040W        W34574  14.290  15.232   4.181 -0.0798  0.0055 -0.2292
15041W        W34575  11.447   7.363  13.138 -0.0324  0.2499 -0.2238
15042W        W34576   1.404   5.271  17.183 -0.0266  0.0444 -0.2268
15043W        W34577   7.525  13.221  13.011 -0.0301  0.0771 -0.1471
15044W        W34578   2.530  13.255   4.355 -0.1137  0.1157 -0.1964
15045W        W34579  10.032  11.775   2.025 -0.1515 -0.1287  0.0519
15046W        W34580   3.234   9.756   2.232  0.0028  0.1273  0.0082
15047W        W34581   7.115   0.065   3.000  0.4507  0.2100 -0.1441
15048W        W34582  15.772  14.250  15.327 -0.2827 -0.0629 -0.0614
15049W        W34583   4.317   5.405   0.745 -0.2284 -0.0280 -0.0711
15050W        W34584   1.657  13.417   3.988 -0.2024 -0.2878 -0.0679
15051W        W34585  15.308  13.353  15.021  0.3378  0.0870 -0.0034
15052W        W34586   9.494   6.258  15.642  0.2371 -0.1449  0.0481
15053W        W34587   1.502   2.146   2.962  0.0852  0.0732 -0.0432
15054W        W34588   0.749   9.158   2.451  0.1171 -0.0647  0.1047
15055W        W34589   9.703   6.209   2.899 -0.0994  0.0832 -0.1542
15056W        W34590   2.428  17.249  16.342  0.2588  0.0012  0.1719
15057W        W34591   8.207   4.065  13.986  0.2472  0.1160  0.0476
15058W        W34592   0.299   2.274   0.920  0.0762 -0.4230 -0.3944
15059W        W34593  11.011  11.899   3.262  0.2442 -0.0246  0.0830
15060W        W34594   3.213   8.409  15.622  0.0069 -0.1818  0.2274
15061W        W34595   4.242   9.090   4.164 -0.0245 -0.0586 -0.1057
15062W        W34596  15.549  11.497  14.293 -0.0206  0.1089 -0.0099
15063W        W34597   7.030  12.172  15.530 -0.2453 -0.0821  0.1439
15064W        W34598   8.805   1.941   4.709 -0.1143 -0.1458  0.1488
15065W        W34599   6.559   8.349   5.065  0.0774  0.0153 -0.3585
15066W        W34600  11.158  12.863   3.171 -0.4912  0.0162 -0.2176
15067W        W34601   3.921   9.805   4.326 -0.0644  0.1192 -0.2889
15068W        W34602   7.572   8.257  13.155 -0.0966  0.1337  0.1654
15069W        W34603   2.052   1.445  13.342 -0.3608 -0.0653 -0.0227
15070W        W34604   3.990  16.108   2.905  0.0421  0.0529  0.0939
15071W        W34605  16.688  12.730   1.828  0.0427  0.1643  0.1758
15072W        W34606  12.553   5.482  15.477  0.0408 -0.1384 -0.1126
15073W        W34607   8.791  11.762  17.280 -0.2246  0.1653  0.0697
15074W        W34608  14.387   0.631   0.769 -0.0571  0.3693 -0.0941
15075W        W34609   0.625  14.344   3.097  0.1000  0.1882  0.0547
15076W        W34610  14.064  14.030  13.721 -0.2667 -0.0247  0.0307
15077W        W34611   7.014  13.741   2.229 -0.0069  0.0018  0.0427
15078W        W34612   0.308   4.513  14.464 -0.2743 -0.0335  0.1055
15079W        W34613   6.518  10.724  14.295 -0.2599 -0.2531  0.2278
15080W        W34614   6.887  13.269   1.035 -0.0294 -0.1567 -0.0390
15081W        W34615  10.314  11.856   3.961  0.0311 -0.0817 -0.0297
15082W        W34616   9.729  14.282  13.369 -0.3282  0.3850 -0.1318
15083W        W34617  11.624   2.972   0.334 -0.0003 -0.0171 -0.0982
15084W        W34618  13.653  13.457   4.743 -0.0565 -0.2177  0.2186
15085W        W34619   1.782  16.616  14.668  0.1016  0.0029 -0.1284
15086W        W34620   9.043  12.313  13.684 -0.2149 -0.1075 -0.5166
15087W        W34621   1.905   1.196   2.700  0.3082  0.0063  0.1945
15088W        W34622   4.758   0.500  12.569 -0.3557 -0.2884 -0.0578
15089W        W34623  11.690  10.214  12.280  0.0569  0.1119  0.1030
15090W        W34624   3.673   1.386  16.761  0.1125 -0.1069  0.1521
15091W        W34625   2.466  11.971  14.618  0.1898  0.2532  0.1943
15092W        W34626  15.695   2.704  14.579  0.0402  0.3190  0.3413
15093W        W34627   3.041  14.805   0.342 -0.1985  0.4348 -0.0779
15094W        W34628  12.063   6.087   4.646 -0.1339 -0.0100 -0.3043
15095W        W34629   6.420   8.348  15.441 -0.0570 -0.2343  0.0112
15096W        W34630  14.844   1.669  16.550  0.3803 -0.1627  0.2894
15097W        W34631   7.564   8.557   3.823  0.0069 -0.0616 -0.0069
15098W        W34632  13.224  10.394   4.872  0.0110  0.2372  0.2334
15099W        W34633  16.730   7.989  14.223  0.2337 -0.0738  0.1275
15100W        W34634  12.772  11.163  17.123  0.2688 -0.2066  0.0313
15101W        W34635   9.382  13.786  14.245 -0.3291 -0.1083  0.2544
15102W        W34636   4.631  13.644  17.184 -0.0533 -0.1800  0.1731
15103W        W34637  10.598   8.631  12.755  0.0128  0.1548 -0.0595
15104W        W34638   6.463   7.003  14.976  0.0390 -0.0332  0.0018
15105W        W34639   3.049   0.966  11.146 -0.2537  0.0733  0.2613
15106W        W34640   1.194  15.514  14.061  0.1000 -0.4871  0.1723
15107W        W34641   3.629   2.677   2.131 -0.3343  0.2037  0.1305
15108W        W34642  14.360   1.613  14.818  0.0733  0.0252  0.0864
15109W        W34643  10.333  16.334   2.826 -0.0140  0.1733  0.0377
15110W        W34644   3.090   3.691   0.660 -0.3751  0.0235  0.0695
15111W        W34645   5.729  14.276  13.990  0.3206 -0.3218  0.3938
15112W        W34646  17.455   2.111  15.016 -0.0926  0.3442  0.1191
15113W        W34647   2.176  12.086   4.908  0.1030 -0.0395  0.0903
15114W        W34648  11.332   9.585   1.175  0.1701  0.0175 -0.0891
15115W        W34649   7.056  13.261  12.892 -0.2552 -0.1102 -0.1312
15116W        W34650   5.190  14.810  13.332  0.0121 -0.3118 -0.0920
15117W        W34651  12.588   1.190   2.589 -0.1070 -0.1028 -0.1704
15118W        W34652  11.506   8.872  17.101  0.2817 -0.2586 -0.1426
15119W        W34653   9.464   8.229   0.810 -0.1906 -0.1787 -0.2128
15120W        W34654   3.271  11.114   1.426 -0.0778 -0.0463 -0.3220
15121W        W34655  11.001  10.149   4.409  0.0381  0.0358 -0.0991
15122W        W34656  11.812   3.974   1.801 -0.1074  0.0384  0.2138
15123W        W34657  14.785   1.506   3.025  0.2025  0.0666  0.1904
15124W        W34658   6.410   7.712  16.122 -0.3814 -0.0149  0.1346
15125W        W34659  10.058  10.902  17.259 -0.0089  0.0257  0.0018
15126W        W34660  12.135   3.282   1.416 -0.1164  0.0429  0.0084
15127W        W34661  14.423   5.825  15.130 -0.1133  0.2611  0.0414
15128W        W34662   6.942   2.009  12.604 -0.0125 -0.0019  0.3488
15129W        W34663  14.959   8.464   1.402 -0.0525  0.0735  0.0721
15130W        W34664   8.250   4.482   4.780 -0.0845  0.2127 -0.0718
15131W        W34665   4.425  15.340   0.774  0.1048 -0.1474  0.0146
15132W        W34666   3.446  14.694   1.079 -0.1289 -0.3830  0.1221
15133W        W34667  16.767   4.161  14.560 -0.0997 -0.2026 -0.1839
15134W        W34668   5.821  15.719  16.182  0.0521 -0.2087  0.0517
15135W        W34669   7.863   7.154   4.104  0.0014 -0.3366  0.0565
15136W        W34670  15.026  13.356  16.044  0.1708  0.1332  0.0964
15137W        W34671  11.252   2.690  12.688  0.3371 -0.0797  0.0003
15138W        W34672   8.188  16.023  15.189  0.0940  0.0582 -0.3045
15139W        W34673  14.505   5.097   0.422  0.1833  0.0353  0.0890
15140W        W34674   9.354   8.198   2.934 -0.1418  0.0043  0.3821
15141W        W34675   4.969   4.603   2.519  0.0107 -0.1658  0.1766
15142W        W34676  10.248   4.274   0.359 -0.3834 -0.2557  0.0408
15143W        W34677  10.582  13.920   3.910 -0.0762  0.0223  0.0757
15144W        W34678  14.288   1.160  12.460 -0.1040  0.1913  0.1079
15145W        W34679   1.374  16.150   1.210 -0.0846 -0.0869 -0.0222
15146W        W34680  11.621  10.163   4.046  0.0447 -0.0065  0.0152
15147W        W34681  13.687   9.934   3.230 -0.2758 -0.0167 -0.0790
15148W        W34682  15.796  12.223  13.579 -0.1417  0.2189 -0.0199
15149W        W34683   0.495  12.850   3.607 -0.5167 -0.0978 -0.3614
15150W        W34684   6.756  13.297   2.385 -0.0826  0.2425 -0.0059
15151W        W34685   5.533   1.230   1.002  0.0463 -0.2748  0.3796
15152W        W34686   8.093  15.302  16.218  0.0022  0.1676  0.0103
15153W        W34687  17.123   3.372   1.625 -0.0400 -0.2655  0.0670
15154W        W34688  13.887  17.011  15.674 -0.0913  0.1816 -0.1065
15155W        W34689  13.231   9.566   5.120  0.0201  0.1685 -0.0237
15156W        W34690  16.513  12.052   4.963  0.0213  0.1235 -0.1441
15157W        W34691  16.821   6.086   1.487  0.0984 -0.2039 -0.1334
15158W        W34692  10.972   1.605   4.153  0.1878  0.1955  0.3080
15159W        W34693   3.868  12.061   3.065 -0.3120  0.0433 -0.0788
15160W        W34694  16.610   0.778  12.882 -0.0307 -0.2098  0.3222
15161W        W34695  11.803   0.375   3.100  0.0155 -0.3946  0.0617
15162W        W34696  16.144   9.686  13.816 -0.0866 -0.0243 -0.1250
15163W        W34697  12.751   9.039  12.436  0.1862 -0.3166  0.0887
15164W        W34698   7.378   8.998   3.998 -0.0244 -0.0386  0.2889
15165W        W34699  10.711   7.830  13.299  0.2976  0.0626  0.3448
15166W        W34700  14.196   4.336   1.383  0.1953  0.2430 -0.3030
15167W        W34701  13.580  17.218   3.068 -0.0474 -0.1298  0.2374
15168W        W34702   6.294  14.589   4.275  0.2099  0.0944  0.2878
15169W        W34703   8.273   3.222  13.629  0.0762 -0.1362 -0.0285
15170W        W34704  13.024   4.160  16.546 -0.2736  0.0208  0.0290
15171W        W34705   8.998  16.962   2.585 -0.1553 -0.1548 -0.1082
15172W        W34706   5.801  10.146  17.082 -0.0179 -0.2177 -0.1117
15173W        W34707   3.569  10.057  14.188 -0.0067  0.0458  0.2101
15174W        W34708   1.387   7.138   4.193 -0.0006  0.1912  0.0802
15175W        W34709   9.133  16.035  14.422  0.1539 -0.2128  0.1373
15176W        W34710   9.878   1.769   3.959 -0.1973 -0.1452 -0.2248
15177W        W34711  13.641  13.350  12.943  0.0338  0.1051 -0.1962
15178W        W34712   3.722   8.897  15.150  0.0843  0.1335 -0.1355
15179W        W34713   8.991  13.208  16.128 -0.3832  0.1698  0.0643
15180W        W34714   8.593   5.589  14.853  0.2031 -0.1996 -0.0740
15181W        W34715  11.860   2.776   1.329  0.1832 -0.0200  0.2445
15182W        W34716   4.431  14.491   0.917  0.0873 -0.2789  0.1586
15183W        W34717   0.315   2.385   4.762 -0.1267 -0.1988 -0.0124
15184W        W34718  15.188   9.098   2.826 -0.0903  0.0815 -0.1667
15185W        W34719  13.431   5.731  12.490  0.0403  0.1220 -0.2267
15186W        W34720   4.667  13.485   4.391  0.1212  0.1964 -0.1132
15187W        W34721  14.097  12.455   0.395  0.1156  0.1608 -0.0965
15188W        W34722   6.476   4.014   0.806  0.0282  0.3512  0.0031
15189W        W34723   9.923   6.641   1.703 -0.0529  0.0620 -0.2633
15190W        W34724   8.006   1.070   0.594  0.0569  0.1328 -0.1995
15191W        W34725   5.233   8.577   4.806  0.0839  0.0413 -0.1823
15192W        W34726  10.355  14.898  15.660 -0.2081 -0.1827  0.3832
15193W        W34727   5.088  15.490   1.880 -0.0185 -0.1174  0.0473
15194W        W34728   1.590  15.692   0.901 -0.1538  0.1275 -0.1801
15195W        W34729   6.835  12.410   2.461  0.0603 -0.0011 -0.2591
15196W        W34730  12.881  10.043   3.862  0.0997  0.1841 -0.0866
15197W        W34731  17.113  15.322  14.568 -0.0951  0.1712 -0.0788
15198W        W34732  15.487  10.230   1.660  0.0107  0.0891  0.0160
15199W        W34733  17.455   8.733  17.022 -0.1059 -0.1442 -0.0293
15200W        W34734   7.663   9.680  13.164 -0.0467 -0.1950  0.2787
15201W        W34735  10.450   2.246  15.649  0.1469 -0.0376  0.0278
15202W        W34736  12.078  16.334  13.099  0.1191 -0.2070  0.0422
15203W        W34737   1.634   2.044  12.684 -0.0810  0.1858  0.0407
15204W        W34738  16.016   4.209   4.637 -0.0168 -0.1967  0.1375
15205W        W34739   4.037   1.111  12.424 -0.0394  0.2716 -0.2440
15206W        W34740  16.244   3.770   2.450 -0.2574  0.1109 -0.1960
15207W        W34741   9.666  17.387   3.012 -0.0378 -0.1654 -0.1823
15208W        W34742   7.138   4.517  17.116 -0.0180  0.2178  0.0116
15209W        W34743   3.161   7.576  13.662 -0.1948 -0.4107 -0.0214
15210W        W34744   4.119  14.781  16.688 -0.2237 -0.0991 -0.1009
15211W        W34745  12.405  13.033  15.404  0.2608  0.1561  0.0387
15212W        W34746   8.148   4.838   3.805  0.0447 -0.2652  0.0486
15213W        W34747  10.662   8.399  14.810  0.0397  0.0392 -0.3610
15214W        W34748   0.485  15.786   2.022 -0.1837 -0.1740  0.3455
15215W        W34749   8.057   1.686   0.794 -0.1029 -0.1594 -0.0615
15216W        W34750   0.551  14.210   2.273 -0.2898  0.0251  0.0410
15217W        W34751   9.389  12.698   2.964  0.0916 -0.2269 -0.5298
15218W        W34752   5.809  11.530   3.657  0.0134 -0.0981  0.2755
15219W        W34753   0.725  16.335   4.954 -0.0633  0.0187  0.1849
15220W        W34754  15.600   8.664   0.769 -0.0237  0.1956  0.1920
15221W        W34755  16.605   6.535   2.998 -0.0309 -0.0255  0.0409
15222W        W34756   0.141  13.262   4.811 -0.1544 -0.0754  0.0780
15223W        W34757   5.530  15.182   1.979 -0.0320 -0.0627 -0.2760
15224W        W34758   2.914   5.545  12.533 -0.0858  0.2071 -0.0947
15225W        W34759  13.191   4.558  15.099  0.0163 -0.0622 -0.1435
15226W        W34760   1.897  16.989  12.369 -0.0170 -0.0975 -0.1452
15227W        W34761   7.416  10.109   0.729  0.0200  0.0273  0.1364
15228W        W34762  16.618  14.566   2.825 -0.0477  0.0694  0.0248
15229W        W34763   7.280  16.571  16.088  0.2131 -0.0448 -0.1352
15230W        W34764  16.534  14.602  16.920  0.0127 -0.2184  0.1199
15231W        W34765  12.872   1.824   3.754 -0.0305 -0.1864 -0.0035
15232W        W34766   3.702   2.423   3.628  0.0819 -0.2379  0.1878
15233W        W34767   7.618  16.074  12.277  0.0611  0.3084  0.1342
15234W        W34768   6.888   4.598  12.939 -0.0119 -0.2261 -0.1687
15235W        W34769   5.230  10.411  13.627  0.2727  0.0364  0.1091
15236W        W34770  12.333   1.446   4.581 -0.3244  0.0082 -0.1096
15237W        W34771  16.814  11.851   1.639  0.2098 -0.0586  0.4211
15238W        W34772  15.865   3.118  14.731  0.1465  0.0236 -0.1631
15239W        W34773   5.086   6.551   1.829 -0.1139 -0.2089 -0.3091
15240W        W34774  16.368   3.898  17.302  0.2225 -0.1043 -0.1884
15241W        W34775   8.391   3.091  14.591 -0.2397 -0.2008 -0.3500
15242W        W34776   4.965   8.684  12.535 -0.1147  0.1589  0.0586
15243W        W34777   4.592  11.492   1.039  0.4081  0.2769  0.1774
15244W        W34778   2.017   0.341  12.579 -0.1170  0.0836  0.2086
15245W        W34779   7.242  14.399   3.442 -0.0566 -0.0785  0.1098
15246W        W34780  17.391  16.126   3.306  0.0110 -0.2212 -0.1638
15247W        W34781   1.593   8.366  12.394 -0.0865  0.1969 -0.1489
15248W        W34782   3.546  16.170   3.640  0.0164  0.3068 -0.0683
15249W        W34783  12.003   2.652  15.670 -0.0849  0.3825 -0.2856
15250W        W34784   7.719   6.389  15.236 -0.1590 -0.3083  0.2508
15251W        W34785  11.231   1.200   1.153  0.1671 -0.1662  0.1880
15252W        W34786  14.853  10.031  13.084  0.1035  0.2045 -0.0169
15253W        W34787   9.595   9.196   0.855 -0.1473 -0.2963 -0.0254
15254W        W34788  13.041  14.372   3.956  0.1139 -0.0157  0.1193
15255W        W34789  16.739  13.429  13.208 -0.1017 -0.0323  0.1051
15256W        W34790   9.059  16.727  13.585 -0.0858  0.1258 -0.0291
15257W        W34791  13.315  16.533   5.100 -0.2411 -0.1002  0.1272
15258W        W34792  13.230   6.574   3.979  0.1773 -0.0369 -0.0995
15259W        W34793  15.540   1.900  16.950  0.1748 -0.0995  0.3725
15260W        W34794  12.150  16.215   4.314 -0.3303 -0.1769 -0.0182
15261W        W34795   4.828  10.578   2.401 -0.0688 -0.1582 -0.2187
15262W        W34796  13.509  10.987   3.118  0.3094  0.1525  0.0655
15263W        W34797   9.338   2.247   3.131 -0.0993 -0.1078 -0.0331
15264W        W34798  14.047   9.601  14.191 -0.1808 -0.1778 -0.0509
15265W        W34799   6.470  11.192  15.264  0.0446 -0.0342 -0.2377
15266W        W34800   0.693  16.097  15.399 -0.2202 -0.0421  0.4592
15267W        W34801   8.844   9.412   5.343 -0.0121 -0.0794  0.0243
15268W        W34802   2.540   7.300  16.158 -0.1395 -0.2786 -0.0658
15269W        W34803   1.827   0.768  12.739 -0.1974 -0.0207  0.0300
15270W        W34804   4.581   2.930   3.533  0.1005  0.0931 -0.0591
15271W        W34805   1.193   9.848   0.414  0.2618  0.1783  0.0361
15272W        W34806  12.922  10.746   2.481 -0.2630 -0.1399 -0.0815
15273W        W34807   8.767  17.210  17.088 -0.0084  0.0235  0.3341
15274W        W34808   7.292   8.646   0.578 -0.0668  0.0346 -0.2236
15275W        W34809  12.789   9.656   4.939 -0.0794  0.1533 -0.2259
15276W        W34810  12.166   5.248  13.512 -0.1932  0.2435  0.2384
15277W        W34811   7.054   6.523   1.919 -0.2433  0.1410  0.2739
15278W        W34812   9.795   4.560  14.121  0.1953 -0.1618  0.0588
15279W        W34813  14.161  14.283   0.085  0.1493 -0.0160 -0.1818
15280W        W34814   1.383  11.146  14.363 -0.2011  0.0974 -0.3487
15281W        W34815   8.557   9.940  13.768  0.2947  0.0341 -0.0040
15282W        W34816  14.221   3.162   2.223 -0.0770 -0.1413  0.1223
15283W        W34817  10.570  16.022   4.198 -0.3143 -0.1129  0.0496
15284W        W34818  10.091  10.452  17.101  0.0504  0.0451 -0.3725
15285W        W34819   8.563   5.966   2.845  0.0168 -0.2489  0.1728
15286W        W34820  16.659  16.148  13.573  0.1587 -0.0719  0.1880
15287W        W34821  11.516  15.861  15.264  0.3567 -0.0513 -0.1431
15288W        W34822  16.222   6.135   0.192  0.2617  0.3327 -0.2529
15289W        W34823  13.351   7.570   2.389 -0.1175  0.0088  0.0846
15290W        W34824  11.304   2.207   1.287  0.3312  0.0237  0.0921
15291W        W34825   9.608  15.143  12.924  0.2242  0.1508  0.0724
15292W        W34826   9.988   8.492  14.653 -0.1863  0.0796 -0.1361
15293W        W34827  11.245  15.295   0.705  0.0414 -0.0456  0.0491
15294W        W34828   6.025  13.196   3.860 -0.1096 -0.1028  0.1164
15295W        W34829   3.720   8.199   5.240  0.0513  0.2555 -0.2507
15296W        W34830   2.556  15.683  12.481 -0.1293 -0.3415  0.0928
15297W        W34831   8.302  16.267   3.956  0.0400  0.1027  0.4052
15298W        W34832   3.563  16.718   2.435 -0.0535 -0.2072  0.1776
15299W        W34833  11.814   7.713   5.437 -0.0181  0.2046  0.0968
15300W        W34834   3.362   3.091  16.670  0.0556  0.1253 -0.2356
15301W        W34835  10.264  17.313  14.443 -0.0043  0.3973 -0.2278
15302W        W34836  12.072  15.347  15.902  0.1052 -0.0530  0.0700
15303W        W34837   9.300   2.234   4.463 -0.1378  0.0607 -0.1738
15304W        W34838   3.706   9.233   1.339  0.2219 -0.1400 -0.2410
15305W        W34839  15.266   0.932   5.516 -0.4389  0.1615  0.0238
15306W        W34840  11.491   3.738  16.920 -0.2407 -0.0486 -0.2019
15307W        W34841   8.645   4.706  14.485  0.1164 -0.0484  0.0016
15308W        W34842   5.184  16.138  15.806  0.1483  0.3520  0.1038
15309W        W34843   2.187   3.641  12.101  0.0207  0.0566  0.2155
15310W        W34844   5.416   0.498  13.122 -0.1384  0.0552 -0.0904
15311W        W34845   6.932   5.183  13.696 -0.0420 -0.1232 -0.0038
15312W        W34846  11.752  17.286   2.356 -0.1641  0.0600  0.1915
15313W        W34847   1.541   2.133  13.214  0.2975 -0.1881  0.0180
15314W        W34848  14.496  14.646  14.158 -0.0632  0.2675 -0.0854
15315W        W34849   5.699  10.891   1.804 -0.2561 -0.0307  0.0703
15316W        W34850   9.225  11.353  17.271 -0.1558  0.1812 -0.2120
15317W        W34851  14.411   8.284  13.340  0.1317  0.0662  0.1606
15318W        W34852  14.097   2.292  16.672 -0.1456 -0.0000  0.3279
15319W        W34853  16.328   1.454   1.745 -0.0338  0.0805 -0.0108
15320W        W34854  16.700  10.146  16.491 -0.0322 -0.0939 -0.0144
15321W        W34855  10.266  14.207  12.048  0.1201  0.1388 -0.1035
15322W        W34856  11.908   4.055   3.755  0.2307  0.1787  0.0604
15323W        W34857   5.190  11.660   1.754 -0.2003  0.2012 -0.2215
15324W        W34858  10.440  16.256  16.151 -0.2879  0.2064  0.3670
15325W        W34859   8.930   9.923   4.929  0.3328  0.0091 -0.1995
15326W        W34860   2.567  14.005  13.379  0.0410  0.1108  0.1753
15327W        W34861   6.568   9.287   2.890  0.0607  0.1278 -0.2298
15328W        W34862   7.851   6.721   2.299  0.0873 -0.2464  0.1214
15329W        W34863   8.373  10.810  14.834 -0.2755  0.0366 -0.0056
15330W        W34864  11.770   4.110   0.011  0.1677  0.1691 -0.0247
15331W        W34865   6.184   2.364   4.651 -0.0321  0.0299  0.1890
15332W        W34866   8.355  13.140   5.012 -0.0312 -0.1066  0.0594
15333W        W34867   9.922   7.377   3.968  0.1834  0.1094  0.0297
15334W        W34868  16.812  15.676  16.971 -0.3602  0.0347 -0.1681
15335W        W34869   3.954  15.109  13.788 -0.1202 -0.0138 -0.0103
15336W        W34870   1.915  15.995   4.335 -0.0613 -0.0018 -0.0480
15337W        W34871   2.304   2.502   0.949 -0.0721 -0.2066 -0.0541
15338W        W34872  13.523  13.147   4.065  0.1742  0.0601 -0.1069
15339W        W34873  12.229  14.395   0.153  0.1401  0.0658 -0.3477
15340W        W34874   4.645   6.754   3.390  0.0472  0.1150  0.0208
15341W        W34875   6.614  15.341   2.430  0.0344 -0.1119 -0.2606
15342W        W34876   6.745   0.329   4.261  0.1372 -0.0652  0.2595
15343W        W34877   9.917   0.441   1.924 -0.0583 -0.1031  0.1182
15344W        W34878   2.170  13.517  14.552 -0.0481  0.3048  0.1559
15345W        W34879  11.008   8.615   0.051  0.0093 -0.2653 -0.0106
15346W        W34880  17.110  12.518   1.004 -0.0893 -0.1528 -0.2367
15347W        W34881  16.524  14.405   0.434 -0.2764  0.2049  0.0652
15348W        W34882  12.814   5.929   2.812 -0.0908  0.0545 -0.1565
15349W        W34883   8.795   7.686  12.258 -0.1053  0.2281 -0.2439
15350W        W34884   0.486  17.085  17.132  0.4070  0.2180  0.0156
15351W        W34885  15.028   6.831  17.085  0.2417 -0.0288 -0.0251
15352W        W34886   0.062   0.790   1.497 -0.3644 -0.1180 -0.0148
15353W        W34887   4.062   7.135   1.711  0.3052 -0.1471  0.1084
15354W        W34888   5.844   6.607   3.564 -0.2534 -0.0193  0.1830
15355W        W34889   5.110  13.587  13.696  0.1102  0.1100  0.0679
15356W        W34890   7.364   0.114  12.656 -0.1179 -0.0983 -0.0003
15357W        W34891   0.992   2.953  12.915 -0.1156  0.4815 -0.3201
15358W        W34892   8.384   1.655  11.325  0.1464  0.2429 -0.0381
15359W        W34893  13.779   2.696   4.511 -0.2535  0.0393  0.0246
15360W        W34894  16.365   7.106  13.558  0.1839 -0.1839 -0.0510
15361W        W34895  17.272   4.132  14.051  0.3365 -0.1682  0.0465
15362W        W34896  12.188   7.011   0.323  0.0440  0.3404  0.0377
15363W        W34897   8.568  17.096   0.197  0.1178  0.0338 -0.3798
15364W        W34898   8.180   5.356   3.288  0.0352 -0.0724  0.3203
15365W        W34899  15.505  10.465  12.677  0.2881  0.1686  0.2102
15366W        W34900  14.519   9.907   4.656 -0.0527 -0.1229 -0.2516
15367W        W34901   1.248   8.267  13.918 -0.0256  0.1609 -0.1636
15368W        W34902   8.678   1.547   3.325  0.0358 -0.3886  0.0001
15369W        W34903   9.734   0.903  15.644  0.1458 -0.1455  0.3706
15370W        W34904  10.442  12.298  15.411 -0.2906 -0.0409  0.1030
15371W        W34905   6.005   0.759   2.205 -0.0937  0.2315  0.0545
15372W        W34906   5.412  12.562   0.716 -0.2020  0.1342 -0.0582
15373W        W34907   6.271  10.630   4.906  0.1992  0.2283  0.1952
15374W        W34908  11.613   7.158  16.273 -0.1974  0.0095  0.1783
15375W        W34909   3.863   0.463  16.998 -0.1648 -0.1291 -0.0003
15376W        W34910   1.659   8.146   5.242  0.0189 -0.1726 -0.4076
15377W        W34911   9.900   7.466   0.503  0.1166  0.5236 -0.0946
15378W        W34912   3.978   7.729  15.812 -0.0585  0.4847 -0.1524
15379W        W34913  16.688  13.816  12.879  0.2998 -0.0315 -0.1014
15380W        W34914  12.519   7.502  13.808  0.0373 -0.2131  0.1605
15381W        W34915  15.070  16.145   0.931  0.2345  0.2156  0.1730
15382W        W34916   0.205  14.766  16.569 -0.0816 -0.0839 -0.0143
15383W        W34917   1.623   9.444  14.392  0.4402  0.1477 -0.3056
15384W        W34918  12.916   2.995   4.255 -0.3363 -0.1108 -0.0614
15385W        W34919   6.516   1.407  12.818 -0.1781  0.4889 -0.0669
15386W        W34920  13.037   4.904  12.277  0.1563  0.1198 -0.0158
15387W        W34921   2.282   4.299   0.365 -0.0509 -0.2721 -0.0075
15388W        W34922  15.063   6.299   2.548  0.1397  0.0078 -0.1410
15389W        W34923  10.178   5.687  12.463  0.0619  0.1951  0.0900
15390W        W34924   8.972  11.422  14.080  0.0077  0.2959  0.2069
15391W        W34925  13.349   8.487  15.945 -0.5182 -0.1219  0.0373
15392W        W34926   2.423   9.952  13.091  0.0404 -0.0593  0.2074
15393W        W34927  11.590   8.114   0.372 -0.1627 -0.0420  0.1530
15394W        W34928   3.877   3.781   2.920 -0.0907 -0.0366 -0.0512
15395W        W34929   1.911   5.090   5.217  0.2327  0.0655  0.1257
15396W        W34930   0.340   1.948   0.327  0.0737 -0.5634  0.1055
15397W        W34931  10.168  17.230  13.111  0.0004  0.0013  0.0986
15398W        W34932   9.599  14.746   0.242  0.1920 -0.3434 -0.5842
15399W        W34933   3.134  11.277   4.460  0.0416  0.1097  0.0664
15400W        W34934   2.896  13.655   0.565 -0.0570  0.2884  0.3206
15401W        W34935   9.086  13.513  12.201  0.2996  0.2979  0.1168
15402W        W34936   2.388  11.009   3.410  0.2218  0.0944  0.1824
15403W        W34937   8.152  11.647   4.357 -0.0684 -0.2183  0.3457
15404W        W34938  12.860   5.267  16.226 -0.0877 -0.0012 -0.0138
15405W        W34939  14.056   0.896   3.902  0.2492  0.1298  0.0204
15406W        W34940   5.419   3.104   4.928 -0.2765  0.0812 -0.3118
15407W        W34941   4.281  15.948  13.569 -0.1332  0.2503 -0.0076
15408W        W34942   0.051  16.113   4.263  0.2425  0.0602  0.0846
15409W        W34943  11.722   9.006  15.312 -0.0030 -0.1143 -0.0703
15410W        W34944   2.143   1.503   3.514  0.0083 -0.4365 -0.0115
15411W        W34945  11.928  12.684   4.621 -0.1023  0.0535 -0.0580
15412W        W34946   3.680  14.239   4.082 -0.2274 -0.1638  0.1039
15413W        W34947   1.298   6.425  16.068 -0.0243  0.0492  0.0221
15414W        W34948  14.210   5.208  12.973  0.1951 -0.0441 -0.3041
15415W        W34949  13.992  14.832   5.452  0.0931 -0.0181 -0.0169
15416W        W34950  14.509  10.630  12.621  0.2814 -0.1086  0.0451
15417W        W34951   2.865   8.386  17.164 -0.3306  0.1399  0.0333
15418W        W34952   2.259   1.015   1.425 -0.0637 -0.0473 -0.1455
15419W        W34953  12.676   1.199  15.389  0.2905  0.0392 -0.1961
15420W        W34954   7.216  13.696   0.962  0.1215  0.0010  0.0705
15421W        W34955  15.522  14.660  13.940 -0.4252 -0.1769  0.0002
15422W        W34956   0.655  17.466  12.590  0.0351 -0.1326  0.1000
15423W        W34957   6.926  10.369  16.533 -0.1053  0.3129  0.4061
15424W        W34958   5.800  17.301   1.639  0.4696 -0.0672  0.1492
15425W        W34959  14.881  16.423  16.725 -0.3859 -0.1451  0.3398
15426W        W34960   6.705  15.215  16.308  0.0345 -0.3561  0.2420
15427W        W34961   8.217  11.794   1.531  0.0167 -0.0297 -0.1846
15428W        W34962   5.319  13.109   0.263  0.1210 -0.2982  0.0825
15429W        W34963   6.886  17.253   0.749  0.0341  0.0560 -0.3050
15430W        W34964  12.815   4.370   1.954  0.1635  0.1754  0.0422
15431W        W34965  15.729  13.686   2.973  0.1951  0.1103  0.1313
15432W        W34966   2.614  12.312  17.229 -0.2425  0.1832 -0.0204
15433W        W34967  15.551   0.714  16.807 -0.3966  0.2211  0.1358
15434W        W34968  13.975   1.602  16.146  0.0681  0.2285 -0.1486
15435W        W34969  11.241  12.160  12.829 -0.1316  0.1990 -0.2315
15436W        W34970  14.048   3.308   0.924 -0.0405 -0.0978  0.1492
15437W        W34971  16.627   3.475   0.700  0.0265 -0.3480  0.0429
15438W        W34972  15.100  11.461  12.803 -0.1351  0.2104 -0.3372
15439W        W34973  13.572   4.087   4.639 -0.1266 -0.1859 -0.1556
15440W        W34974  10.304  11.720   3.009  0.2354  0.2976  0.1622
15441W        W34975   4.276   0.610  13.204  0.0378 -0.1659  0.0713
15442W        W34976   5.530   1.539  12.089 -0.1481 -0.1932 -0.3260
15443W        W34977   4.551  10.229  14.497  0.0168  0.3761  0.4559
15444W        W34978   9.708  15.585   0.804  0.2846 -0.0515  0.2705
15445W        W34979  15.863   6.419   1.556 -0.0668 -0.2637  0.2159
15446W        W34980   0.373   6.061   3.525 -0.1024 -0.3194 -0.1896
15447W        W34981   8.388   6.588  17.244  0.1414  0.1563  0.0290
15448W        W34982   7.913  14.904  15.887 -0.1602 -0.0661  0.2738
15449W        W34983   7.738  16.963   1.677 -0.1025 -0.2594  0.2934
15450W        W34984  12.837  13.047  12.833 -0.2808 -0.1583 -0.0740
15451W        W34985   8.455  13.041   5.592 -0.3310  0.1457 -0.1139
15452W        W34986   7.430  11.393   0.059 -0.2178 -0.0236  0.0123
15453W        W34987   3.304  12.461  15.258 -0.2752 -0.1144  0.0813
15454W        W34988   6.075  16.044  17.088 -0.1308 -0.2476 -0.2677
15455W        W34989   6.549   7.251  16.002 -0.1499  0.3087 -0.2040
15456W        W34990  15.971   0.842   0.401 -0.5059 -0.2763  0.0593
15457W        W34991  15.102   6.734  15.613 -0.0394 -0.1221 -0.0638
15458W        W34992   0.080  10.655   3.123 -0.0021  0.0484 -0.0381
15459W        W34993  16.609   1.003  16.543  0.1581 -0.0147  0.1488
15460W        W34994   1.297   9.420   0.734 -0.0984  0.0302 -0.1262
15461W        W34995  13.007   2.505  14.346 -0.1342  0.2208  0.3179
15462W        W34996   3.768  17.420   4.010  0.2006 -0.0911  0.2216
15463W        W34997   0.391   4.750   1.571 -0.1193 -0.0960 -0.0461
15464W        W34998   0.977   7.372   0.564  0.4716 -0.1276  0.0638
15465W        W34999   2.632   7.882  15.513  0.0409  0.0828 -0.0682
15466W        W35000   5.378  13.734  12.285  0.3048  0.2382 -0.0451
15467W        W35001  10.159  14.810   4.235  0.1307 -0.1023 -0.0400
15468W        W35002  15.816  10.021  14.866 -0.0383  0.2069 -0.2175
15469W        W35003   0.962   1.014   4.723  0.1560  0.0431  0.0897
15470W        W35004  16.008  11.495  14.039 -0.0225 -0.1382 -0.3250
15471W        W35005   1.841   0.871   4.510 -0.0318  0.0833 -0.1274
15472W        W35006   0.480   8.508  14.852  0.1429  0.0058 -0.3532
15473W        W35007  15.374  12.717   1.161  0.1247 -0.0165  0.0356
15474W        W35008   9.360  11.533   4.945 -0.0635 -0.1911 -0.0031
15475W        W35009   7.047   9.022   3.133 -0.0567 -0.2548  0.2676
15476W        W35010   1.938   5.802  12.248  0.0853  0.0938 -0.0020
15477W        W35011   2.947   0.119   0.553 -0.0420 -0.2404  0.0136
15478W        W35012   2.194   2.595  11.710 -0.3808 -0.1015 -0.2075
15479W        W35013   9.116   3.065  15.514 -0.0112 -0.1637  0.1708
15480W        W35014   9.866   2.219   4.228  0.0342 -0.1492  0.2013
15481W        W35015  15.085  17.369  17.222 -0.2227 -0.0492  0.1233
15482W        W35016  14.807   8.319  15.591 -0.3046  0.1082 -0.1358
15483W        W35017  11.049  14.698   3.126  0.2448  0.2199 -0.1254
15484W        W35018  10.145  16.715  16.174 -0.1528  0.3907 -0.1156
15485W        W35019   6.330  10.900   0.270  0.0556  0.1812 -0.0664
15486W        W35020  12.594   1.462   0.280  0.1039 -0.0886 -0.0658
15487W        W35021  15.535   0.804  14.911 -0.0943  0.1614 -0.1368
15488W        W35022   9.470  12.018   2.574  0.0283  0.1046 -0.0314
15489W        W35023  14.940   1.574  14.735 -0.2301  0.0543  0.0265
15490W        W35024   8.493   2.394   0.505  0.0869 -0.0482 -0.3046
15491W        W35025  11.852   3.707   1.024  0.0582 -0.0925 -0.0147
15492W        W35026  16.532  15.021   2.132  0.0313 -0.2975  0.0435
15493W        W35027   4.551   1.303  13.195  0.0401  0.2190  0.3816
15494W        W35028   8.113  10.394   2.984 -0.4559  0.0116 -0.0585
15495W        W35029  12.548   0.733   1.920 -0.2413  0.0294 -0.0454
15496W        W35030  16.963  10.484   5.989 -0.1240  0.2228 -0.0118
15497W        W35031  12.321   9.486   2.248 -0.1507  0.2781 -0.1943
15498W        W35032  14.610  14.463   1.298 -0.0522  0.0602 -0.0954
15499W        W35033   8.688  11.188   3.175  0.0456  0.1374 -0.1312
15500W        W35034  10.104   3.130  16.545  0.1899  0.2485  0.2283
15501W        W35035   1.651   9.447  15.308 -0.0896  0.1231  0.0196
15502W        W35036  11.695  17.294  16.002  0.5566  0.0110 -0.0344
15503W        W35037  12.860  11.193   2.178  0.0191  0.1013 -0.1529
15504W        W35038   0.077  16.515   1.396  0.0250  0.2321 -0.1654
15505W        W35039   1.691   8.357  16.059  0.0473 -0.0746  0.0915
15506W        W35040   7.750   7.748   0.517  0.1387  0.1070  0.0637
15507W        W35041  10.407   5.279  13.556  0.2040  0.0303 -0.2448
15508W        W35042  15.340  15.035  15.436  0.0329 -0.2599 -0.0716
15509W        W35043   5.807  10.731   2.600 -0.1237 -0.1447 -0.0878
15510W        W35044   3.594   2.367  15.806 -0.2402  0.1237  0.2285
15511W        W35045   3.409   6.727  12.252 -0.2452  0.0003 -0.1396
15512W        W35046  13.283  16.316  12.406  0.3484 -0.0311  0.4416
15513W        W35047  15.799   9.021  14.488  0.3562 -0.0856 -0.1907
15514W        W35048  11.818   5.002   3.137 -0.0628 -0.4940 -0.0913
15515W        W35049   8.459  12.728   0.393  0.0969  0.0295  0.4273
15516W        W35050   1.385  11.088   3.063  0.0810 -0.1901  0.0890
15517W        W35051  12.883  16.912  16.588 -0.3041 -0.2189 -0.1527
15518W        W35052   8.642  15.900  13.956 -0.0158 -0.0474 -0.0584
15519W        W35053  10.195   7.417  13.465 -0.2066  0.4405 -0.0026
15520W        W35054   6.824   8.466  17.225 -0.0554 -0.0090 -0.1204
15521W        W35055   2.686  10.622   1.909 -0.2349  0.1272 -0.0530
15522W        W35056  15.355   3.016   1.190  0.0890  0.0492  0.0366
15523W        W35057  11.995  16.165  13.571 -0.2095 -0.6512  0.0114
15524W        W35058   9.253   2.521   3.544 -0.0905 -0.2336 -0.1743
15525W        W35059  13.595  16.316  16.289  0.0176  0.1668 -0.0527
15526W        W35060   4.139   3.455  17.094  0.0239  0.0516 -0.1715
15527W        W35061   2.462   3.744  15.107 -0.1431 -0.3064 -0.1643
15528W        W35062   9.133   5.294  12.961 -0.1527 -0.1212 -0.1354
15529W        W35063  14.572  14.846  13.295  0.0499  0.0808 -0.0329
15530W        W35064  17.181   7.147  16.260  0.1909 -0.0203 -0.1754
15531W        W35065  14.018  17.090   2.277 -0.0941  0.0699  0.1059
15532W        W35066  10.534  13.637   0.512 -0.0946  0.0058 -0.0024
15533W        W35067   0.848  13.111   4.263  0.2440 -0.3641 -0.0733
15534W        W35068  12.522   6.131   4.408  0.1071 -0.0150  0.1064
15535W        W35069  12.788   7.545   5.064 -0.1022 -0.2353  0.0865
15536W        W35070   3.430  16.558   0.599  0.3128 -0.3335 -0.2536
15537W        W35071   3.921  13.169  17.026  0.4141  0.1317 -0.0415
15538W        W35072   5.624   7.383  15.237  0.2177 -0.2188 -0.2305
15539W        W35073   0.452   4.863  16.269  0.0993  0.2480  0.1039
15540W        W35074   7.281   4.273  14.693 -0.1730 -0.1346 -0.2405
15541W        W35075   5.967   9.848  14.642  0.1898  0.0802  0.2270
15542W        W35076  11.355   8.379   0.922 -0.1035 -0.0122 -0.4809
15543W        W35077   0.761  11.988   0.418  0.0025 -0.0835  0.0975
15544W        W35078   4.736   1.250  14.769  0.0865 -0.0738 -0.0969
15545W        W35079   9.886  14.292  15.361  0.0517 -0.1891  0.0361
15546W        W35080   5.750   7.885  16.021  0.1204  0.0070 -0.0664
15547W        W35081  15.253   9.238  12.676  0.3045  0.2431 -0.1123
15548W        W35082   0.941   3.139   0.657  0.0750 -0.0059 -0.1379
15549W        W35083  15.399   4.781   5.282 -0.1955 -0.1421  0.3257
15550W        W35084   7.771   2.658   1.983 -0.3246  0.1093  0.1940
15551W        W35085  14.624  10.098   1.744  0.0487  0.0998 -0.0095
15552W        W35086  14.401  16.806   2.026  0.2751  0.1323 -0.0131
15553W        W35087   8.406   3.441   2.880  0.1359  0.1664  0.0914
15554W        W35088   9.557  14.013   5.077  0.0161 -0.2119  0.3510
15555W        W35089   9.359   4.931  14.054  0.2341 -0.2071 -0.0054
15556W        W35090   9.244   8.133  14.319  0.0577  0.1190  0.0984
15557W        W35091   1.078   5.891   1.259  0.2283 -0.0857 -0.1511
15558W        W35092  10.694  10.913  15.084  0.1292  0.1458 -0.0498
15559W        W35093   5.485  14.557  16.671  0.1209  0.1612  0.0668
15560W        W35094  10.473   2.753  15.423  0.1303  0.0276 -0.0001
15561W        W35095   9.816   2.239   3.712  0.1188  0.2577 -0.0572
15562W        W35096  14.275   1.698   4.257 -0.1013  0.1726  0.1709
15563W        W35097  12.481   8.212  15.912  0.1310 -0.0897 -0.1605
15564W        W35098  15.838   2.944   4.625 -0.0687  0.1952 -0.2548
15565W        W35099   2.334   4.123   3.040  0.1345  0.3900  0.1222
15566W        W35100  11.587  12.388  14.728  0.2119 -0.2129 -0.0383
15567W        W35101  11.956  16.316   2.047  0.0805  0.0233  0.1890
15568W        W35102   8.018   0.580  13.965 -0.0633  0.1868 -0.1711
15569W        W35103   1.318  15.391   1.846  0.0236  0.0840  0.1218
15570W        W35104  13.995  11.494  14.235  0.0938  0.0391 -0.2663
15571W        W35105   5.966   5.530   6.033 -0.1082  0.2050  0.0921
15572W        W35106   5.679  10.795   3.065 -0.1148  0.1322 -0.2097
15573W        W35107   1.053   0.349  12.621 -0.1855  0.1944  0.0022
15574W        W35108  13.452   3.619   4.403  0.3908 -0.0016  0.0299
15575W        W35109  13.465  14.605  14.886 -0.1206 -0.1404  0.2748
15576W        W35110   6.876  16.477  12.807 -0.1717  0.0861 -0.3723
15577W        W35111   0.813  10.424   4.926  0.3616  0.1551 -0.0249
15578W        W35112   6.234  14.522   3.312  0.5520 -0.2924 -0.0135
15579W        W35113  13.659  15.128   3.614 -0.0186 -0.0114 -0.0045
15580W        W35114  16.539  14.847  15.965 -0.3079 -0.2698  0.1053
15581W        W35115   9.901   3.953  16.893 -0.5094  0.0510 -0.1759
15582W        W35116   4.091  10.792  12.893  0.0245  0.1259 -0.1456
15583W        W35117   7.740  11.708   3.389  0.1654 -0.3793  0.1152
15584W        W35118  12.603  14.831   0.769  0.0737 -0.0495 -0.1044
15585W        W35119  10.443   6.077   0.187  0.0379 -0.0425  0.1284
15586W        W35120   7.868  12.398  15.809  0.1810 -0.0665  0.0586
15587W        W35121   7.427  11.009  17.072 -0.0254 -0.1141  0.4103
15588W        W35122   2.764   2.169   5.085 -0.1838  0.0491  0.1377
15589W        W35123  14.071  16.309   0.657  0.0425  0.1630 -0.0875
15590W        W35124   4.199   9.314  16.329  0.1395  0.0777  0.0914
15591W        W35125  11.911  16.947   1.455  0.1260  0.3965 -0.1736
15592W        W35126   2.254  14.352  13.738  0.1721 -0.1789 -0.0645
15593W        W35127   6.897   4.421   4.684  0.0342 -0.2225  0.2449
15594W        W35128   7.275   0.849  12.437 -0.0677 -0.1314  0.0169
15595W        W35129  15.849  14.435  14.808  0.0967  0.3130  0.3425
15596W        W35130  15.843   0.832  13.630  0.0726 -0.0235  0.1669
15597W        W35131   8.865  11.369  13.562 -0.2282 -0.1321 -0.3412
15598W        W35132   3.034   0.379  12.270 -0.0120 -0.1908 -0.1623
15599W        W35133  13.166   6.365  16.955  0.0697 -0.2620  0.1367
15600W        W35134   0.596   0.367  12.886 -0.0253 -0.0652  0.2177
15601W        W35135   5.074  12.361  12.913 -0.2173 -0.1503 -0.1027
15602W        W35136  14.352   1.808   3.095  0.0614  0.0237  0.2125
15603W        W35137   0.244   3.459  15.272 -0.0438  0.2254 -0.2542
15604W        W35138   6.245  11.182   4.288  0.1657 -0.1477 -0.2261
15605W        W35139  15.294  13.029   3.477  0.0245 -0.2190  0.3416
15606W        W35140   0.591   4.878  15.078 -0.0120 -0.1726 -0.1256
15607W        W35141   5.303   8.277  15.375  0.3273 -0.0285 -0.2682
15608W        W35142  12.501  17.357   4.946 -0.1566  0.1054 -0.1300
15609W        W35143   9.014   2.520  14.899 -0.2594  0.0442  0.0770
15610W        W35144  15.736   5.499   2.696  0.1287  0.0039 -0.2290
15611W        W35145   4.923   0.003   0.812  0.0185 -0.1187 -0.1647
15612W        W35146  13.896  15.514   4.602  0.0540 -0.0133 -0.2634
15613W        W35147   4.262   3.170  16.674  0.2000  0.1936 -0.0747
15614W        W35148   9.083  14.023   5.155  0.0400  0.0664  0.0470
15615W        W35149   9.371  16.338   3.955 -0.2927 -0.1034 -0.0041
15616W        W35150   9.986   1.080   2.625  0.1669  0.2008 -0.1656
15617W        W35151   4.731   2.911  16.808  0.1027 -0.1140 -0.2612
15618W        W35152  14.705   9.025   2.590  0.0995 -0.0859 -0.0104
15619W        W35153  15.440   0.738   0.148 -0.1751  0.0426  0.0099
15620W        W35154   0.865  14.827   3.970 -0.0896 -0.0663 -0.0194
15621W        W35155   3.745   1.478  12.779  0.1166  0.1437 -0.2233
15622W        W35156   0.517   8.156   1.860 -0.2304 -0.0367  0.0244
15623W        W35157  16.373   2.010  15.071 -0.1850  0.1853 -0.0945
15624W        W35158  17.143  16.155   0.319 -0.2722 -0.2447 -0.2189
15625W        W35159  16.888  14.079  15.760  0.0046 -0.0221  0.1147
15626W        W35160  13.372  12.418   2.027  0.3012 -0.2520 -0.0296
15627W        W35161   0.474   5.598  13.808  0.1767 -0.0370 -0.2558
15628W        W35162   9.889  10.367   2.841 -0.1342 -0.0548  0.2820
15629W        W35163   8.838  17.248  16.340 -0.0078  0.1746 -0.0896
15630W        W35164   0.445   5.893  15.056 -0.1168 -0.0003 -0.0906
15631W        W35165   3.179  17.373   4.107  0.0746 -0.1326 -0.1963
15632W        W35166   6.676   8.873  13.672  0.1120  0.3420 -0.0777
15633W        W35167   4.938   9.134  14.868  0.1261 -0.0562  0.0574
15634W        W35168   4.633  10.335  13.051 -0.2419  0.2811 -0.0844
15635W        W35169  15.043   0.639  14.502 -0.4016 -0.0052  0.0656
15636W        W35170  11.067   2.344   0.375  0.0297  0.1994 -0.1081
15637W        W35171   5.586  11.955  15.595  0.0126  0.2350 -0.1027
15638W        W35172   5.960   5.580  13.818  0.2343  0.2723 -0.0296
15639W        W35173   0.804  13.709  12.152 -0.0763  0.1969 -0.0405
15640W        W35174   5.193   4.166   2.852  0.3044  0.2004  0.0719
15641W        W35175   5.078   6.689  15.294  0.1920 -0.1906 -0.0064
15642W        W35176   2.046   9.592  15.670 -0.0253  0.2029 -0.0942
15643W        W35177   9.390  13.470   5.200  0.1840 -0.1324  0.0477
15644W        W35178   1.674   3.929  12.834  0.0027  0.0168 -0.1260
15645W        W35179   7.761   8.329  16.216 -0.1554 -0.0255 -0.1969
15646W        W35180   6.650   4.545  12.363 -0.1032  0.1038 -0.1080
15647W        W35181   1.283  12.656  17.193  0.0358 -0.0074  0.2347
15648W        W35182   5.339   2.400   1.211  0.1059 -0.0013  0.0845
15649W        W35183   2.014   7.389   5.175 -0.1669 -0.0166 -0.0876
15650W        W35184   4.926   4.022   1.790  0.2430  0.1236 -0.0192
15651W        W35185   5.568  11.433   0.542  0.0848 -0.2368 -0.1546
15652W        W35186  15.383   8.893   3.670  0.1084  0.1329 -0.0508
15653W        W35187   7.844  10.940   0.907  0.1277  0.0978  0.0673
15654W        W35188   3.031  14.794  14.805  0.2048  0.0946  0.0881
15655W        W35189  16.373   4.942  12.196  0.0252 -0.0452 -0.2576
15656W        W35190  13.386   3.072  11.122  0.1385 -0.1687  0.0499
15657W        W35191  10.872   0.258   2.027  0.0226  0.1371 -0.3686
15658W        W35192   7.558   1.955   3.525 -0.0146  0.0398 -0.3297
15659W        W35193   2.768   5.190   1.043 -0.2227 -0.2521 -0.0474
15660W        W35194  16.721   1.320  13.689  0.0197 -0.1179 -0.1907
15661W        W35195  12.595  12.372   1.331 -0.3424 -0.0401 -0.0937
15662W        W35196   7.592   3.896  15.099  0.0965  0.0910  0.1176
15663W        W35197  13.703  17.274  16.504  0.0387  0.2067  0.0472
15664W        W35198   2.697   5.668  15.754 -0.0773 -0.0821  0.2214
15665W        W35199   0.461   6.122   3.005 -0.0673 -0.2177  0.1283
15666W        W35200  11.221   9.739   2.918  0.0701  0.1960 -0.2584
15667W        W35201   0.314   2.834   5.097 -0.0438  0.1481 -0.1776
15668W        W35202   4.278   8.586  13.170 -0.0964  0.1659  0.1000
15669W        W35203   6.681   3.033  13.556  0.1379 -0.1273  0.1413
15670W        W35204  16.612   0.362   0.629  0.0347 -0.3353  0.2977
15671W        W35205   1.800   5.224  15.470 -0.0076 -0.1014 -0.1155
15672W        W35206   2.018  15.257  14.818 -0.1080 -0.1597 -0.1099
15673W        W35207   6.381   4.177   4.882 -0.1440 -0.0848 -0.1055
15674W        W35208  13.301   9.220  12.421 -0.0465  0.0985 -0.5222
15675W        W35209  12.495  13.478   1.128  0.1138 -0.0572  0.1308
15676W        W35210   3.465  12.245   4.001  0.1383  0.1705  0.1598
15677W        W35211   0.970   5.719   3.481 -0.0183 -0.2203 -0.1149
15678W        W35212   4.099  17.308   0.709  0.2668  0.2834  0.2162
15679W        W35213  12.433   2.347  16.695  0.1354 -0.0625 -0.2028
15680W        W35214   1.926   8.896  12.515  0.2705  0.2323  0.0317
15681W        W35215   1.659   8.215   4.682 -0.4305  0.1335  0.0880
15682W        W35216   9.811   7.048  13.635  0.1145  0.1066 -0.0927
15683W        W35217   3.542   0.595   1.526 -0.1152  0.0080  0.0431
15684W        W35218   9.205   5.331   1.352  0.2419  0.1346 -0.1396
15685W        W35219  16.799   3.493   5.443 -0.1447 -0.0214  0.0221
15686W        W35220  11.068  13.121  16.890 -0.1008  0.2170 -0.0753
15687W        W35221  16.525   3.746  14.261 -0.2620  0.1455 -0.0861
15688W        W35222   9.860  13.566   5.186 -0.1346 -0.0941 -0.0115
15689W        W35223  16.999   0.243   0.934  0.0796  0.3013  0.0674
15690W        W35224  15.303   6.473  15.170  0.0809 -0.0982 -0.2292
15691W        W35225  13.661  13.755  13.833  0.0042  0.1486 -0.0576
15692W        W35226   7.950  11.470  15.925  0.0908 -0.1752 -0.0906
15693W        W35227  15.504   7.566   0.370 -0.2841 -0.0236  0.0325
15694W        W35228   8.315  14.667   3.779 -0.3133 -0.0269 -0.0647
15695W        W35229   3.285   1.604  13.930  0.2671 -0.1287 -0.1692
15696W        W35230  10.354  12.005   1.205 -0.1227 -0.1917  0.1748
15697W        W35231   0.106  10.145   2.548 -0.0463 -0.2049  0.2536
15698W        W35232   9.900  15.248   4.784  0.1779 -0.1957  0.0403
15699W        W35233  16.216  17.189   2.138 -0.2992  0.1152  0.1081
15700W        W35234  15.960   1.154  14.037  0.2580 -0.2119  0.2203
15701W        W35235   1.899  16.275  12.000  0.0368  0.3478  0.2644
15702W        W35236   2.951   1.757  12.737  0.0130 -0.5130 -0.0150
15703W        W35237  14.914  16.661   3.277  0.0171 -0.0409 -0.1278
15704W        W35238   6.630  11.375   3.176 -0.0273  0.0362 -0.1998
15705W        W35239  14.418   6.649   1.433 -0.0032 -0.1641 -0.1089
15706W        W35240   1.372   3.470  15.974  0.3614 -0.1937 -0.2877
15707W        W35241   8.062   0.372   0.073  0.2994 -0.0731  0.0270
15708W        W35242   0.405  12.987   0.618 -0.2451  0.3423 -0.2340
15709W        W35243  16.105   0.182  12.257  0.1084  0.4052  0.0638
15710W        W35244  13.756   1.786  12.712  0.0078  0.1390  0.0748
15711W        W35245   4.124   3.625   5.321  0.0611  0.0945  0.1047
15712W        W35246   1.536  15.394  14.513  0.1060  0.0154 -0.2317
15713W        W35247  13.594  16.497  16.933 -0.0460 -0.0223  0.0020
15714W        W35248  13.858   2.345   1.193  0.0926  0.0623 -0.1864
15715W        W35249  16.632   0.088   3.133 -0.1235 -0.0190  0.1701
15716W        W35250   0.668   2.904   0.108 -0.2785  0.0113 -0.2137
15717W        W35251  11.180  11.690   5.019  0.0581 -0.0765 -0.0090
15718W        W35252   4.750  15.792   0.091 -0.1804  0.0638  0.0504
15719W        W35253   8.029  13.210  16.554  0.1047  0.0568 -0.0915
15720W        W35254   6.745  14.564  14.744  0.1178 -0.1278  0.1255
15721W        W35255   4.314   2.050   2.831 -0.1616  0.0125  0.3222
15722W        W35256   7.538  10.008  14.938 -0.1006 -0.1007  0.1471
15723W        W35257   8.991  14.052   0.684 -0.1949  0.0688 -0.0125
15724W        W35258   0.871   7.957   2.168 -0.1684 -0.1136 -0.0477
15725W        W35259   8.850  15.917   2.564  0.1599 -0.0588  0.1687
15726W        W35260   4.371   5.870  15.189  0.3613 -0.1774  0.0383
15727W        W35261  14.888   1.276   3.672 -0.0759 -0.0731  0.1909
15728W        W35262   0.251   3.289   5.255 -0.1285 -0.1386 -0.1499
15729W        W35263  10.190  15.476  13.225  0.0266  0.2057  0.1938
15730W        W35264  15.461   1.129   0.437 -0.1802  0.1482  0.2857
15731W        W35265   5.140  15.590   2.344  0.0805 -0.0564 -0.0116
15732W        W35266  12.733  13.246   4.928 -0.0511  0.0292 -0.0803
15733W        W35267  12.876   2.003  12.421  0.0486 -0.3707 -0.0146
15734W        W35268  11.775   7.250  12.244  0.0251 -0.0865  0.0548
15735W        W35269   1.229  13.164   3.973 -0.1109 -0.1007 -0.1708
15736W        W35270   1.406  11.879   5.203  0.0435 -0.2326 -0.1351
15737W        W35271   7.475   1.870   1.526 -0.0270 -0.0713  0.0171
15738W        W35272   0.473   2.680  16.517  0.1299 -0.0119  0.0103
15739W        W35273   6.691   2.578  13.794 -0.0286  0.1168 -0.0603
15740W        W35274   2.728   4.401   4.369  0.2120  0.1746 -0.0033
15741W        W35275   7.322   5.597   1.826 -0.1370 -0.1854  0.0435
15742W        W35276  14.044   4.635  15.181  0.0552  0.0817  0.2051
15743W        W35277   5.727  15.879   0.126 -0.0075  0.0481  0.1771
15744W        W35278   3.242  16.069   4.157  0.0398  0.3106  0.0094
15745W        W35279  12.814  14.029   3.126 -0.3012 -0.0561  0.3023
15746W        W35280   9.736  13.146   1.453  0.1570 -0.3125 -0.0317
15747W        W35281   3.251  16.696   0.066 -0.4209 -0.0099 -0.1189
15748W        W35282   7.607  13.395   1.744  0.0616  0.1987  0.0073
15749W        W35283  17.308   5.895   4.870  0.1623 -0.0015  0.1191
15750W        W35284   0.896   6.312   2.714  0.0007  0.0464  0.3462
15751W        W35285  16.179   0.436  13.600 -0.0776 -0.1271 -0.3195
15752W        W35286   1.976  13.104  14.261  0.0139  0.4126  0.3722
15753W        W35287  15.525   9.701  12.642 -0.1381 -0.1844  0.0070
15754W        W35288   5.754   5.765  16.757  0.0318  0.3415 -0.2228
15755W        W35289   5.884  13.209   1.977  0.1642 -0.3606  0.1423
15756W        W35290   6.661  12.685  16.326  0.1337  0.1329 -0.4388
15757W        W35291   8.530  10.335  12.477 -0.3825 -0.0890  0.2587
15758W        W35292   5.562   6.868   1.547  0.3575 -0.0577  0.4714
15759W        W35293  16.216  15.370   4.374  0.0787 -0.1680 -0.3427
15760W        W35294   1.275   6.785  13.571  0.1769  0.1665 -0.2186
15761W        W35295   3.528   8.070  15.825  0.0729  0.1678 -0.1367
15762W        W35296   6.300  14.374   2.453 -0.0430  0.0910  0.1165
15763W        W35297  16.034   8.123  13.376 -0.1223  0.2188  0.1754
15764W        W35298   7.513   4.319  13.440 -0.1154  0.0469  0.1195
15765W        W35299  14.663   4.566   3.199 -0.0387  0.3131  0.0611
15766W        W35300   6.901  16.290   3.462  0.2348 -0.0090  0.2226
15767W        W35301  16.622   0.621   3.340  0.0379 -0.2289 -0.1185
15768W        W35302   3.040   2.585   5.161 -0.0906 -0.0275 -0.1029
15769W        W35303  16.597  10.187  15.545 -0.0132  0.1904 -0.2294
15770W        W35304  11.617  12.943   1.450 -0.1879 -0.2457 -0.2847
15771W        W35305  17.278   7.213   4.899 -0.0695 -0.4165  0.0588
15772W        W35306   2.842  16.560   1.433 -0.0796 -0.1889  0.0353
15773W        W35307   6.065  14.313  12.769 -0.0267 -0.1391 -0.2205
15774W        W35308  10.759  10.656   3.841 -0.2305  0.2051 -0.1137
15775W        W35309  12.649   7.724  14.748  0.0403 -0.0061 -0.0697
15776W        W35310   9.199  10.540   0.458 -0.2053  0.1520  0.0979
15777W        W35311  14.277   7.326  15.268 -0.0449 -0.1078 -0.0796
15778W        W35312   6.359  16.576  16.164 -0.0623  0.0344  0.1075
15779W        W35313   5.726   5.099  15.985  0.3573 -0.0220 -0.1732
15780W        W35314  16.107   5.769   0.725 -0.1761  0.2849  0.0218
15781W        W35315   6.718  17.253  13.420 -0.0125 -0.1788 -0.0081
15782W        W35316   7.534  15.272   2.602  0.2975 -0.2419 -0.2721
15783W        W35317  10.447  17.409   0.761 -0.0936 -0.2279  0.0113
15784W        W35318  16.449   2.779   1.197 -0.2480 -0.2114  0.2780
15785W        W35319   8.024  16.334   0.590  0.1268  0.0086 -0.4944
15786W        W35320  13.608  13.329   0.518  0.0441 -0.1182 -0.1163
15787W        W35321   6.122   4.089   2.639  0.1542  0.1377  0.0446
15788W        W35322  11.843   4.616   3.470  0.0023 -0.0577 -0.1535
15789W        W35323   4.286   1.159  14.443  0.0972  0.0829  0.0463
15790W        W35324   9.550   7.689  16.592 -0.1256  0.0453  0.2212
15791W        W35325  16.612   9.525  12.729  0.1997 -0.0955  0.1064
15792W        W35326  12.266   2.955  12.296  0.1870 -0.1436 -0.1366
15793W        W35327  17.364   3.007   2.485 -0.1413 -0.0715  0.0006
15794W        W35328  12.609  17.276   0.153  0.2612  0.1270  0.1877
15795W        W35329  15.354  10.975  14.493  0.0075  0.0007  0.0950
15796W        W35330  15.993  12.109   2.719  0.1184  0.0631  0.1978
15797W        W35331   7.519  13.457   3.929 -0.0595 -0.1743  0.0758
15798W        W35332   8.480   3.680   0.688 -0.1695 -0.3039  0.2356
15799W        W35333  15.909  12.395  16.595 -0.0797 -0.2957  0.0469
15800W        W35334   7.386   4.254  12.623  0.1724  0.1165  0.0486
15801W        W35335   9.141  13.350  13.324 -0.3419 -0.1315 -0.1141
15802W        W35336   7.421  13.202  13.866  0.4104  0.0335  0.3233
15803W        W35337  16.277   9.745   3.877 -0.0546  0.1524  0.0808
15804W        W35338  10.580   3.528  17.188 -0.0578  0.0274 -0.0983
15805W        W35339   0.917   5.926   3.011 -0.0798  0.1086  0.0332
15806W        W35340  14.163  17.449   3.846 -0.0748 -0.2621  0.0562
15807W        W35341   7.051  15.651  14.351 -0.0792 -0.1241  0.1493
15808W        W35342   2.186  13.566  16.745  0.1644 -0.2693  0.2070
15809W        W35343  16.930   4.020  16.729  0.1448 -0.3226  0.0844
15810W        W35344   4.688  16.187  15.704  0.0711 -0.2116 -0.0703
15811W        W35345  15.843   9.031   0.398  0.2173  0.0927  0.1761
15812W        W35346   8.665  13.259   0.500  0.0595  0.0097 -0.0799
15813W        W35347   2.798  11.212   1.361  0.1327  0.1873  0.1006
15814W        W35348   2.937  16.028   1.254 -0.2896  0.0863  0.0868
15815W        W35349   4.140   9.830  14.398 -0.0757  0.1889 -0.0398
15816W        W35350  10.752   1.577  14.890  0.2196 -0.0073  0.1659
15817W        W35351  15.274   4.977  13.781  0.0267 -0.0153 -0.0709
15818W        W35352  11.596  12.497   1.306  0.1450 -0.2109 -0.0958
15819W        W35353  14.503   4.350   2.743  0.1906 -0.0260 -0.1430
15820W        W35354  13.417   6.410   1.868 -0.0709  0.0265  0.0230
15821W        W35355  12.482  14.749  16.593 -0.3787  0.2626  0.1098
15822W        W35356   7.623   1.391   5.153 -0.1879 -0.2432 -0.0935
15823W        W35357  11.619   9.886   1.395  0.1813  0.3307 -0.2333
15824W        W35358   4.806  11.746  12.232  0.1077 -0.2119 -0.2489
15825W        W35359   7.851  14.389  16.153  0.3323 -0.2248 -0.1223
15826W        W35360  12.467   3.732  15.054 -0.1596 -0.1159 -0.0382
15827W        W35361   2.316  11.060  16.750  0.0589  0.0331 -0.3509
15828W        W35362   7.224   5.682  13.791 -0.3399  0.1012  0.1937
15829W        W35363  12.490   6.670  13.334  0.1741  0.5164  0.2193
15830W        W35364  14.186   0.613   1.566 -0.0064  0.2322 -0.0216
15831W        W35365   3.764   9.149  14.609  0.0686 -0.1820  0.1434
15832W        W35366  10.080  15.424   2.538 -0.0797 -0.4481 -0.0181
15833W        W35367   2.469  10.934  16.293  0.0490 -0.1609 -0.1448
15834W        W35368   8.303  11.448  15.600  0.0362 -0.0532 -0.0714
15835W        W35369  12.667   2.214   3.421  0.0842 -0.0850  0.0366
15836W        W35370   5.429  15.604   1.499  0.2723  0.1383  0.0894
15837W        W35371  11.200   2.017   4.393  0.1406 -0.3107 -0.2236
15838W        W35372  14.908   1.994   2.903 -0.1059  0.2002  0.1850
15839W        W35373   1.709   4.905  12.796  0.0736  0.1486  0.1658
15840W        W35374   1.070   6.248   4.776 -0.1970  0.1821  0.1616
15841W        W35375  13.198   1.799   1.641  0.0284  0.2705  0.1437
15842W        W35376  15.190  12.266   1.401 -0.0088 -0.1673  0.2669
15843W        W35377   3.307   0.711   3.782  0.0264  0.0382  0.0763
15844W        W35378   0.322   2.706   3.796 -0.2173 -0.0309  0.0854
15845W        W35379   7.128  17.442   2.467  0.1998 -0.0841  0.0940
15846W        W35380   9.792   0.939  13.786  0.0693  0.0030  0.3551
15847W        W35381  15.284  14.980  13.580 -0.0783 -0.0838 -0.0635
15848W        W35382   2.699   4.375  16.350 -0.1193  0.1430 -0.1229
15849W        W35383  15.553  13.729  14.884 -0.3328  0.0324 -0.0951
15850W        W35384   4.663  16.183  13.042 -0.1216  0.0966  0.1022
15851W        W35385   9.591   2.053  15.183  0.0292  0.1427 -0.4938
15852W        W35386   6.803   8.800   5.152  0.2323  0.2155  0.1331
15853W        W35387  17.090  13.385  13.549 -0.1309 -0.0902 -0.1005
15854W        W35388   3.091  12.235  13.862  0.4002  0.2837 -0.0795
15855W        W35389   5.437   3.545  15.352  0.0412  0.3190 -0.1288
15856W        W35390   2.374   0.341  15.503 -0.3214  0.2551  0.1272
15857W        W35391  10.464   5.592   1.772  0.1930  0.0555  0.2744
15858W        W35392  15.828  10.269   0.258 -0.1269  0.0543  0.0854
15859W        W35393  17.208  11.149   1.754  0.1182 -0.1204 -0.0027
15860W        W35394  16.269   7.780  13.662  0.1382 -0.0521  0.0652
15861W        W35395  14.016   6.565   0.488 -0.3448 -0.1549  0.0401
15862W        W35396   8.160   8.208   4.645  0.0381 -0.2779 -0.0805
15863W        W35397  12.334  10.206   2.050 -0.1354 -0.2990 -0.0154
15864W        W35398  15.158  13.741  14.117 -0.0815  0.2579  0.2299
15865W        W35399   9.761   1.006   6.269 -0.1225 -0.1484 -0.3529
15866W        W35400   7.391  16.350   3.359 -0.2868 -0.0803 -0.0732
15867W        W35401   4.639   9.187   5.222  0.0922 -0.1071 -0.1230
15868W        W35402   6.293   3.771   0.396  0.0084 -0.0656 -0.3394
15869W        W35403   5.414   6.869  12.348  0.1334  0.2583 -0.1566
15870W        W35404   3.030   1.920  14.317  0.0079  0.1675  0.1433
15871W        W35405   5.941   5.565   1.484  0.3819 -0.0660 -0.0850
15872W        W35406  16.065   7.775  12.421  0.2373  0.1777  0.0882
15873W        W35407   1.798   3.067   0.110  0.0666 -0.1962 -0.0731
15874W        W35408  11.169  14.036  14.579 -0.2884 -0.1266 -0.1329
15875W        W35409   2.518   9.177  12.550  0.1585  0.3504  0.0796
15876W        W35410  13.949   2.255   2.804  0.1065  0.0320 -0.0017
15877W        W35411  12.539   7.855   1.818  0.1845 -0.0984  0.0120
15878W        W35412   9.744  13.883   2.050 -0.0526  0.2520 -0.0506
15879W        W35413   3.826   0.472  13.040  0.0075  0.0266  0.1851
15880W        W35414   9.764  16.044   5.055  0.0675  0.0493  0.2347
15881W        W35415  14.093   7.220  17.163  0.2190  0.6273 -0.0270
15882W        W35416   4.728   3.275   4.793  0.0273 -0.2576 -0.0675
15883W        W35417   1.140   2.225   0.661  0.0442  0.0945  0.2773
15884W        W35418   9.214  15.543  13.191  0.0636  0.1286 -0.0931
15885W        W35419   3.549   9.384  12.534  0.0729 -0.1501 -0.2105
15886W        W35420   3.832   2.288   2.741  0.1418  0.0239 -0.0005
15887W        W35421  11.169   6.955   0.973 -0.1227  0.0399  0.3901
15888W        W35422  14.960  15.333  13.956 -0.2018 -0.0953 -0.1007
15889W        W35423  11.851  16.579  14.947 -0.2144 -0.0849 -0.1483
15890W        W35424   1.018  15.516  14.836 -0.2843 -0.1231  0.4647
15891W        W35425   6.799  13.741  14.882  0.2947  0.1424  0.1075
15892W        W35426  15.319   6.224   3.761 -0.0079  0.1981 -0.1133
15893W        W35427   9.134  17.055  15.120 -0.0741 -0.1973 -0.1116
15894W        W35428  14.269  13.288   0.001 -0.0338  0.0471  0.0153
15895W        W35429  15.960  14.011  15.731 -0.1587 -0.1416  0.2105
15896W        W35430  13.156   6.350   0.141 -0.1507 -0.0457 -0.1349
15897W        W35431   1.483   6.106  16.889  0.1321  0.2166  0.1206
15898W        W35432   9.131   3.206  16.471 -0.1203  0.3438  0.1891
15899W        W35433   8.851  10.286  12.939  0.0655  0.1591  0.2757
15900W        W35434   7.413  15.320   3.347 -0.0278 -0.0286  0.2024
15901W        W35435   9.948   5.526   0.890 -0.1352 -0.3191 -0.3125
15902W        W35436   9.297   6.959  17.140 -0.0346  0.4034 -0.2009
15903W        W35437  13.756  12.725   2.344 -0.3616 -0.2080 -0.3812
15904W        W35438   0.714  15.478  17.084 -0.0824 -0.0746  0.3237
15905W        W35439   2.666   7.448   0.159 -0.3613 -0.1622 -0.0510
15906W        W35440  15.248  10.529  15.496  0.0031 -0.0220  0.0261
15907W        W35441   8.148  16.575  15.237 -0.1245 -0.1582  0.1932
15908W        W35442  16.283  12.335  15.864  0.0616 -0.2604  0.0206
15909W        W35443  16.736  12.638   4.010  0.1064  0.0022  0.0136
15910W        W35444   8.136   9.444   2.922 -0.2200  0.1385 -0.0426
15911W        W35445   2.787  11.290   0.845  0.1067 -0.3184  0.1827
15912W        W35446  16.893   7.823   1.909  0.2757 -0.0124  0.1727
15913W        W35447   0.336   1.318   0.930 -0.0199 -0.0060 -0.1324
15914W        W35448  16.555   9.025  12.598 -0.1688  0.2152 -0.0065
15915W        W35449  16.694   5.439   3.011  0.0754  0.2432 -0.1852
15916W        W35450   8.365  14.368   2.647  0.0266 -0.1341 -0.2588
15917W        W35451   4.492  15.469  12.693  0.3226 -0.2969  0.0146
15918W        W35452  10.907  17.009  12.917 -0.2385 -0.0094 -0.2451
15919W        W35453   2.282   5.954  15.341 -0.0941  0.1404 -0.1156
15920W        W35454   8.725  12.219  16.955  0.0150 -0.2346  0.0014
15921W        W35455  10.456   8.897   4.554  0.2166 -0.2872 -0.0005
15922W        W35456  11.959   6.750   0.710 -0.3671 -0.2925  0.3993
15923W        W35457   6.789   3.716  15.387  0.0188 -0.2774 -0.2159
15924W        W35458  14.182   6.063  14.696  0.0840 -0.0280 -0.0255
15925W        W35459   3.449  11.251  15.491 -0.0555 -0.0389 -0.0683
15926W        W35460  14.655   8.168   4.599  0.1427 -0.0399 -0.0735
15927W        W35461  11.154   3.798  15.461 -0.1331  0.1213 -0.1253
15928W        W35462  14.935  15.919  14.916  0.0454  0.1996  0.2654
15929W        W35463  14.070  16.207  16.350 -0.1483 -0.0379 -0.1455
15930W        W35464   7.862   0.016   3.882  0.0383  0.0507  0.0146
15931W        W35465  10.707   6.922   0.593  0.0542 -0.1861  0.1400
15932W        W35466   2.987  14.062   2.940 -0.0259  0.4581  0.0433
15933W        W35467   1.823  10.705   4.611  0.0292 -0.1168  0.0866
15934W        W35468   3.926  11.229  15.057 -0.3873  0.2794 -0.3074
15935W        W35469  13.821   2.473  14.086 -0.0409 -0.2766 -0.2064
15936W        W35470  16.100   3.412   1.372  0.4235  0.0182  0.1056
15937W        W35471  10.118  13.419   4.724  0.0734  0.1076 -0.3037
15938W        W35472  12.160   4.531   0.792 -0.0235 -0.0367  0.0743
15939W        W35473  13.859  10.391  15.202 -0.1957 -0.2449  0.1518
15940W        W35474   7.768   4.508   4.022 -0.1114 -0.3513  0.0588
15941W        W35475   1.457  15.898   3.033 -0.1453  0.5066  0.2784
15942W        W35476   4.520  14.305   5.024  0.3181 -0.2213  0.1131
15943W        W35477   8.134  13.681   2.184  0.0011 -0.2789  0.0898
15944W        W35478   1.273  16.322  17.150  0.1506 -0.1620 -0.0543
15945W        W35479  13.447   2.500   3.523  0.1184  0.0860 -0.2309
15946W        W35480  15.891   4.853  15.563  0.1607  0.0818  0.3029
15947W        W35481  14.092  14.408  12.784  0.0145 -0.2375  0.2530
15948W        W35482   3.529   2.840  13.844  0.2756 -0.1115 -0.2957
15949W        W35483  17.026   6.246   2.945  0.2042 -0.1052 -0.0265
15950W        W35484   2.600  12.424  12.461  0.0046 -0.3414  0.0052
15951W        W35485   8.031   1.834  12.592  0.3119  0.1142 -0.2440
15952W        W35486   4.274  13.483  16.817 -0.1425 -0.0244  0.1210
15953W        W35487   1.376   6.471  12.476 -0.0017 -0.0773 -0.1463
15954W        W35488  11.966  13.740   1.847 -0.4071  0.1937  0.4679
15955W        W35489   2.427  16.901   3.920  0.2600  0.0282  0.0566
15956W        W35490   0.036   2.064  15.727  0.0718  0.0312  0.2039
15957W        W35491   7.905   7.661  14.595  0.1693  0.1177 -0.0716
15958W        W35492   8.101  13.968   0.712 -0.0432 -0.2131  0.1403
15959W        W35493  11.758   8.327   1.607  0.1316  0.0279 -0.0971
15960W        W35494  16.267   9.913  16.318 -0.2258  0.2151  0.1953
15961W        W35495  11.724  14.998   2.177 -0.0081  0.2441  0.0368
15962W        W35496   1.933   5.351  14.932  0.0407 -0.3221  0.0854
15963W        W35497  14.634  11.754   0.771 -0.0035 -0.1837  0.0466
15964W        W35498   2.124  11.046   4.848  0.2725 -0.0964  0.3018
15965W        W35499   7.843   0.572   0.611  0.1710 -0.3462 -0.2449
15966W        W35500   8.581   3.848   1.519 -0.1915 -0.0691 -0.1195
15967W        W35501   6.117  10.599  14.020  0.1886 -0.1387 -0.1628
15968W        W35502  13.768  10.649   4.592 -0.2657 -0.0696  0.2006
15969W        W35503   9.031   3.124   3.216 -0.0447 -0.1527  0.2019
15970W        W35504   5.834  14.065  14.449  0.1885 -0.1442 -0.0550
15971W        W35505   9.444   4.554   0.875 -0.0377 -0.0644  0.0321
15972W        W35506  12.829   1.537   4.212  0.1390  0.1735  0.2410
15973W        W35507   4.197  13.552   2.951  0.2456  0.0939  0.1145
15974W        W35508   8.027  14.706   2.815  0.0472 -0.0012  0.0702
15975W        W35509   3.332  11.767   0.403  0.1835 -0.0472  0.0704
15976W        W35510   2.196   9.614   1.938 -0.1875  0.1696 -0.0939
15977W        W35511   0.648   3.103  16.754  0.2302 -0.0692 -0.1704
15978W        W35512   5.911   8.592  16.013  0.0340 -0.0130 -0.0058
15979W        W35513  13.453   0.074  14.093  0.0131 -0.1287  0.1017
15980W        W35514  13.119   5.923  17.232 -0.1833 -0.1503 -0.0587
15981W        W35515   4.323   0.861  12.101 -0.2053 -0.0282 -0.1810
15982W        W35516   9.320  10.174   5.114 -0.0607  0.3553  0.0220
15983W        W35517  16.252   5.823  14.865 -0.1663  0.0604 -0.0063
15984W        W35518   1.594   3.837   3.638 -0.1594 -0.1500  0.1806
15985W        W35519   3.555   0.366  13.413  0.0230 -0.2529 -0.0425
15986W        W35520   3.820  16.617  15.372 -0.2490 -0.0715 -0.0415
15987W        W35521   4.909  16.412   2.372 -0.0916 -0.3069 -0.0363
15988W        W35522   8.933  11.705   1.385  0.0414  0.1658 -0.2508
15989W        W35523   6.865   9.149  12.623 -0.0935 -0.0962 -0.0496
15990W        W35524  13.590   6.867   4.221 -0.0451 -0.0687  0.0195
15991W        W35525   6.370   6.196   1.540  0.0084 -0.0073 -0.0791
15992W        W35526  16.063  14.380  16.862  0.0422 -0.1515  0.1356
15993W        W35527   8.060   2.595  14.604 -0.0881 -0.0732  0.0130
15994W        W35528  11.224   9.684  14.332  0.0793  0.0387 -0.1056
15995W        W35529  12.045  14.511   3.695 -0.0386 -0.1198 -0.0535
15996W        W35530   0.618   3.284  14.054  0.0320  0.1785  0.0070
15997W        W35531  11.307  17.388   0.952 -0.2716 -0.1719  0.1724
15998W        W35532   7.516  15.737   1.092  0.2071  0.1825  0.1549
15999W        W35533  15.737   1.607  15.443 -0.2271 -0.0060 -0.0675
16000W        W35534  15.414   5.900  13.297  0.1228  0.1138  0.3229
16001W        W35535   4.251   5.905   1.323 -0.1798  0.1667  0.1634
16002W        W35536   4.904   5.622  13.231 -0.1601  0.0465  0.0803
16003W        W35537  16.813   2.614   3.737 -0.0522 -0.2532  0.4392
16004W        W35538  12.867  12.554   3.854  0.1200 -0.1132  0.1659
16005W        W35539   7.936  11.065   4.528 -0.1522 -0.0820 -0.2597
16006W        W35540   7.271  11.693  15.287 -0.0128  0.1607 -0.0249
16007W        W35541   1.572   7.197  17.112 -0.1592  0.0976  0.1667
16008W        W35542   9.511  13.177   2.965 -0.0308 -0.1956  0.0656
16009W        W35543   8.975  17.252  15.574 -0.0840 -0.3335  0.0556
16010W        W35544   4.580   3.466   3.312  0.0081 -0.0915  0.0788
16011W        W35545   3.424   4.108   1.623  0.1325  0.0853  0.1371
16012W        W35546   4.570  12.644   5.244 -0.0536 -0.0464 -0.1338
16013W        W35547  16.991   8.577   0.806 -0.2598 -0.3096 -0.0372
16014W        W35548   5.470   7.768   2.935 -0.2975  0.0461  0.1373
16015W        W35549  11.102   8.658   2.648 -0.1795  0.1813  0.0106
16016W        W35550   8.654   7.670  14.092  0.0715  0.1233  0.1890
16017W        W35551   0.973   0.988   0.028 -0.1268  0.0167  0.0465
16018W        W35552  11.544   4.369  13.629  0.0900  0.1128 -0.3287
16019W        W35553   0.817   1.712   0.671 -0.1726  0.1126  0.0152
16020W        W35554  14.482  13.345  13.990 -0.1822 -0.1197 -0.0483
16021W        W35555   3.790   4.224   1.240  0.0506 -0.0342  0.0926
16022W        W35556   8.740   1.278   2.897 -0.2167  0.0022  0.0266
16023W        W35557   7.980  15.192  14.409 -0.0097  0.1723  0.2518
16024W        W35558   7.281   9.548   0.711  0.1305  0.2279  0.0250
16025W        W35559   7.789   1.169   2.413 -0.1323 -0.0592  0.1445
16026W        W35560   2.020   8.731  16.238 -0.3879 -0.1870 -0.1126
16027W        W35561  12.551   0.214  12.474  0.0232 -0.2665  0.1965
16028W        W35562   7.167  16.788   0.504  0.1329 -0.2537 -0.0622
16029W        W35563  12.876  16.262   1.119  0.1560 -0.1567 -0.0132
16030W        W35564  10.009   2.219  12.305  0.0269  0.0785 -0.0550
16031W        W35565   4.670  16.821   1.289  0.0766  0.0286  0.0661
16032W        W35566   9.829   1.858  13.884 -0.1465  0.1408 -0.0541
16033W        W35567  11.067  10.631   4.655 -0.1826 -0.1322  0.0670
16034W        W35568   0.783   9.470   2.097  0.0798  0.0659  0.1897
16035W        W35569  13.661   7.365   2.834  0.2217  0.2582 -0.0288
16036W        W35570   1.253  14.903  14.088  0.2241 -0.0831  0.2974
16037W        W35571  10.091   5.000  13.236 -0.1600  0.2817 -0.0317
16038W        W35572   7.124   6.845   4.314  0.1215  0.5098 -0.1364
16039W        W35573   2.353   5.986  16.691 -0.1658 -0.0446  0.2263
16040W        W35574   4.348  12.838   3.901 -0.1667  0.0167  0.6543
16041W        W35575  13.590   7.882  12.504 -0.0765  0.2805  0.2852
16042W        W35576  16.401   9.898   1.783 -0.1127  0.0344 -0.2906
16043W        W35577  11.517  13.354  14.455  0.0227  0.6396  0.1030
16044W        W35578   2.341  16.475   0.111  0.0851 -0.2273 -0.1651
16045W        W35579   8.921  11.772  15.217 -0.2312  0.0076  0.1274
16046W        W35580   3.591  11.818   0.817  0.0933  0.2855  0.0094
16047W        W35581  17.074   2.253   2.475  0.0520 -0.0311  0.1442
16048W        W35582  16.146  14.592   2.587  0.1832 -0.0025  0.1830
16049W        W35583  17.438   0.829   0.347  0.0784 -0.1078  0.0129
16050W        W35584   9.670   8.436   3.963  0.2575 -0.1624  0.0053
16051W        W35585   9.831   7.896  13.527  0.1541 -0.2945 -0.0665
16052W        W35586   5.394  11.651  14.756  0.1682  0.0299  0.0414
16053W        W35587  11.724   5.129   4.784  0.0854  0.2748 -0.1250
16054W        W35588   5.755  13.036   2.431  0.0122 -0.1440  0.1201
16055W        W35589   1.692   8.111   4.207  0.3528  0.2530  0.0619
16056W        W35590   7.161   1.119   3.913 -0.0626  0.1930 -0.0961
16057W        W35591   0.096   4.830   3.843  0.0794  0.0025  0.1331
16058W        W35592   9.344   6.767   0.371  0.1259 -0.1215 -0.1737
16059W        W35593  10.816   9.772   4.073  0.0341  0.1016  0.0285
16060W        W35594  14.991  15.952  16.352  0.0608  0.1532  0.0288
16061W        W35595  11.445   6.713   3.930  0.0228  0.2671  0.0630
16062W        W35596  11.844  10.611  15.698 -0.0048  0.0784 -0.0652
16063W        W35597   3.298  11.725  16.693  0.0155  0.1169 -0.2982
16064W        W35598  12.011   9.304  17.273 -0.0176 -0.1076  0.1720
16065W        W35599   0.085  14.139  12.078  0.0213 -0.0666 -0.2248
16066W        W35600   0.424  17.409  12.122 -0.0877  0.0325 -0.0484
16067W        W35601   4.025   8.547   3.510  0.1029 -0.1400  0.0339
16068W        W35602  13.772   8.747   4.401 -0.1378  0.0573  0.2819
16069W        W35603  13.407   4.169   5.118  0.1418 -0.0680  0.0648
16070W        W35604   7.867   4.484   2.345  0.1171  0.0606  0.0532
16071W        W35605  11.522   4.725   0.761 -0.0246  0.0462  0.0027
16072W        W35606   9.022   2.340  16.323  0.1914  0.2486 -0.0536
16073W        W35607  12.142   4.912   4.010 -0.0889 -0.0691 -0.1283
16074W        W35608  10.991  15.874  15.405  0.2981 -0.2192 -0.0322
16075W        W35609  13.570   0.618  12.677 -0.0539 -0.2048  0.2083
16076W        W35610   6.008   6.999   1.200 -0.1198  0.0001 -0.1432
16077W        W35611  16.202  11.513  15.231 -0.0858 -0.2166 -0.3255
16078W        W35612   3.772   1.807  13.225  0.0421  0.0396  0.0038
16079W        W35613  10.609   5.139  15.445 -0.0153  0.0804 -0.0470
16080W        W35614   0.127   9.351  15.828 -0.3236  0.0588  0.0962
16081W        W35615   2.437   4.827   0.955 -0.0739 -0.0078 -0.2506
16082W        W35616  14.137   0.454   3.392 -0.1837  0.1420 -0.1267
16083W        W35617  13.611   5.799  12.989  0.0966 -0.1698  0.1902
16084W        W35618   5.607   3.157  15.731  0.1315  0.2709 -0.0989
16085W        W35619   0.819  15.650  16.159 -0.1910  0.1234  0.1500
16086W        W35620  10.121  16.664   3.281 -0.3244 -0.2185  0.0661
16087W        W35621  15.786  12.479   0.934  0.1355 -0.2607 -0.0908
16088W        W35622   8.046   3.499  14.627  0.0537  0.0850 -0.1108
16089W        W35623   9.548   1.010   3.596  0.1504  0.2178 -0.2107
16090W        W35624  13.872   3.877  12.857 -0.1088  0.1227 -0.0009
16091W        W35625  14.049   0.966  14.791 -0.3305 -0.1097  0.1428
16092W        W35626   5.651  10.524  14.816 -0.0956  0.0902 -0.0697
16093W        W35627  16.409   9.048  13.923  0.0097 -0.0283  0.0456
16094W        W35628  13.815   6.315  14.869  0.3748  0.2681 -0.1695
16095W        W35629  15.292   8.397   3.819 -0.2799  0.3202  0.0711
16096W        W35630   9.364   1.031  16.180 -0.3084 -0.4043 -0.0799
16097W        W35631   6.389   4.495   2.426  0.0628  0.0672 -0.3515
16098W        W35632   2.499  15.464   4.320  0.3068 -0.2799 -0.0766
16099W        W35633  12.315   8.636   5.133 -0.1034  0.0204 -0.2738
16100W        W35634   5.131   3.464   1.085  0.0846 -0.1975 -0.0302
16101W        W35635  10.937  11.818  14.895  0.3803  0.0240  0.1066
16102W        W35636  16.506  17.032  16.710  0.2541  0.0081 -0.1057
16103W        W35637  10.521  13.911   2.238 -0.3495 -0.2383  0.1882
16104W        W35638   0.615   5.788  12.174  0.0993  0.2633 -0.0366
16105W        W35639  16.999  17.118  12.174  0.0476  0.1368  0.1224
16106W        W35640  11.105  12.380   0.872 -0.1455 -0.2545  0.1488
16107W        W35641  11.878  10.969  16.735 -0.1483 -0.2282  0.1296
16108W        W35642  16.187   5.277  16.084 -0.0260 -0.1610 -0.1355
16109W        W35643   3.350   7.626  15.931  0.0012  0.3947 -0.3796
16110W        W35644   6.654   6.369   3.161 -0.1460 -0.1448  0.0596
16111W        W35645  15.956  14.753  14.309 -0.1528 -0.2457  0.3505
16112W        W35646  13.795   8.271   1.941 -0.1228  0.1237 -0.0739
16113W        W35647   4.937   1.299  12.772  0.0101  0.2409 -0.1018
16114W        W35648  13.245   6.497   2.718 -0.2881  0.1935 -0.0033
16115W        W35649   4.931  15.997  16.183  0.0025 -0.0529  0.0993
16116W        W35650  11.258   7.216  14.454 -0.2064  0.3566  0.0324
16117W        W35651   6.571   5.389   2.228 -0.2924 -0.0277  0.1285
16118W        W35652  12.165  10.305   5.170  0.0115 -0.0358 -0.1130
16119W        W35653  12.760  15.756   1.050 -0.3587 -0.1096  0.1622
16120W        W35654   7.007   7.320   6.139  0.0309 -0.1678 -0.0343
16121W        W35655  10.357  12.505  17.243  0.1164 -0.1260 -0.1532
16122W        W35656  12.840  10.889  16.521 -0.2363 -0.2268 -0.2452
16123W        W35657  11.819  11.482   5.524 -0.3576  0.1785 -0.0902
16124W        W35658   4.710  11.980  16.636 -0.0859 -0.4118  0.1816
16125W        W35659  12.609  10.189  13.091 -0.2469  0.0985  0.0329
16126W        W35660   8.862   7.941   5.184  0.0644 -0.2109 -0.0305
16127W        W35661   2.237   8.736   2.461  0.2684  0.3245  0.0986
16128W        W35662   3.777  10.567   2.222  0.3134 -0.1568 -0.2117
16129W        W35663  17.117  13.147  13.043  0.0605 -0.2153 -0.3344
16130W        W35664   8.301   2.902  16.682  0.0784 -0.0784  0.1241
16131W        W35665  10.485  11.155   1.835  0.0943 -0.0503 -0.0825
16132W        W35666   4.057   5.162  15.873 -0.0583  0.2471 -0.1060
16133W        W35667   1.716   9.134   4.288  0.0185  0.0301  0.1579
16134W        W35668   4.889   8.947   3.887 -0.0050 -0.2245  0.4583
16135W        W35669   1.984  10.412  16.180  0.1850  0.1004  0.1738
16136W        W35670  13.637   3.201  15.250  0.0417  0.1673  0.0413
16137W        W35671  13.469   3.530  16.142 -0.0135  0.0865 -0.2818
16138W        W35672   5.722  10.393   0.229 -0.0912 -0.2111 -0.0612
16139W        W35673  14.713   2.375  16.098  0.0358 -0.0192  0.1803
16140W        W35674  15.602  13.463   1.722 -0.4421 -0.1808  0.3159
16141W        W35675   0.068   2.539   2.521  0.0067  0.0031  0.0549
16142W        W35676  13.633  10.307  14.042 -0.0366 -0.2146 -0.0375
16143W        W35677   8.826  10.799   3.459 -0.4470  0.3707 -0.1529
16144W        W35678   9.480  13.361   3.526 -0.1401 -0.3173  0.1407
16145W        W35679  12.593  16.716   4.010  0.4398 -0.3467 -0.0425
16146W        W35680  14.571   0.480   1.210 -0.3998 -0.2502  0.1746
16147W        W35681  14.441   8.918   3.971 -0.1352  0.1132  0.2438
16148W        W35682   6.788   1.458   3.751  0.1176  0.0255  0.0630
16149W        W35683   6.038  12.624   5.055 -0.1076  0.2062 -0.1949
16150W        W35684   1.722   9.072   0.309  0.1955  0.2481  0.0649
16151W        W35685  11.037   3.983   2.653 -0.0516 -0.0502 -0.0663
16152W        W35686  12.780   0.288   4.972 -0.0832  0.1516 -0.0481
16153W        W35687   2.557  11.050   2.680 -0.2284 -0.0497  0.1971
16154W        W35688   2.581   4.511   3.896  0.0640 -0.1094  0.1413
16155W        W35689  11.247   8.540  13.090 -0.1028  0.4368 -0.2546
16156W        W35690   2.363  14.440   4.373 -0.1059 -0.1883 -0.0895
16157W        W35691   7.346  16.802  12.845  0.4287 -0.1937  0.3400
16158W        W35692   4.924   5.019   1.370 -0.4751  0.1403  0.4228
16159W        W35693  12.801  11.795   1.017 -0.1472  0.1305  0.1802
16160W        W35694  16.080  16.720   2.313  0.1452 -0.0015  0.0735
16161W        W35695   1.154   2.583  13.877 -0.0396 -0.2205  0.3400
16162W        W35696  17.247   9.183  15.475  0.0190 -0.1507  0.0021
16163W        W35697  12.887   2.745   1.070  0.2335 -0.2737  0.1416
16164W        W35698   3.598   6.587   2.921  0.0074  0.1316  0.3343
16165W        W35699  12.829  17.087   0.553 -0.0041  0.2685 -0.1333
16166W        W35700   4.537   2.037  11.657  0.0220 -0.0882 -0.2163
16167W        W35701  10.387  12.035  13.173  0.3393  0.1098 -0.2726
16168W        W35702   6.392  14.839  14.495 -0.1732  0.1837 -0.1037
16169W        W35703   6.535   1.562  13.743  0.0033  0.1877  0.0497
16170W        W35704   2.035   3.267  11.202 -0.1119 -0.1841  0.3464
16171W        W35705   2.216   5.692   0.597  0.0562  0.0647  0.0445
16172W        W35706  13.646   6.823   2.856 -0.4035 -0.0123 -0.1948
16173W        W35707  11.632   2.385   0.956 -0.1853  0.3140 -0.0822
16174W        W35708   3.837  14.614  13.870  0.0520  0.2202  0.1676
16175W        W35709   1.396   0.711  16.118 -0.0592  0.1424  0.0182
16176W        W35710   3.199   1.810   1.936 -0.0506 -0.0965  0.1549
16177W        W35711  10.876  17.257   2.126  0.1567 -0.0730  0.0103
16178W        W35712   0.604  14.322   1.744 -0.1381  0.3725 -0.3168
16179W        W35713   5.100   9.750   0.053  0.0857  0.0840  0.0939
16180W        W35714   1.274   3.357   3.731  0.1921 -0.0597 -0.0036
16181W        W35715   0.279   5.264  15.088  0.0976 -0.2088  0.3658
16182W        W35716   5.887   0.108   0.940  0.2459  0.1059  0.3443
16183W        W35717   4.712  11.863   0.772  0.0506  0.0939 -0.1612
16184W        W35718   1.397  14.438   1.308 -0.1366 -0.2703  0.0163
16185W        W35719   2.014   4.652   4.582  0.1810 -0.0508  0.1192
16186W        W35720  12.563  13.400   0.563 -0.0219 -0.0647  0.4893
16187W        W35721  15.307  15.599  13.560  0.0754 -0.0017  0.3932
16188W        W35722   7.838   6.115  13.161 -0.2732  0.1473 -0.0021
16189W        W35723  11.861   7.805  14.188 -0.1524 -0.1901  0.0028
16190W        W35724   8.522   9.364   4.341 -0.1949  0.3375  0.2045
16191W        W35725  15.719   8.255  15.908 -0.0358 -0.1492 -0.0021
16192W        W35726  13.032   9.972  15.084  0.2591 -0.2393 -0.2229
16193W        W35727  15.329   1.718  15.151 -0.1800 -0.0566 -0.3106
16194W        W35728   2.060   5.688  12.780 -0.1030 -0.0735  0.0613
16195W        W35729   9.751   6.575  12.737  0.1257 -0.0255  0.1853
16196W        W35730   4.272  15.161   4.387 -0.1734  0.0557  0.0355
16197W        W35731  14.037   0.306   2.088 -0.1080 -0.0708 -0.0733
16198W        W35732   4.461  13.457   2.028 -0.4354 -0.1243 -0.0746
16199W        W35733  11.650   4.505   2.935 -0.2007 -0.0551 -0.0616
16200W        W35734  17.411  12.674   0.050 -0.1323  0.2153 -0.1227
16201W        W35735  15.980  10.153  13.044  0.0666 -0.1390  0.2140
16202W        W35736   5.879   8.063   2.697  0.2250 -0.1045  0.2609
16203W        W35737  17.325  11.341   3.622  0.1771 -0.1061  0.0799
16204W        W35738   6.475   7.531  15.043  0.1099  0.2521  0.1503
16205W        W35739  15.270   7.481  15.812 -0.0272  0.0925 -0.2448
16206W        W35740  15.447  16.353  14.097  0.0012 -0.2651 -0.1689
16207W        W35741   9.102   3.791  12.891 -0.0707  0.2591  0.0777
16208W        W35742  10.797  17.381  12.367  0.2171  0.0391 -0.0653
16209W        W35743  10.197   7.592  15.096 -0.1848 -0.0930 -0.0062
16210W        W35744   0.801  13.931   3.333  0.0323  0.0782  0.1752
16211W        W35745   3.833   6.662   1.800  0.0127  0.2701  0.0045
16212W        W35746  12.119   4.085  15.776  0.2851  0.1614  0.2212
16213W        W35747   7.215   1.587   3.431 -0.1153 -0.1010  0.0179
16214W        W35748   4.642  14.521   3.835  0.0972  0.0990 -0.1429
16215W        W35749   9.437   5.001   5.263 -0.0377 -0.2006  0.1826
16216W        W35750  13.191   6.614  14.554  0.1484  0.1007  0.5972
16217W        W35751   0.500  16.896  12.454 -0.0555 -0.4631 -0.1021
16218W        W35752  15.940   9.269  15.551 -0.2508  0.1577  0.2738
16219W        W35753  10.082  15.897  15.257  0.1968  0.2630  0.2067
16220W        W35754  15.635   1.341   4.645  0.0429 -0.1061 -0.1346
16221W        W35755  14.349   0.049  15.032  0.0268 -0.1964  0.1000
16222W        W35756   8.074  13.028   0.696 -0.0498  0.0435  0.1313
16223W        W35757   4.970   1.619  16.390  0.0228 -0.1079  0.0116
16224W        W35758  10.291   7.232   3.267  0.1190 -0.2103 -0.0664
16225W        W35759  14.928   0.249   1.513 -0.1465  0.1494 -0.1561
16226W        W35760   9.865   6.703   3.185 -0.2938 -0.0469 -0.1041
16227W        W35761   8.450   2.265  16.518  0.0728 -0.0894  0.2489
16228W        W35762   5.074  17.462  11.319  0.1178 -0.1386  0.0881
16229W        W35763   6.232  12.515  16.549  0.0051  0.2963  0.1629
16230W        W35764   6.137  14.557   1.991 -0.2087  0.0345 -0.0164
16231W        W35765  10.774  16.720  16.109  0.2276 -0.1226  0.1786
16232W        W35766   5.033   6.494  16.471 -0.3352 -0.1127  0.0370
16233W        W35767   8.039   3.980  16.812  0.1829 -0.3057  0.0838
16234W        W35768   3.928  11.534  17.130  0.0578  0.1877 -0.1962
16235W        W35769   8.790   6.212   1.180 -0.2503  0.1724  0.0584
16236W        W35770   7.365  12.446  15.743 -0.0140  0.0863 -0.2414
16237W        W35771  11.990   5.247  12.542 -0.0813  0.0309  0.0262
16238W        W35772   0.492   6.320   5.083 -0.0629  0.0114  0.3501
16239W        W35773   0.274   9.192  13.369  0.2646  0.0862  0.1772
16240W        W35774   3.033   0.358  13.628  0.1661 -0.1909 -0.0648
16241W        W35775  12.742  13.051  15.012  0.1641 -0.3292 -0.0990
16242W        W35776   9.024   9.765  16.655 -0.0858  0.1927  0.3963
16243W        W35777  17.473  12.992   1.958  0.0506  0.2015  0.1528
16244W        W35778   2.845  10.255  13.241  0.5051 -0.2091  0.0443
16245W        W35779  12.053   9.017   3.676  0.1338  0.0860  0.2597
16246W        W35780  13.008  11.645  13.876 -0.0652  0.2362 -0.0732
16247W        W35781   5.594   0.008  12.732 -0.4136  0.0040  0.3906
16248W        W35782   7.899   4.992   0.151 -0.0075 -0.1714  0.1102
16249W        W35783  10.096   3.861   3.674  0.0119 -0.1286 -0.0704
16250W        W35784  11.189  10.564   2.881  0.2988 -0.3080  0.0937
16251W        W35785  16.345   5.249   3.848 -0.1607 -0.0514 -0.5423
16252W        W35786   7.469   6.168  14.640 -0.2201  0.1552  0.0290
16253W        W35787  17.222   6.781   1.006  0.0126  0.2208  0.1783
16254W        W35788   0.211   8.323   1.157  0.0344 -0.0772  0.0579
16255W        W35789   2.597  10.811   1.063 -0.2243 -0.0327 -0.0576
16256W        W35790  11.513  14.104   4.182  0.1731  0.1573 -0.1604
16257W        W35791  12.270   3.346  14.185  0.0774 -0.1479  0.0535
16258W        W35792  15.999   1.143  12.002  0.0811  0.0492 -0.2676
16259W        W35793  12.633   5.198   1.378  0.0372 -0.0651 -0.0882
16260W        W35794   2.877  12.921  14.860 -0.1951  0.0052  0.3106
16261W        W35795  17.385   2.646  16.870  0.0888  0.0731 -0.2675
16262W        W35796  16.292  15.563   0.443 -0.1430 -0.0170  0.2554
16263W        W35797  15.252   9.881   2.609  0.0493  0.1934 -0.0244
16264W        W35798  16.640  16.068  14.681 -0.0658 -0.0321  0.0108
16265W        W35799   5.070   4.113   1.247  0.0062  0.0340 -0.3358
16266W        W35800  13.241   3.749   0.402 -0.0491 -0.0268 -0.2165
16267W        W35801   4.945  10.107  16.870 -0.3547 -0.0467  0.0794
16268W        W35802  16.783   5.505  16.689 -0.1118 -0.2268 -0.0258
16269W        W35803   5.536  16.951  15.734  0.2108  0.0631 -0.1093
16270W        W35804  12.296   7.603  16.659  0.1319 -0.1410 -0.2375
16271W        W35805   8.200  15.786   2.444  0.0318  0.1704  0.1257
16272W        W35806  16.150   5.026  13.672 -0.2147  0.0108  0.0534
16273W        W35807  10.974  15.829  13.586 -0.0133  0.1279 -0.0348
16274W        W35808  10.784   7.906   0.565  0.2581  0.1289  0.1118
16275W        W35809   3.777  12.794   1.889 -0.1131  0.0336  0.0408
16276W        W35810  10.082  13.881  15.565 -0.0990  0.3300 -0.1528
16277W        W35811  16.645   4.676  12.494  0.1575  0.1303 -0.1421
16278W        W35812   8.914  13.369  17.119  0.2745  0.0812 -0.1653
16279W        W35813  11.887  16.050  17.063  0.3758 -0.3612  0.1519
16280W        W35814   0.124  16.912   3.728  0.1942 -0.1209  0.1760
16281W        W35815   6.368  10.972   0.795  0.0826 -0.1301 -0.1131
16282W        W35816  10.986   7.632  14.214 -0.0251  0.0732 -0.1373
16283W        W35817  16.317   7.114   0.815 -0.0459 -0.0388  0.1506
16284W        W35818   6.243  10.080  13.772 -0.0228 -0.0936  0.1352
16285W        W35819  16.741   6.217   2.525  0.2272 -0.0205  0.0797
16286W        W35820  16.182   3.685  13.269  0.0478  0.0028  0.1579
16287W        W35821   4.555  16.964  13.561 -0.1300  0.2216  0.0059
16288W        W35822   4.423   3.103   0.566  0.0939 -0.2453  0.0047
16289W        W35823   1.480   0.928   0.186  0.1221  0.1839  0.0008
16290W        W35824   3.236   1.488   0.402 -0.0815  0.0882 -0.3236
16291W        W35825   9.409  10.951   4.384  0.1284  0.0457  0.0715
16292W        W35826   5.025  14.544   2.887 -0.1670 -0.1254  0.2929
16293W        W35827  10.211   4.119  15.867  0.0610 -0.0283  0.2029
16294W        W35828   7.130  13.336   3.629  0.3141 -0.2672 -0.1124
16295W        W35829   3.879  10.386  16.940 -0.0104  0.1011 -0.2741
16296W        W35830   0.748  12.624  16.371  0.1423  0.3149 -0.2467
16297W        W35831   5.942   8.959   5.028 -0.1552 -0.0648 -0.3164
16298W        W35832   4.216  11.775  13.172 -0.2600 -0.0643 -0.0691
16299W        W35833  11.528  13.314  16.620  0.1119 -0.2077 -0.3180
16300W        W35834  14.538   4.285   3.836 -0.0171 -0.2461  0.1203
16301W        W35835  14.734  12.621  14.782 -0.0072  0.0549 -0.1060
16302W        W35836  16.500   3.715  12.898  0.0714  0.0919 -0.0462
16303W        W35837   7.400  12.030   1.171 -0.2480 -0.0399  0.0081
16304W        W35838   5.706   4.165   1.319 -0.1458 -0.0008  0.0146
16305W        W35839   4.140  10.330   3.697  0.2815 -0.1373  0.1184
16306W        W35840  15.794  14.472  11.972 -0.1359  0.2833  0.0091
16307W        W35841  16.333   1.709  16.501  0.1353 -0.1020  0.0753
16308W        W35842  16.556   5.848   3.814  0.0667 -0.0412  0.2594
16309W        W35843  10.848   3.087  13.681  0.0101 -0.4081 -0.0672
16310W        W35844  10.856  17.303  14.741 -0.1081  0.0457  0.1842
16311W        W35845  16.315   8.547   0.320 -0.1569 -0.3463  0.0303
16312W        W35846  15.779   9.691  13.187  0.1591 -0.3570 -0.0718
16313W        W35847  17.152   1.723  16.472 -0.0787  0.3584  0.2481
16314W        W35848   1.898  10.124  14.810  0.0340  0.2201  0.1000
16315W        W35849   5.011   9.159  12.632 -0.0071 -0.1060 -0.1438
16316W        W35850   8.131   0.484   3.996 -0.1333 -0.0170  0.0586
16317W        W35851  15.839   1.832  15.861 -0.2388 -0.0795 -0.1345
16318W        W35852   3.449   0.879   1.968  0.0428 -0.2688  0.0681
16319W        W35853   8.099   7.025  16.523 -0.2454  0.1628 -0.0272
16320W        W35854   8.231   3.974   4.740  0.2558 -0.0361 -0.0787
16321W        W35855  13.384  16.346  15.146 -0.2284 -0.2247  0.2381
16322W        W35856   4.257  10.876  15.373 -0.0471 -0.0553  0.2221
16323W        W35857   7.307   8.270  15.467  0.1225 -0.1808  0.1622
16324W        W35858   7.676   1.512  16.184  0.0351 -0.3361 -0.1575
16325W        W35859   1.527   0.348  13.370 -0.1963  0.1021  0.3646
16326W        W35860   1.537  16.342   0.335  0.0554  0.0578 -0.2304
16327W        W35861   1.317  15.692  12.228 -0.1106 -0.3786 -0.1614
16328W        W35862  15.554   4.174   2.388  0.1216  0.1392 -0.1106
16329W        W35863  13.773  11.066   4.348 -0.0379 -0.4752 -0.2160
16330W        W35864   4.001   4.612  15.616  0.0407  0.3426 -0.1287
16331W        W35865   0.500   6.725   0.561  0.1946  0.0161  0.1621
16332W        W35866   7.303   6.905  17.274 -0.4029 -0.0312 -0.3328
16333W        W35867  15.843   3.105  14.220 -0.1867 -0.0200 -0.0423
16334W        W35868  17.059  12.999   0.043 -0.0928  0.0522  0.2209
16335W        W35869   5.324   2.512   4.753 -0.0212 -0.0585  0.0752
16336W        W35870   5.960  16.358  16.682  0.0350 -0.1309 -0.2367
16337W        W35871   9.227   9.018  12.404 -0.0436 -0.2238 -0.1840
16338W        W35872   1.547  12.522   4.573 -0.1300  0.0254  0.1392
16339W        W35873   1.439  13.781  16.957  0.3268 -0.0925 -0.0156
16340W        W35874  17.062   5.777   2.738 -0.1266  0.1249 -0.0554
16341W        W35875   6.073   3.282   3.148 -0.1192  0.0551 -0.1111
16342W        W35876  16.068   8.839   4.318  0.2051 -0.1015  0.2390
16343W        W35877  13.758  13.199   0.054  0.0291  0.1350 -0.2117
16344W        W35878   0.507  12.105   4.292 -0.1423  0.1271 -0.0414
16345W        W35879   1.252  12.630  16.612 -0.0124  0.0726 -0.1985
16346W        W35880   2.593   6.973   5.139 -0.0669 -0.1055 -0.1735
16347W        W35881  12.909  11.772  14.834 -0.4115 -0.4454 -0.0699
16348W        W35882   9.170   4.448   1.898 -0.0086  0.0748 -0.0978
16349W        W35883   0.971  12.740   4.563  0.3073  0.1693  0.2908
16350W        W35884  16.427   9.120  17.170 -0.0289 -0.2764 -0.0117
16351W        W35885  17.328   1.533  14.408  0.1021 -0.1127 -0.0086
16352W        W35886  14.236  13.776  17.300  0.1257  0.1227 -0.0322
16353W        W35887   2.898   8.195  15.251  0.1232 -0.0413 -0.3280
16354W        W35888  14.142  10.283  12.690  0.1993  0.0067  0.0280
16355W        W35889  11.691  13.205  16.220 -0.0128  0.3266  0.0923
16356W        W35890   1.089   5.768  16.438  0.0121  0.0810  0.4434
16357W        W35891  14.541  17.301   1.583 -0.2261 -0.4287  0.2925
16358W        W35892   9.002   4.139  16.789  0.0458 -0.2087 -0.0576
16359W        W35893  13.192   5.366  12.840 -0.1124 -0.3701 -0.3436
16360W        W35894   4.435   4.909  15.684  0.1453  0.3430 -0.0706
16361W        W35895  14.869  12.874   0.441  0.1680  0.3376 -0.0182
16362W        W35896  12.774   2.447  17.129 -0.0516  0.1612 -0.2860
16363W        W35897  14.758   8.235   0.063  0.0254  0.0188 -0.0847
16364W        W35898   8.479   0.045  16.580  0.0219 -0.1715 -0.2552
16365W        W35899  13.020  11.146  15.335 -0.2582  0.5634  0.0319
16366W        W35900   8.231   8.107  16.069 -0.1141  0.1251 -0.2541
16367W        W35901  10.008   3.877   4.495  0.1251  0.0774 -0.0327
16368W        W35902  16.796  11.470  15.083 -0.0249 -0.2248 -0.0467
16369W        W35903   5.359   3.811  14.500  0.3781  0.0950 -0.0917
16370W        W35904   9.240  14.480   5.152 -0.3409  0.0471  0.1494
16371W        W35905   3.431   0.849  16.639  0.0907  0.1349  0.1238
16372W        W35906   5.661   2.649  15.462 -0.2402 -0.3032 -0.2193
16373W        W35907   4.577   9.357   3.851 -0.0987  0.1167 -0.2212
16374W        W35908   1.171  10.642  14.234  0.1998 -0.0817 -0.3362
16375W        W35909   3.145   3.069  15.989 -0.0560 -0.2914  0.2136
16376W        W35910  13.352   5.068   2.279  0.2099  0.3363 -0.0346
16377W        W35911  12.870  16.133   0.094 -0.0468  0.0782  0.2138
16378W        W35912  11.830  13.747  12.819  0.2411 -0.1232  0.0056
16379W        W35913   1.103  11.106  13.487  0.1249 -0.1208  0.2192
16380W        W35914  13.987  12.639   3.341  0.1069 -0.3182 -0.0537
16381W        W35915  14.205   7.496   4.007  0.2582 -0.1681 -0.0200
16382W        W35916   4.459   2.962   5.046  0.1944  0.3704  0.0676
16383W        W35917  10.928  10.986  15.587 -0.1591 -0.2755  0.1407
16384W        W35918   3.192   4.655   5.065  0.4105 -0.0522 -0.1454
16385W        W35919   0.665  14.560  12.174 -0.2476  0.2227 -0.0412
16386W        W35920   5.122   0.821  12.806 -0.3087  0.0457 -0.2323
16387W        W35921  13.203   5.998   1.889  0.0144 -0.3094 -0.1192
16388W        W35922  12.433  13.772  13.788  0.2286  0.0203  0.0350
16389W        W35923  16.530   8.406   0.784  0.0952  0.2333 -0.1835
16390W        W35924  14.788   3.561  12.756  0.0524 -0.3991 -0.2140
16391W        W35925   9.774   4.806  15.926 -0.5078  0.1066  0.0828
16392W        W35926  11.869   0.415  15.627 -0.2987  0.0788  0.0769
16393W        W35927  16.464  12.658  13.199  0.1363 -0.3341 -0.3385
16394W        W35928   2.942  10.644   0.662 -0.3237  0.0891 -0.0369
16395W        W35929  10.260  12.577  16.753  0.0843  0.0927 -0.1541
16396W        W35930  14.244   3.679   2.287  0.0790  0.2024 -0.1090
16397W        W35931   7.986  16.829  12.521  0.4120 -0.1126 -0.1144
16398W        W35932   0.561   7.073   1.943  0.0085 -0.1420 -0.2086
16399W        W35933   4.568   2.399   3.817  0.0234 -0.1086  0.0448
16400W        W35934   2.111  14.585   3.184  0.1368  0.2180 -0.3984
16401W        W35935   8.070  15.805   4.711  0.1547 -0.1578 -0.0830
16402W        W35936   5.246   8.395  16.750 -0.2270  0.0814  0.4390
16403W        W35937  17.059  14.904   3.614 -0.0541  0.0004 -0.3731
16404W        W35938   1.382  14.924   2.883  0.0055  0.0045  0.3012
16405W        W35939  12.527  13.405   2.422 -0.0414 -0.2190  0.0721
16406W        W35940   9.685   4.230   5.011  0.1445 -0.3463  0.1007
16407W        W35941  12.497  16.376  13.597 -0.0020  0.1970 -0.1160
16408W        W35942   5.840  13.339  14.281  0.0058  0.0473 -0.1880
16409W        W35943  15.475   3.513   0.600  0.2003 -0.1816 -0.1539
16410W        W35944   5.692  11.508  15.765  0.1498 -0.0152  0.0907
16411W        W35945  11.451   5.139  16.491 -0.1017  0.1979 -0.0612
16412W        W35946  12.996   5.301  14.560  0.1150 -0.0201 -0.0100
16413W        W35947  12.288   7.169  13.453  0.1056 -0.0738  0.2153
16414W        W35948   9.949   0.002   5.220  0.0282  0.1880 -0.1622
16415W        W35949   9.706   1.015   4.532 -0.2003  0.0644  0.0348
16416W        W35950   0.716   7.763  12.225  0.2103 -0.0302  0.0855
16417W        W35951   6.531  14.870  16.011  0.0937 -0.2006  0.0894
16418W        W35952  12.534   2.416  14.446 -0.0383  0.3295 -0.2513
16419W        W35953  12.114  17.216  16.762  0.0321  0.1582  0.3963
16420W        W35954  16.423   4.501  13.483 -0.1216  0.2129  0.3098
16421W        W35955  13.454   3.898  13.117  0.1267 -0.1555  0.0177
16422W        W35956  13.115   6.625  12.305  0.0346 -0.1837  0.2633
16423W        W35957  15.750   1.968  12.866 -0.0750  0.0821  0.1888
16424W        W35958   4.972   8.551  15.866 -0.0074  0.1731  0.1684
16425W        W35959  13.294   4.614  16.859 -0.5091 -0.0814  0.2722
16426W        W35960   9.380   9.665  13.228  0.2771  0.2294 -0.0477
16427W        W35961   5.365   4.760  16.007  0.0626  0.2091  0.0473
16428W        W35962  12.721  11.534  15.192  0.0344 -0.0093 -0.1373
16429W        W35963  15.448  10.147   0.565 -0.0519  0.2569  0.0832
16430W        W35964   7.450  14.230   0.125  0.2608  0.5262 -0.1898
16431W        W35965   4.519   5.279  16.218  0.1184  0.1320 -0.1980
16432W        W35966   6.555   2.301   5.149 -0.0265  0.1103  0.3371
16433W        W35967  16.106   2.664   2.337 -0.2290  0.1304 -0.0073
16434W        W35968  15.816  10.083   0.867  0.1713  0.1995 -0.1029
16435W        W35969  12.655  16.423  16.583  0.0117 -0.0885 -0.1805
16436W        W35970   9.031   8.248   4.792 -0.0261  0.1118  0.0276
16437W        W35971   9.221   0.700  15.612 -0.0355 -0.0684 -0.1128
16438W        W35972  16.222   7.465   4.890 -0.1488 -0.0637  0.0650
16439W        W35973  15.064   9.174   3.393 -0.0664 -0.3570  0.1520
16440W        W35974  10.390   0.069  12.806 -0.1303  0.0545 -0.1662
16441W        W35975  14.698  13.838   3.532  0.1548 -0.1679 -0.0272
16442W        W35976   3.351  16.707   1.534  0.0194  0.0254  0.0482
16443W        W35977  11.575   0.868   0.998  0.3812 -0.2345 -0.2451
16444W        W35978   2.980  14.435  13.303 -0.1201  0.1077 -0.1119
16445W        W35979  10.357   9.554  14.143  0.0407 -0.1189  0.2675
16446W        W35980   5.797   5.684  13.028 -0.0054  0.0646 -0.0173
16447W        W35981   7.047  17.105   4.445  0.1841 -0.1910  0.0669
16448W        W35982  13.004  14.142   4.886  0.2101  0.0775 -0.1536
16449W        W35983   5.601   2.564   0.016 -0.0720  0.2134  0.0029
16450W        W35984   9.124  10.731   5.255  0.1539 -0.1005 -0.0418
16451W        W35985  15.801   0.432  15.859  0.0622  0.1200  0.0391
16452W        W35986   3.865   8.894   3.162 -0.1520 -0.0987 -0.2247
16453W        W35987  15.592   6.208  14.791 -0.0488  0.1513 -0.4426
16454W        W35988  15.251   8.657   1.863  0.1035 -0.2714  0.1382
16455W        W35989   5.549  13.384   4.022 -0.0813  0.0924  0.2333
16456W        W35990   3.556  10.883  15.097  0.1997 -0.0544  0.1285
16457W        W35991  17.073   5.700   1.402  0.0217  0.1304  0.0623
16458W        W35992   3.199   2.517   1.086 -0.4407 -0.0505 -0.2323
16459W        W35993   4.898   6.561   0.504 -0.0196  0.1988 -0.3899
16460W        W35994   1.885   1.312  14.752  0.0018  0.3088  0.1283
16461W        W35995   5.525  12.938   4.290  0.0700 -0.1451  0.0278
16462W        W35996  14.155   4.949   2.329  0.0332 -0.1539  0.0593
16463W        W35997  13.064  13.648   3.346 -0.2356  0.3006  0.1223
16464W        W35998   1.636  17.246   2.176  0.1597 -0.2272 -0.0503
16465W        W35999   3.825   4.107  16.345 -0.3045 -0.1875  0.1530
16466W        W36000   0.557  16.391   4.369  0.3461  0.0245 -0.0874
16467W        W36001   1.419   2.359   4.923 -0.0816  0.1108  0.2155
16468W        W36002   1.111   5.172   1.658  0.1752 -0.0529 -0.1280
16469W        W36003   7.301   8.622   4.941 -0.1012 -0.0196 -0.2386
16470W        W36004   3.589   2.584   3.183 -0.0101  0.1327 -0.0918
16471W        W36005  14.625   4.261  14.590  0.1671 -0.1988 -0.4163
16472W        W36006   6.359   9.246  13.470 -0.0563 -0.1353  0.2517
16473W        W36007   4.218  10.294  13.459 -0.1005  0.0962  0.0898
16474W        W36008   8.251   4.221   2.214 -0.1784  0.1579  0.3509
16475W        W36009  11.179   2.203   3.609  0.0579  0.0428  0.0724
16476W        W36010  14.442   3.715   3.677  0.0777  0.1398  0.2629
16477W        W36011   2.035   9.666  13.109  0.1705 -0.4226 -0.1755
16478W        W36012  16.890  15.542  14.083 -0.2483 -0.1479  0.1059
16479W        W36013   9.938   0.392  16.879 -0.0448 -0.1170  0.2442
16480W        W36014   2.915   1.788  12.183  0.1762  0.1017  0.1976
16481W        W36015   6.711  10.244   5.231 -0.0340 -0.4760  0.1661
16482W        W36016   0.254   4.851  13.128 -0.1410 -0.0524 -0.0233
16483W        W36017   5.728   5.656   0.008  0.0115  0.0174  0.0709
16484W        W36018   2.835  13.670  11.402  0.1822 -0.1790 -0.0593
16485W        W36019   5.749  14.811  16.230  0.4427  0.1861 -0.0491
16486W        W36020  12.407   1.397   0.751  0.2058  0.0821  0.1972
16487W        W36021   5.314  11.359   3.882 -0.0570 -0.1109 -0.2024
16488W        W36022   4.102  13.001   2.928 -0.1053 -0.1950 -0.0575
16489W        W36023   9.086   7.867  12.609  0.0249 -0.3345 -0.0335
16490W        W36024   4.446   8.965  12.550 -0.1684 -0.0326  0.1189
16491W        W36025  15.464   6.047  12.786 -0.3001  0.1415  0.0511
16492W        W36026  14.411   4.018   3.109 -0.0032 -0.0488 -0.0689
16493W        W36027   9.332  16.362  14.785 -0.0841 -0.0735 -0.0558
16494W        W36028  17.189  13.466   2.872 -0.0076  0.1710  0.0201
16495W        W36029  12.738  10.341  14.124  0.0109  0.2696 -0.2083
16496W        W36030  13.020  11.613  11.181  0.3796  0.1305 -0.0877
16497W        W36031   6.099  10.691  16.534 -0.3169  0.0985  0.1757
16498W        W36032  10.655   5.829   5.290 -0.1882  0.2179 -0.5071
16499W        W36033  16.454   3.447   2.802 -0.0259  0.0011  0.1818
16500W        W36034  10.170   9.491   4.806 -0.1452 -0.1448  0.2666
16501W        W36035   3.176  14.817   4.227  0.1056  0.2724 -0.0565
16502W        W36036   0.259  13.183  15.092  0.3461  0.1246  0.0134
16503W        W36037  11.590   7.573   0.489  0.1204 -0.4491  0.1507
16504W        W36038  10.739  17.204   5.015  0.0858 -0.3291 -0.0968
16505W        W36039  12.605  12.489  12.796  0.1505 -0.0961 -0.1239
16506W        W36040   8.257  12.631   3.790 -0.0762 -0.0269 -0.1814
16507W        W36041   9.133  14.881   2.945  0.2264  0.0902  0.0671
16508W        W36042   0.384  13.119   1.557  0.0682 -0.0094  0.1157
16509W        W36043  16.001   6.804  13.776 -0.2077  0.1391  0.2452
16510W        W36044  15.512   0.105   3.032  0.0273  0.0981 -0.0037
16511W        W36045   5.443  16.699  12.980  0.0237 -0.0234 -0.0925
16512W        W36046   9.071   1.143   3.864 -0.1821 -0.2509 -0.0819
16513W        W36047   5.768  10.895  15.737  0.1421  0.2940 -0.0032
16514W        W36048  12.237   3.056  14.606  0.4460  0.1006  0.0516
16515W        W36049   7.645  10.471  13.805 -0.4624 -0.0122 -0.0864
16516W        W36050   0.697   2.388  13.046 -0.0091  0.2927 -0.0548
16517W        W36051  14.104   6.570  12.516 -0.0490  0.1515  0.0203
16518W        W36052   6.016   1.187   0.853 -0.0654 -0.0475  0.0182
16519W        W36053   4.493   4.872  12.055  0.0529 -0.0509  0.0544
16520W        W36054   7.699  14.362  14.767  0.1396 -0.3905 -0.3110
16521W        W36055   6.178  13.452  14.679 -0.2020 -0.0009  0.0398
16522W        W36056   4.926  11.812   5.065 -0.0903  0.1029  0.1403
16523W        W36057  12.610   0.120   4.536  0.0000  0.0377  0.1418
16524W        W36058  17.023   5.585   4.618  0.0459  0.2341 -0.0425
16525W        W36059   2.400   1.713  13.657  0.2012 -0.2080 -0.3416
16526W        W36060  17.420  12.205  16.755 -0.0914 -0.0523 -0.0266
16527W        W36061   7.948   6.380   5.711 -0.2931  0.0063  0.0154
16528W        W36062   6.300   7.020   0.777  0.0971  0.1440 -0.0138
16529W        W36063   4.358   2.205   3.352 -0.2352  0.0072 -0.2817
16530W        W36064   9.743   4.754  14.755  0.0103  0.3077  0.1457
16531W        W36065   4.017  17.472   2.297 -0.1460  0.1921 -0.0729
16532W        W36066   4.291  11.927   1.119  0.2533  0.0643  0.0047
16533W        W36067  13.198  11.405  14.974  0.1284  0.0465  0.2640
16534W        W36068   6.861   0.912   2.341  0.0178 -0.1785  0.0717
16535W        W36069   1.818   8.385   3.848 -0.2531  0.0331 -0.4152
16536W        W36070   9.296  14.533  13.804  0.2524  0.0929  0.3198
16537W        W36071   4.173  17.013   3.956  0.2447  0.0711  0.4647
16538W        W36072   7.940   6.074   1.924 -0.2926 -0.0320 -0.0928
16539W        W36073   8.944   7.196  14.753  0.2536 -0.0667 -0.2439
16540W        W36074   7.383   8.506  15.884 -0.0779 -0.0486 -0.2342
16541W        W36075   6.326  17.385   2.375  0.0958  0.0513  0.1831
16542W        W36076   0.645   0.994  13.592 -0.0107 -0.0129 -0.4960
16543W        W36077  11.542  15.946   2.592 -0.0963  0.0685  0.1145
16544W        W36078  15.284   9.259   4.899 -0.1335  0.0799  0.0199
16545W        W36079  13.158  13.318  15.926  0.0994 -0.0393 -0.0274
16546W        W36080  14.457  13.839   2.181 -0.1987  0.3998  0.0823
16547W        W36081   0.442  17.098  12.953 -0.1272  0.3384  0.1497
16548W        W36082  12.045   2.782   3.718  0.0405 -0.0091  0.3208
16549W        W36083   7.060   3.705   0.931  0.0820 -0.3755 -0.2867
16550W        W36084   2.397  16.330  13.983  0.1219  0.0417  0.2363
16551W        W36085   2.278  11.739  13.036 -0.0910 -0.1695  0.0572
16552W        W36086  16.807  11.124   3.231  0.1422 -0.1562 -0.3688
16553W        W36087  14.372  16.259  15.961  0.2902 -0.2738 -0.0187
16554W        W36088   0.576   8.304   0.267 -0.2761 -0.4157 -0.0933
16555W        W36089   5.743   6.299   2.194  0.1377  0.3021  0.2590
16556W        W36090  12.730  16.599   2.719  0.1589 -0.0049  0.0095
16557W        W36091   7.537  11.396   0.857  0.0393  0.0057 -0.2796
16558W        W36092   9.327   1.952   4.870  0.2962  0.1166  0.0447
16559W        W36093  12.406   6.826   2.508 -0.1461  0.0686 -0.1220
16560W        W36094  14.180  11.906   1.519  0.0099 -0.1372  0.1929
16561W        W36095  13.522  12.423   1.554  0.0208  0.3177  0.2099
16562W        W36096   2.755   4.587  14.740  0.0111  0.2887 -0.1520
16563W        W36097  10.470   8.564   0.997 -0.0752  0.1864  0.1990
16564W        W36098   0.083   2.177  17.163  0.0344 -0.0767 -0.2748
16565W        W36099  13.840   9.888  13.827  0.0890  0.0823 -0.2810
16566W        W36100  16.352   4.465  14.354  0.1531  0.0894  0.0860
16567W        W36101   1.593  17.278  15.767  0.0403 -0.0607 -0.1116
16568W        W36102   0.540   3.865  16.329 -0.1436  0.0843  0.1281
16569W        W36103   5.224   9.654   0.523  0.2126 -0.2730 -0.3234
16570W        W36104  17.223   2.425  12.884  0.4894  0.1502  0.0531
16571W        W36105  15.995  14.793  15.254 -0.1526  0.0806 -0.1537
16572W        W36106   5.515   9.999  14.653 -0.0323 -0.0090  0.1556
16573W        W36107  13.306   7.463   4.134  0.3164  0.2403 -0.0799
16574W        W36108  15.857   2.373  16.963 -0.0763 -0.0533 -0.1808
16575W        W36109   1.096  10.615  12.640  0.0784 -0.0839  0.4238
16576W        W36110   5.862  15.546   1.814  0.0495 -0.2464  0.1698
16577W        W36111   6.898  12.681  14.593  0.0177 -0.2610 -0.2088
16578W        W36112  15.269   4.543   2.739 -0.2790 -0.3176 -0.2960
16579W        W36113  10.778  13.436  12.962 -0.0152  0.2104  0.0976
16580W        W36114   6.558   9.002   2.037  0.1028 -0.0019  0.1108
16581W        W36115   3.767   8.446  14.775  0.0158 -0.0783 -0.0121
16582W        W36116  15.538   7.093  12.277  0.0723 -0.1056  0.1892
16583W        W36117   6.669  13.997   0.484  0.1318 -0.1805 -0.0127
16584W        W36118  15.266   9.177   0.973  0.0410 -0.1464  0.0118
16585W        W36119  12.231   7.589  14.500 -0.0251  0.1906  0.1062
16586W        W36120   6.691   5.722  13.578  0.0579 -0.2163 -0.1427
16587W        W36121  15.503  10.190   4.525  0.0648 -0.4097  0.0009
16588W        W36122   0.843   4.859   3.144  0.1525 -0.2561  0.0849
16589W        W36123  11.788   8.917   2.910  0.0904 -0.3423  0.2149
16590W        W36124  10.267  15.250  14.545  0.0386 -0.3466  0.0288
16591W        W36125   5.484   6.900  13.630 -0.2035  0.1410 -0.0508
16592W        W36126  15.711  14.735  16.647 -0.1678  0.2071  0.0124
16593W        W36127  16.989  11.632  15.712 -0.2335 -0.0292  0.0760
16594W        W36128   9.838   9.474  14.682  0.1438  0.1963 -0.0665
16595W        W36129  10.708   3.663   1.011  0.0544 -0.1674  0.0253
16596W        W36130  11.644   8.417  17.004  0.1204  0.1230 -0.2072
16597W        W36131  13.123  12.637  17.230 -0.0007 -0.4746  0.1507
16598W        W36132   3.737  12.750  16.700  0.1148  0.0620 -0.1765
16599W        W36133   7.827  16.652  12.944 -0.0227  0.0498  0.2412
16600W        W36134  16.092   7.383  12.844  0.2937 -0.1159  0.1896
16601W        W36135  11.738  13.687   3.970  0.1198 -0.1130  0.0294
16602W        W36136   0.053  12.465   3.625 -0.1874  0.0462  0.1040
16603W        W36137   9.526   7.353  16.985  0.1113 -0.1134  0.0587
16604W        W36138   0.718  14.797  16.929  0.0305  0.1093 -0.0267
16605W        W36139   4.586   5.103   5.510  0.2302 -0.3951  0.3598
16606W        W36140   2.458  15.204  13.164  0.0301 -0.0631 -0.1417
16607W        W36141   8.001   1.812   3.677  0.0505  0.0185 -0.0921
16608W        W36142  16.766  13.175   2.794 -0.0958  0.1586 -0.1778
16609W        W36143   5.811   6.153   3.758 -0.0531  0.0033  0.3458
16610W        W36144  11.192   4.147  16.798 -0.1094 -0.0844 -0.1734
16611W        W36145   7.287   2.407  12.819  0.3665 -0.2693  0.0848
16612W        W36146   0.407  10.574   2.693  0.2753 -0.1681 -0.1351
16613W        W36147   1.591  15.557  12.888 -0.1162  0.1085 -0.0449
16614W        W36148   0.550   3.650   2.824  0.0226  0.1683  0.3307
16615W        W36149  15.623   7.489  12.596 -0.1256 -0.0574  0.0382
16616W        W36150  14.318  14.568   0.458  0.1440 -0.0824  0.5324
16617W        W36151   2.497  15.161  14.928  0.0836 -0.0951 -0.1234
16618W        W36152   6.696   0.184  15.132 -0.0990  0.0045  0.1418
16619W        W36153   5.972   6.972   0.335  0.2570  0.0066 -0.0369
16620W        W36154  16.795   8.420  13.461 -0.1192  0.1068  0.0997
16621W        W36155   7.143   2.014   3.190  0.2576 -0.1260  0.0663
16622W        W36156   8.231   1.291   2.206  0.1713  0.0274  0.1683
16623W        W36157   8.932  15.199   1.699  0.0316  0.2743 -0.2053
16624W        W36158   1.624  11.487   1.288  0.0120 -0.1147  0.0190
16625W        W36159   8.193   3.754   2.509  0.1937  0.1561 -0.0363
16626W        W36160   4.607   2.621   0.902 -0.0246  0.0575 -0.0640
16627W        W36161   8.396   1.369   3.663  0.1757  0.1090  0.1666
16628W        W36162  11.962  17.110   0.326  0.1267 -0.1868 -0.1203
16629W        W36163   1.163  10.051   5.009 -0.0338 -0.2269 -0.2665
16630W        W36164   4.114   3.982  14.220  0.2510  0.0498 -0.1088
16631W        W36165   5.935   3.797   3.247 -0.0580  0.2933 -0.1546
16632W        W36166  10.480   6.270  16.883  0.2793 -0.1220  0.0883
16633W        W36167   5.266  10.605  16.447 -0.1789  0.3477 -0.0401
16634W        W36168   2.348   0.393   1.288  0.2693  0.0281 -0.1478
16635W        W36169  14.147   6.344  14.175  0.1517  0.0128  0.1104
16636W        W36170   7.461  17.081   4.751  0.0068  0.1532 -0.1932
16637W        W36171  14.462  13.780   4.796 -0.2936  0.0281  0.0413
16638W        W36172  14.638   1.745   3.920 -0.0521 -0.0787 -0.3343
16639W        W36173   0.795   8.324   4.569  0.1326  0.0447  0.1940
16640W        W36174   0.894   9.713  16.766 -0.0979 -0.1135  0.2833
16641W        W36175   9.045  12.235   0.575  0.2295 -0.1189  0.1378
16642W        W36176   9.616  14.666  12.220  0.1338  0.0800 -0.1860
16643W        W36177  11.852  14.499  16.028  0.0663  0.3453  0.0215
16644W        W36178  14.493  11.177  15.447 -0.2997  0.0211 -0.1413
16645W        W36179   3.529  14.512   0.598  0.1427  0.1851  0.2381
16646W        W36180  10.509   5.469  15.081  0.2799 -0.0927 -0.1857
16647W        W36181   2.614   1.622   3.356 -0.0705  0.1711 -0.1069
16648W        W36182   8.142   2.551   2.863 -0.0084 -0.1017 -0.0647
16649W        W36183  10.703   9.619   3.492  0.0707  0.1547 -0.0345
16650W        W36184  11.269   8.773  15.308  0.1034 -0.4245  0.3948
16651W        W36185   5.796  10.046  15.100 -0.0258  0.2554 -0.0053
16652W        W36186   2.731   7.061  14.292  0.1872 -0.1698 -0.1292
16653W        W36187   9.477   8.072  13.871  0.1618 -0.0188  0.0403
16654W        W36188   2.615  11.423  16.083 -0.0034  0.0833 -0.0930
16655W        W36189   6.742   8.682  12.784  0.0885 -0.1075  0.1532
16656W        W36190  11.261   0.089  13.183 -0.2073  0.0335 -0.0244
16657W        W36191   5.527   9.541   4.075 -0.0645 -0.0393  0.0285
16658W        W36192  15.672  13.506   0.874 -0.1161 -0.1482 -0.1057
16659W        W36193   2.623   1.053  16.043 -0.0842 -0.2463  0.1788
16660W        W36194   0.586  14.520  12.632  0.0555 -0.1776  0.1137
16661W        W36195   4.071   0.325  11.338 -0.1873  0.0011 -0.4164
16662W        W36196  17.462   6.016  12.784  0.0229  0.1152  0.0733
16663W        W36197  12.135   9.700  15.251  0.0533 -0.1098 -0.2726
16664W        W36198  12.072   1.464  12.465  0.1164 -0.0999  0.3609
16665W        W36199  10.368  14.108   2.689 -0.1496 -0.1159  0.2709
16666W        W36200   0.840  11.118   0.393  0.1502  0.2477 -0.0166
16667W        W36201   7.232   1.320   2.377 -0.1270 -0.3770 -0.1180
16668W        W36202  13.131  11.158  14.124 -0.0174 -0.1771 -0.0977
16669W        W36203  11.463  16.562   1.287  0.0158  0.0881 -0.0892
16670W        W36204   0.215   4.122  12.492  0.1480 -0.1100 -0.2742
16671W        W36205   2.631  15.195  12.695 -0.0138  0.0456 -0.0492
16672W        W36206   8.230  14.465  14.767  0.0069 -0.3139 -0.0972
16673W        W36207  16.020  10.861   4.545  0.2845 -0.1109 -0.0353
16674W        W36208   9.765  11.371   4.582  0.0286  0.3947  0.0988
16675W        W36209   8.829  10.540  16.997  0.3479 -0.4074 -0.1625
16676W        W36210   7.732   9.275   1.964 -0.0816 -0.0329  0.2345
16677W        W36211  13.867  12.527  16.281  0.1179 -0.0222  0.1779
16678W        W36212  12.734   1.494  14.210 -0.1843  0.0045 -0.2465
16679W        W36213   9.495   2.256  16.068  0.2824 -0.2313  0.0802
16680W        W36214   1.393   4.381  15.474  0.1055 -0.0525  0.0190
16681W        W36215  12.083   7.045  16.417  0.2386  0.2141  0.1170
16682W        W36216   3.877   0.200  13.979  0.2246 -0.0243 -0.0750
16683W        W36217   8.469   5.451  16.246 -0.0191  0.0792 -0.1365
16684W        W36218   9.419  16.673  13.175 -0.1423  0.0021 -0.0114
16685W        W36219   4.667  10.704   4.915  0.2758  0.4020 -0.0042
16686W        W36220   0.192  11.672  14.447  0.0932  0.4320 -0.1117
16687W        W36221   9.395  11.833   1.127  0.0807 -0.1070 -0.1089
16688W        W36222   1.845   6.377  12.302  0.0218  0.0034  0.1737
16689W        W36223   8.657   5.614   5.590 -0.1255  0.0626  0.3937
16690W        W36224   9.518   3.450  15.512 -0.1766  0.2615  0.3539
16691W        W36225   0.008   9.355  14.974 -0.2794 -0.2312  0.1726
16692W        W36226  12.337  15.528   4.597 -0.1097  0.0714 -0.2521
16693W        W36227   7.963  15.360   0.373 -0.2851  0.1418 -0.1340
16694W        W36228   6.292   0.881  15.015  0.2461 -0.0104  0.2683
16695W        W36229   8.902   0.946   1.585 -0.1427 -0.0803 -0.1231
16696W        W36230  14.103   6.832   2.619 -0.1411  0.1879 -0.0313
16697W        W36231  10.604  15.723  16.435  0.1376  0.3487 -0.0218
16698W        W36232   3.981   0.206  12.571  0.1221 -0.0010 -0.1311
16699W        W36233   9.352   3.443   5.005  0.1114 -0.0131  0.0277
16700W        W36234  11.653  14.410  14.686  0.1241 -0.0476 -0.0316
16701W        W36235  17.088  12.957  15.084 -0.0911  0.0694 -0.2991
16702W        W36236  12.933   7.454   3.627  0.0502  0.1415  0.1131
16703W        W36237   1.795   0.920  13.354  0.4067 -0.3399  0.0605
16704W        W36238  12.499  12.542   1.869  0.1595 -0.1460 -0.0858
16705W        W36239  10.427   6.281  16.159 -0.0363 -0.2049 -0.0273
16706W        W36240   5.066  10.174  16.285 -0.2302  0.0871  0.1367
16707W        W36241  10.676  12.799  16.390 -0.2643 -0.2123  0.1351
16708W        W36242   4.847   8.500   1.209 -0.0329  0.1552 -0.0195
16709W        W36243  10.768   0.603  14.879 -0.1904  0.0197 -0.0587
16710W        W36244   0.244  11.725   2.921  0.1214  0.0913  0.1866
16711W        W36245   8.551   2.216   2.927  0.0838 -0.0588 -0.1045
16712W        W36246   1.694  16.599  13.774 -0.2081 -0.4100  0.0924
16713W        W36247   8.806   7.669   0.266 -0.2932  0.1042 -0.3184
16714W        W36248   1.823   6.943   4.422 -0.0407  0.2008  0.1150
16715W        W36249   6.825  13.230   2.908 -0.0505  0.0389 -0.2294
16716W        W36250   8.150   3.955   1.747  0.1594  0.1003  0.0673
16717W        W36251   7.739  12.308   0.543  0.1327 -0.0988  0.1684
16718W        W36252   6.000  16.145   4.928  0.0840  0.0715  0.0843
16719W        W36253  16.703  14.476  14.966 -0.2084 -0.0044 -0.5088
16720W        W36254   5.768   3.002   3.482  0.1771  0.1569  0.3074
16721W        W36255   4.271   6.994  15.925  0.1027 -0.1891  0.1646
16722W        W36256   2.437  16.333   3.885 -0.1552  0.0644 -0.0208
16723W        W36257   4.819   5.787   2.933 -0.2920 -0.0719  0.0652
16724W        W36258  14.583  11.664   1.745  0.2735 -0.2678  0.0068
16725W        W36259   2.230  16.794  14.639 -0.1209 -0.1735 -0.0521
16726W        W36260  17.253   6.000   4.383  0.0067 -0.1271  0.1314
16727W        W36261   6.736   9.763   2.871  0.0263 -0.2152  0.1354
16728W        W36262  16.317  11.302  16.913  0.0116 -0.0266  0.1063
16729W        W36263   2.471  10.714  17.139  0.0599 -0.1486 -0.2996
16730W        W36264   9.302  11.569  15.508  0.0794 -0.0848 -0.4603
16731W        W36265  16.969  12.711   2.739 -0.0583  0.1868  0.2357
16732W        W36266  16.886   1.325   1.670  0.1419  0.1228  0.0795
16733W        W36267   7.264  12.567   4.814  0.1692 -0.2148 -0.0425
16734W        W36268   3.610   2.789  13.266 -0.0567  0.1808  0.0188
16735W        W36269   2.199  13.851  14.950 -0.1107  0.2300 -0.0177
16736W        W36270  10.509   6.944   1.441  0.1174 -0.0759 -0.0610
16737W        W36271  13.657   5.935  13.486  0.0594 -0.3335  0.0146
16738W        W36272   6.454   5.314  13.628 -0.0589  0.2541 -0.2497
16739W        W36273   0.852   5.702   1.704  0.2729  0.0311  0.1411
16740W        W36274  10.001  10.876   1.909 -0.0736 -0.0410  0.0258
16741W        W36275   7.981  17.383  16.533 -0.0125  0.0047  0.1618
16742W        W36276  12.329   6.623   1.844  0.0805  0.0661  0.0960
16743W        W36277  16.149   8.832   0.733 -0.1301 -0.3339  0.0321
16744W        W36278  15.510  11.322  13.853  0.2069 -0.5752 -0.0443
16745W        W36279  17.213  15.261   2.721  0.0867 -0.0710  0.3654
16746W        W36280  17.131   3.824  14.507 -0.1852  0.2004  0.1434
16747W        W36281  10.122   0.687   4.848 -0.0587 -0.0702 -0.2576
16748W        W36282  17.121   0.404   4.979  0.1385  0.0199  0.1886
16749W        W36283   7.008   2.844  12.294  0.1095  0.0826 -0.0192
16750W        W36284  12.016   5.864   1.078 -0.0457  0.0138 -0.0761
16751W        W36285  15.965   8.803  12.779 -0.1287  0.1537 -0.0373
16752W        W36286  10.155   3.683  12.916 -0.2281  0.0445 -0.1928
16753W        W36287   9.345   3.935   4.814  0.0911  0.1566 -0.0595
16754W        W36288   3.922   8.267  13.385 -0.3288  0.0120 -0.3346
16755W        W36289   2.760  14.317  13.755  0.1834  0.2054  0.1228
16756W        W36290   9.760  14.473   5.128 -0.1304 -0.4503 -0.2019
16757W        W36291  16.938   9.208  14.796  0.2863  0.0696 -0.0479
16758W        W36292   3.050  14.604   2.693 -0.5670  0.2623 -0.0957
16759W        W36293   7.812  11.547  15.436  0.0231 -0.1451 -0.1166
16760W        W36294   9.425   8.753  16.805  0.1923 -0.0709 -0.2305
16761W        W36295   8.251  15.164   3.853  0.2202 -0.0884 -0.0213
16762W        W36296  15.919   8.773   1.215  0.1045  0.0381 -0.0050
16763W        W36297  15.373   9.658  14.144 -0.0710 -0.0724 -0.0184
16764W        W36298  10.068   9.321  12.513  0.2497 -0.3907 -0.1559
16765W        W36299   9.371  12.814  16.030 -0.1586  0.1027 -0.1335
16766W        W36300   6.381  14.042   4.574 -0.0542 -0.0179 -0.1650
16767W        W36301  11.850   0.199   0.309  0.5346 -0.0245 -0.1265
16768W        W36302  16.177  11.618  17.274  0.0603 -0.0984  0.2108
16769W        W36303   4.193   6.938   2.553 -0.1519 -0.1511  0.0659
16770W        W36304  11.541   8.558   0.180 -0.3606 -0.3416  0.1294
16771W        W36305  14.558   5.867  16.171 -0.0892 -0.0951  0.1098
16772W        W36306   6.175   1.439   2.651 -0.1337 -0.2370 -0.2234
16773W        W36307   1.816   9.881   2.130 -0.1117 -0.1474 -0.0994
16774W        W36308   2.250  10.061  16.523  0.0722 -0.1234 -0.3014
16775W        W36309   3.200   7.774  14.980 -0.0008  0.1372  0.0390
16776W        W36310  14.538   9.027   3.464  0.1143  0.0521  0.2329
16777W        W36311   5.827  11.893  17.178  0.0897  0.0634  0.2959
16778W        W36312  12.235   7.771   1.111  0.0616 -0.1873 -0.0398
16779W        W36313  14.628   2.786   1.579 -0.1477 -0.3670 -0.0733
16780W        W36314  14.671   2.170  13.535 -0.3115  0.0843 -0.1046
16781W        W36315   4.552   0.840  14.040  0.0202 -0.1511  0.2220
16782W        W36316  14.429  13.209  16.509  0.0234  0.1721 -0.0190
16783W        W36317  15.749  12.374   2.132 -0.1152  0.0118 -0.1827
16784W        W36318   5.146  11.780  12.833 -0.2804  0.0147  0.0114
16785W        W36319  10.510   6.446   2.807 -0.0165 -0.3281 -0.0462
16786W        W36320   6.159   5.532  17.160 -0.2447 -0.1173  0.0085
16787W        W36321   4.978  11.386  12.542  0.0849  0.2604  0.0988
16788W        W36322   2.721  10.282   1.128  0.0665 -0.1526  0.0126
16789W        W36323  17.087  16.050  16.786  0.2566 -0.1033  0.1646
16790W        W36324   1.325  12.927   4.829 -0.2312  0.0792 -0.0093
16791W        W36325  11.767  12.851  16.542  0.1123 -0.1243  0.3616
16792W        W36326   2.487   7.962  16.318 -0.0866  0.0982  0.0432
16793W        W36327   1.944   2.902  13.137 -0.0035 -0.1494 -0.2823
16794W        W36328   0.884  15.963  17.085 -0.0340 -0.2377 -0.1455
16795W        W36329  15.381   3.832   2.034 -0.3733 -0.1110  0.0543
16796W        W36330   3.323   8.055  12.621 -0.0245 -0.1189  0.0673
16797W        W36331   9.362   5.165  15.660  0.1062  0.1510  0.0107
16798W        W36332  12.965   1.802  15.884 -0.0133  0.0041  0.1238
16799W        W36333  10.524   2.428   4.191 -0.1135  0.0051  0.2871
16800W        W36334   2.843  15.774  11.929  0.0920 -0.2319 -0.1732
16801W        W36335   6.191  12.544  15.220  0.1284  0.0042  0.1782
16802W        W36336  17.214   3.035   1.265  0.0810 -0.0832  0.0698
16803W        W36337   8.554   8.687  17.256 -0.1392 -0.0266 -0.0002
16804W        W36338   5.199  10.881  14.221  0.3443  0.0378  0.0995
16805W        W36339   5.256  11.145  16.970 -0.1243  0.2425  0.0210
16806W        W36340  10.846  16.876   3.887 -0.0730 -0.1010 -0.1462
16807W        W36341   3.824  12.360  15.535 -0.0297  0.0492 -0.2918
16808W        W36342  16.899  12.590  14.198  0.0568 -0.2705 -0.3968
16809W        W36343   3.652   7.702   5.374  0.1115  0.0802  0.0837
16810W        W36344   9.902  15.195  15.790 -0.2900 -0.2949 -0.0377
16811W        W36345   8.482  10.760  15.704 -0.2103 -0.0278  0.3460
16812W        W36346  17.064   8.523  14.241  0.1562  0.0415  0.0464
16813W        W36347   5.746   7.968   5.068  0.1136  0.3009  0.1922
16814W        W36348   5.027   3.016   5.693 -0.0185 -0.1856 -0.0163
16815W        W36349   3.228   0.569  15.608 -0.0762 -0.0243 -0.1504
16816W        W36350   7.835  11.844   5.076 -0.1782  0.2807 -0.0773
16817W        W36351   2.461  10.880   1.541 -0.0826  0.2010  0.1032
16818W        W36352  15.585   1.588   0.959 -0.1622  0.1641 -0.0867
16819W        W36353   5.115   2.324   0.108 -0.2842 -0.1736 -0.1901
16820W        W36354  16.946  16.850  15.370 -0.1569  0.0671 -0.0897
16821W        W36355   3.078  14.893   3.682 -0.0669  0.0856  0.0496
16822W        W36356   5.393  11.567   4.297  0.1437 -0.0286  0.2555
16823W        W36357   5.048   9.996  14.376 -0.1302  0.2839  0.0580
16824W        W36358  15.040  13.176  13.377  0.0803  0.0488 -0.0976
16825W        W36359   0.770   6.319  15.219  0.2274  0.2867 -0.1549
16826W        W36360  16.130   5.392  14.626 -0.1262 -0.0967  0.0495
16827W        W36361   7.951  14.411   0.943 -0.1019  0.1291 -0.1977
16828W        W36362  12.336  14.257   2.371 -0.1901  0.0800  0.1330
16829W        W36363  11.796   0.537  16.709  0.0783  0.1993  0.1325
16830W        W36364  11.953   8.799  13.547  0.0049 -0.1263 -0.3066
16831W        W36365  16.470  13.435  16.956 -0.1874 -0.2462 -0.1765
16832W        W36366  11.076  10.903  14.038 -0.1066 -0.0767 -0.0703
16833W        W36367   8.191  16.055  14.558 -0.0883  0.1497 -0.0647
16834W        W36368   5.954  11.152   2.791 -0.3927  0.3446 -0.0285
16835W        W36369   1.327  12.057  14.111  0.0667 -0.4122 -0.2300
16836W        W36370   4.658   5.476  15.774  0.0182  0.0624 -0.0510
16837W        W36371   5.714   4.557  13.869  0.1222 -0.2469  0.2695
16838W        W36372  14.763  11.009  11.819 -0.0957  0.2158 -0.0034
16839W        W36373   1.698   5.470   1.062  0.1823  0.0198 -0.1037
16840W        W36374   9.374   2.976  12.521 -0.0476  0.4159  0.1180
16841W        W36375   4.683  10.140   0.004  0.1388  0.2901 -0.1563
16842W        W36376  13.336  14.241   3.037 -0.1968 -0.1021  0.1005
16843W        W36377   5.512  11.448   0.020 -0.0933  0.0986  0.1692
16844W        W36378  10.499   9.438   0.645 -0.0809  0.1307  0.1838
16845W        W36379  11.569   3.033   2.325 -0.0302 -0.0234 -0.1393
16846W        W36380  13.562   1.688  16.455  0.0422 -0.2649  0.1462
16847W        W36381   8.191   1.180  12.672  0.0292 -0.1070  0.2047
16848W        W36382   0.511   1.170  15.890  0.2802  0.1577  0.0125
16849W        W36383   4.569  11.680  14.049  0.2498  0.3010  0.2399
16850W        W36384   5.999  11.539  14.939  0.2131 -0.0345 -0.1480
16851W        W36385  16.183  11.089   2.657  0.0638  0.2519  0.2244
16852W        W36386   4.103   8.470   4.422 -0.2291 -0.0455 -0.2525
16853W        W36387   9.589   1.528   0.006 -0.0658  0.0932 -0.2360
16854W        W36388  11.749   0.360   3.615 -0.0256 -0.0171  0.2659
16855W        W36389   3.550  11.441  16.349  0.2408  0.0017  0.1861
16856W        W36390  10.920   6.382  12.670 -0.1389 -0.0450  0.3198
16857W        W36391   8.569   8.992  14.498  0.2428  0.0730 -0.1403
16858W        W36392  15.713   0.716   3.905  0.2454  0.3216 -0.0071
16859W        W36393  17.255  17.002   3.321  0.2248  0.1819 -0.0489
16860W        W36394   8.761   6.213  17.037 -0.0916 -0.1597  0.2159
16861W        W36395   2.438   5.337  12.663 -0.0319 -0.0856  0.0156
16862W        W36396  17.062   6.858   1.827  0.0168  0.1852  0.0510
16863W        W36397  14.493   8.559   4.956  0.0562  0.1180  0.0957
16864W        W36398  10.205   4.945  17.220 -0.3815 -0.0902 -0.0489
16865W        W36399   2.610  14.626  15.607 -0.1011 -0.0278  0.0926
16866W        W36400  15.724   9.982   2.741  0.2643 -0.1534  0.1147
16867W        W36401   1.723  12.663  13.990  0.1030 -0.2865 -0.1006
16868W        W36402   7.221  10.736   1.549  0.1817 -0.2624  0.0194
16869W        W36403   1.808   0.591   3.092 -0.0856  0.0861 -0.0172
16870W        W36404   6.346  11.950  14.957 -0.1698 -0.1927 -0.0859
16871W        W36405  16.332  17.173  13.216  0.1946 -0.0490 -0.1067
16872W        W36406   2.063   1.645  14.002 -0.2200 -0.2387 -0.3253
16873W        W36407   4.608   0.699  16.093  0.1491 -0.0068 -0.0391
16874W        W36408  10.202   9.123  13.463  0.2849 -0.3020  0.0623
16875W        W36409  15.076   2.566   1.311  0.2036  0.0610 -0.2082
16876W        W36410  13.044   3.226  16.129  0.2273  0.2280 -0.3151
16877W        W36411   4.583   8.648  14.955 -0.3656  0.0436  0.2381
16878W        W36412   8.896   9.323  15.451  0.1956 -0.1330 -0.0490
16879W        W36413   9.151   9.997  15.139  0.2545  0.0243 -0.0140
16880W        W36414   1.250   7.635   2.383  0.1653 -0.1901 -0.0286
16881W        W36415   6.266  13.454  16.191 -0.0627 -0.3067  0.0483
16882W        W36416  11.995  15.398  15.040 -0.1648 -0.0252  0.2695
16883W        W36417   2.316  10.312  15.237 -0.0788  0.2579 -0.2141
16884W        W36418   2.132  13.608   3.950  0.2580  0.0310 -0.1645
16885W        W36419   2.361  14.961  12.188 -0.0514  0.1156  0.0699
16886W        W36420  14.485   6.673  14.233  0.3188 -0.2248  0.1182
16887W        W36421  15.462  14.175  15.781 -0.1567 -0.2746  0.1950
16888W        W36422   9.061  13.119  13.747  0.0313 -0.3871  0.0312
16889W        W36423  13.585   9.834  17.042 -0.1532 -0.2139 -0.2841
16890W        W36424  15.337   7.183   3.472 -0.0797 -0.1140 -0.0867
16891W        W36425  12.919  10.656   3.971  0.4212  0.2011  0.0602
16892W        W36426   9.389  12.692  12.582  0.0699  0.1592  0.3426
16893W        W36427  10.858  16.054   2.314  0.0869  0.0782  0.2044
16894W        W36428   4.157   7.293  15.522 -0.0979 -0.1031  0.3077
16895W        W36429   9.816  15.813   1.800 -0.0780  0.2786  0.3794
16896W        W36430   4.188  11.316   0.213 -0.0626 -0.2224  0.0531
16897W        W36431  13.115   8.372  16.399 -0.1451 -0.0932 -0.0938
16898W        W36432  11.890   0.917  14.698  0.1494 -0.0253 -0.1770
16899W        W36433   8.401  15.673   2.878  0.0512 -0.1940  0.2926
16900W        W36434   9.758   4.562   0.400  0.1148 -0.3159  0.0305
16901W        W36435   4.328   4.390  16.515 -0.1208  0.1463  0.3167
16902W        W36436   0.046  15.485  14.377 -0.0883  0.1524  0.1271
16903W        W36437  17.231   0.185  15.583 -0.3147 -0.0317 -0.0809
16904W        W36438   7.977  11.109   1.512 -0.0188 -0.0986  0.1105
16905W        W36439   1.842  13.853  15.296  0.3557 -0.4962  0.0921
16906W        W36440  13.587   4.367  16.487  0.0575 -0.2480  0.1654
16907W        W36441  11.825   6.018  12.767 -0.1911 -0.2227  0.0655
16908W        W36442   0.043   2.461  15.337 -0.0385 -0.0148  0.1226
16909W        W36443  15.373   5.261   2.042  0.3209  0.1837 -0.0741
16910W        W36444  10.311  15.123   0.149 -0.0728  0.0042  0.0657
16911W        W36445  11.931  15.885  14.083 -0.1297  0.0680  0.0354
16912W        W36446   4.768   3.334   2.884  0.0246  0.2478 -0.3012
16913W        W36447   4.103   9.730   2.508  0.1172 -0.1909  0.0300
16914W        W36448   3.889   0.750  15.294  0.0364 -0.0022 -0.2771
16915W        W36449   4.614   8.030  12.658 -0.2005  0.1279 -0.2911
16916W        W36450  13.827  15.447  15.990 -0.0602 -0.2176  0.0292
16917W        W36451   9.288   1.782  14.353  0.0462  0.1895 -0.1148
16918W        W36452   3.274   5.672   1.522 -0.0366  0.2102  0.1413
16919W        W36453  14.699   4.823  16.402 -0.1255 -0.1558 -0.1411
16920W        W36454   0.041  11.862  12.214 -0.0672  0.0055  0.0410
16921W        W36455   4.833   5.505   5.289 -0.0545 -0.1847  0.3746
16922W        W36456   2.967   9.645   4.449  0.1213  0.2604 -0.4809
16923W        W36457  15.638  12.572   4.617  0.0201  0.0671  0.0207
16924W        W36458   7.045  15.452   1.211  0.2383 -0.1985  0.2073
16925W        W36459  16.492   0.396  14.059 -0.4858 -0.1388  0.2290
16926W        W36460  17.024  15.240  16.529 -0.0638 -0.0403 -0.0688
16927W        W36461  15.957   1.077  16.556 -0.0651 -0.2056  0.0755
16928W        W36462  17.155  11.482   1.440  0.0411 -0.0927 -0.0351
16929W        W36463  17.342  10.709   1.330  0.1642  0.1215 -0.1966
16930W        W36464  17.008  14.990   1.911 -0.1568  0.1995 -0.0296
16931W        W36465   0.002   7.635   0.428  0.2376  0.1509 -0.1411
16932W        W36466   0.736   7.611  13.130 -0.1914 -0.1567 -0.0803
16933W        W36467  14.232  10.017   1.485  0.2481  0.0548  0.4165
16934W        W36468  12.017  13.336  13.076  0.0416  0.0964  0.0001
16935W        W36469   0.259   3.178  12.570 -0.1928  0.1189 -0.0163
16936W        W36470   5.505  13.144  13.465  0.2273 -0.0475 -0.2399
16937W        W36471   1.610   9.101   2.815  0.1467  0.0581 -0.0444
16938W        W36472   8.440  17.423   1.345  0.1058  0.0868  0.1261
16939W        W36473  11.457  12.112   0.469  0.0288  0.0004 -0.2124
16940W        W36474  14.213   8.761  14.519  0.1177  0.1289 -0.2558
16941W        W36475  13.975   9.857   4.633  0.2043  0.0417 -0.1543
16942W        W36476   4.125  13.702   0.526  0.2181  0.2591 -0.2596
16943W        W36477  12.799   3.674   3.078 -0.0500 -0.2614 -0.1574
16944W        W36478  11.472  16.772  15.240  0.0149  0.1345 -0.2203
16945W        W36479  16.049   8.773  14.138 -0.2586  0.1747  0.1199
16946W        W36480   7.051   9.781  12.792 -0.0127 -0.0155  0.0434
16947W        W36481   1.709   4.120   3.173 -0.2351 -0.0895 -0.0878
16948W        W36482   2.489   6.141   4.701  0.1251  0.0398  0.2585
16949W        W36483  12.751  12.973  14.242  0.1220  0.0534  0.1914
16950W        W36484   4.447  13.795  16.272 -0.1099 -0.1054  0.0213
16951W        W36485  15.210   3.832   3.225 -0.0523 -0.1819 -0.0652
16952W        W36486   2.109  11.374   2.027  0.0151 -0.2285 -0.1005
16953W        W36487   6.046  13.940   2.603 -0.5205  0.1368  0.1889
16954W        W36488  15.827   7.390   0.884  0.2105 -0.2406 -0.0549
16955W        W36489  14.685   8.644   4.488  0.2168 -0.0173 -0.1629
16956W        W36490  14.407   1.122  15.151  0.2527  0.1424  0.1819
16957W        W36491   9.887   4.315  13.567  0.0143 -0.0985 -0.1072
16958W        W36492   2.079   3.469   1.079 -0.2794  0.1163 -0.0508
16959W        W36493  16.342   5.679  15.842  0.0749 -0.0985 -0.2511
16960W        W36494  17.474   9.472   3.579  0.0944  0.1037 -0.4042
16961W        W36495  14.164   6.536   3.771 -0.0490  0.0251 -0.2169
16962W        W36496   7.962   2.339  13.378 -0.0853 -0.0200  0.0911
16963W        W36497  16.301  16.304   2.630 -0.0352  0.2784 -0.0984
16964W        W36498   5.159   8.963  13.584  0.1669 -0.0420 -0.3267
16965W        W36499   9.529   8.339  14.803  0.1264  0.0542 -0.0470
16966W        W36500  12.104  15.005  14.783  0.1799 -0.1513  0.0040
16967W        W36501   0.447  16.493   0.556 -0.0717 -0.3421 -0.3726
16968W        W36502  10.060   3.816  13.472 -0.1798 -0.0809 -0.0152
16969W        W36503  11.887   1.935   3.026  0.1056  0.1265  0.0343
16970W        W36504   8.000   6.026  14.427 -0.0769  0.0799  0.1359
16971W        W36505   4.095   3.547   3.394  0.4010  0.2014  0.4131
16972W        W36506  15.968   1.883  17.274  0.0288 -0.0346  0.2178
16973W        W36507   3.983   3.542  15.035 -0.2074  0.0608  0.1139
16974W        W36508   5.913   0.983   4.308 -0.2066 -0.0061  0.0553
16975W        W36509   7.688   3.678  16.753  0.0046 -0.0486 -0.0391
16976W        W36510  16.195   1.622   3.900  0.1119 -0.2025 -0.0521
16977W        W36511  11.740   7.242   3.949 -0.1601  0.0491 -0.2031
16978W        W36512   8.258  12.774   1.692  0.0691 -0.0629  0.0574
16979W        W36513  10.917  14.076  16.766 -0.3678 -0.0995  0.1118
16980W        W36514   9.428   6.319   1.233 -0.1366 -0.2298 -0.1576
16981W        W36515   6.788   2.244   2.228 -0.0450 -0.2204  0.0398
16982W        W36516   5.555  13.488  16.473 -0.0154 -0.6241  0.0241
16983W        W36517  12.758   7.054  13.720 -0.0399  0.3543 -0.0624
16984W        W36518  14.298   9.560  15.573  0.0290 -0.2481 -0.3250
16985W        W36519   8.333   1.639  12.270  0.2242  0.2788  0.1019
16986W        W36520  11.778   8.564   0.630  0.0886 -0.2094  0.0555
16987W        W36521  10.764   2.880  16.227 -0.0783  0.0482 -0.1972
16988W        W36522  14.528   2.769  15.325  0.0246 -0.4179 -0.0178
16989W        W36523   3.902  14.476   0.985 -0.1692  0.0279 -0.1154
16990W        W36524   1.192  15.965   0.151  0.0795  0.1403  0.1070
16991W        W36525   4.417   7.128  16.804 -0.1913 -0.0497  0.0663
16992W        W36526   3.732   3.193   3.093 -0.3974 -0.2485 -0.0805
16993W        W36527  14.032   4.065   2.041 -0.1225  0.3038 -0.1921
16994W        W36528   7.301  15.991   4.638 -0.1654  0.0824  0.1563
16995W        W36529  12.357   8.282   3.067  0.1002  0.2269 -0.0234
16996W        W36530  10.425  16.358   2.337  0.1236 -0.1047  0.2413
16997W        W36531   8.807  14.172   2.511 -0.1205 -0.0328 -0.0477
16998W        W36532  15.659   8.680  14.964  0.0492 -0.1164  0.1609
16999W        W36533   4.820   0.406   4.899 -0.1748  0.0167 -0.0360
17000W        W36534   9.942  11.413   0.001 -0.0671 -0.0351  0.0545
17001W        W36535   0.595   7.923   3.668 -0.0149  0.2094  0.0546
17002W        W36536  14.781   2.768  17.155 -0.1249  0.1709 -0.2722
17003W        W36537  13.785   7.171  16.644  0.0849  0.0653 -0.2372
17004W        W36538   2.807   2.707  13.318 -0.1535  0.0361  0.0700
17005W        W36539   0.429  17.386  16.745  0.1601  0.0137  0.1443
17006W        W36540   9.677   0.863  12.963  0.0819  0.1213  0.2065
17007W        W36541  11.222  15.327   0.237 -0.0411 -0.2417 -0.0505
17008W        W36542   4.710  15.187  16.003 -0.0423  0.2489 -0.0193
17009W        W36543   8.464   2.828  15.527  0.0025 -0.0320 -0.1916
17010W        W36544   4.461  16.733  15.942  0.0583  0.0572  0.0384
17011W        W36545   8.761   3.796   3.581  0.1502  0.0093 -0.4734
17012W        W36546   1.437  11.670  15.636  0.1639 -0.0001 -0.0746
17013W        W36547   0.825  13.336   4.766 -0.0382 -0.1740  0.2476
17014W        W36548   2.293  11.943  13.784 -0.1790 -0.0692  0.2429
17015W        W36549   5.313   7.564   0.775 -0.2414 -0.3869 -0.1426
17016W        W36550   5.798  14.133   0.057 -0.0102  0.0932 -0.0422
17017W        W36551   0.987   9.833  17.248  0.1352  0.2494  0.0282
17018W        W36552   0.864   1.332   2.756  0.1898 -0.0378 -0.0643
17019W        W36553  14.424  14.280   0.809 -0.0934  0.2959 -0.0804
17020W        W36554  15.814   0.518   1.742 -0.2011 -0.1233  0.1897
17021W        W36555  11.753  14.282  14.156 -0.2352  0.2570 -0.0314
17022W        W36556  12.338  13.451   1.676  0.1420 -0.2050  0.0802
17023W        W36557  15.373   1.548   4.278  0.1838 -0.4277  0.0523
17024W        W36558  12.918   9.446  12.174 -0.0631  0.1322  0.0394
17025W        W36559  10.833  12.008   1.084 -0.2772  0.1436 -0.2003
17026W        W36560  14.095   7.631  13.568 -0.2194 -0.1892  0.1535
17027W        W36561  12.887   0.851  16.778  0.2641  0.0199  0.1575
17028W        W36562  11.645  16.250   5.027 -0.1395  0.2095  0.0152
17029W        W36563   3.505  13.133  17.266  0.0149 -0.0387  0.0472
17030W        W36564   9.491  12.460  14.532  0.2543  0.2500  0.0247
17031W        W36565   1.274  10.684  15.583  0.0879 -0.2066 -0.0961
17032W        W36566   7.057   6.212   3.484  0.2216  0.0419  0.0823
17033W        W36567  12.231   3.609   0.714 -0.1337 -0.3527  0.1990
17034W        W36568   7.832  17.278   5.150  0.0512 -0.1023  0.1262
17035W        W36569  16.137  14.905  16.882 -0.2963 -0.0007 -0.3643
17036W        W36570   2.900   3.764  15.426 -0.3131  0.2145  0.3562
17037W        W36571  13.788  14.173   3.465 -0.0091 -0.2179 -0.1513
17038W        W36572  12.304  15.758  15.693 -0.1533 -0.0288  0.0157
17039W        W36573   5.850   2.143  14.157  0.0999 -0.1772  0.0929
17040W        W36574   7.940  12.846  17.031 -0.0239 -0.0794 -0.0796
17041W        W36575   9.594   1.405  16.388 -0.1026 -0.0536  0.0846
17042W        W36576   8.283   2.757  16.037  0.0155  0.1829  0.0154
17043W        W36577  13.149   7.562   1.494 -0.2569 -0.0564  0.1469
17044W        W36578  16.657  10.700   0.931 -0.0953  0.1669  0.1649
17045W        W36579   7.728   9.322   1.435  0.2215 -0.3198  0.2674
17046W        W36580   2.313   5.579  17.029 -0.0325 -0.1384  0.1217
17047W        W36581   1.023  11.316   3.778  0.1288 -0.2033  0.1069
17048W        W36582   8.407  14.179   4.591  0.0675 -0.3852  0.0833
17049W        W36583  13.684   5.796  14.898 -0.2002  0.1566 -0.1369
17050W        W36584  15.713  17.307  16.756 -0.2831  0.1929  0.1813
17051W        W36585   0.866   8.884  16.934 -0.2396 -0.2148 -0.3993
17052W        W36586   1.238   0.046  12.256  0.0777 -0.3438  0.0017
17053W        W36587  12.229  10.748   3.791 -0.3200 -0.1095  0.0636
17054W        W36588  16.973   3.901  17.201 -0.0099  0.0585 -0.0938
17055W        W36589  13.661   9.865  14.375  0.1476 -0.0771  0.0155
17056W        W36590  12.160   6.049  14.272  0.0276 -0.0942  0.2207
17057W        W36591   0.810   3.911  13.059 -0.1315 -0.0249 -0.0321
17058W        W36592  11.435   4.554  12.603 -0.0463  0.0709  0.1382
17059W        W36593   8.103  16.427   5.022  0.1686 -0.0472 -0.2366
17060W        W36594  10.539   6.288   2.293 -0.0350  0.0202  0.0819
17061W        W36595  12.446   7.761   3.276  0.2763 -0.1813  0.0815
17062W        W36596  12.848   7.869   0.073 -0.0953  0.0595 -0.2221
17063W        W36597   2.274  10.309   2.606 -0.0768  0.2013  0.2282
17064W        W36598   1.291  14.647  15.300 -0.0896  0.0982 -0.0077
17065W        W36599   8.810  15.392  15.669 -0.1452 -0.2377 -0.1591
17066W        W36600   9.063  13.513   4.247  0.0004  0.0825 -0.1497
17067W        W36601   5.392  15.089  16.482  0.0913 -0.2657 -0.3721
17068W        W36602   6.102   2.404   5.128  0.2894  0.1117  0.0219
17069W        W36603  16.597   4.008   2.691 -0.3157  0.2570 -0.1689
17070W        W36604   0.727  17.240   2.495  0.0150  0.2618  0.3311
17071W        W36605   8.815  16.738   4.325 -0.1726  0.3283 -0.2360
17072W        W36606   9.310   9.015  13.105  0.1477 -0.0599  0.1584
17073W        W36607  13.817  15.497   4.019 -0.1309 -0.0747 -0.1907
17074W        W36608  12.391  13.508  16.899  0.1630  0.0003 -0.0616
17075W        W36609   7.499  15.727   4.233 -0.0564  0.2523 -0.0772
17076W        W36610   0.935  11.790   4.654  0.0578  0.1323 -0.1570
17077W        W36611  16.956   7.303   5.743  0.0313 -0.1200  0.0698
17078W        W36612  14.398  14.850  15.507 -0.0716  0.0580 -0.1021
17079W        W36613  13.106   0.036  15.789  0.1319  0.1825 -0.0781
17080W        W36614  14.552   4.646  12.233 -0.1787 -0.0005 -0.2487
17081W        W36615   5.638   9.162   5.419 -0.1091  0.1915 -0.1386
17082W        W36616  14.022   0.894   0.957  0.0094  0.1951 -0.0776
17083W        W36617   7.605   3.809   1.864 -0.0450 -0.1575  0.0660
17084W        W36618   9.043  12.709   2.178 -0.1175 -0.1293  0.1714
17085W        W36619   1.170   2.001   4.657  0.1243  0.1258  0.1194
17086W        W36620  12.589   4.395   0.157 -0.1729 -0.1065  0.2699
17087W        W36621  16.318  14.946  13.995 -0.0995  0.1291 -0.3002
17088W        W36622   4.482   8.299  16.522 -0.1393  0.0969  0.0283
17089W        W36623  10.410  13.333   3.077 -0.1307 -0.2487  0.1036
17090W        W36624  11.799   1.963  16.834 -0.1194  0.1009  0.0238
17091W        W36625  10.116  15.036   1.615 -0.1881 -0.1719 -0.0603
17092W        W36626  11.011   8.902   4.869 -0.3085 -0.2942 -0.0670
17093W        W36627   9.947   2.045   2.646 -0.1389  0.0077 -0.1008
17094W        W36628  15.799  16.973   3.098 -0.3904  0.2381 -0.1105
17095W        W36629   2.296   4.195   4.217  0.1351  0.1310 -0.2164
17096W        W36630  13.789  16.355   1.870 -0.3268 -0.2376 -0.0539
17097W        W36631   8.686  10.794  15.258  0.4053 -0.2387 -0.1020
17098W        W36632   6.922  14.848   3.769 -0.0962 -0.0934 -0.1874
17099W        W36633  13.264  10.319  13.295 -0.0092 -0.1974  0.0452
17100W        W36634   3.936  13.543  16.149 -0.0466  0.1661 -0.2866
17101W        W36635   4.191  15.324  14.742  0.1514  0.0119 -0.1832
17102W        W36636  16.883   3.612  16.295 -0.2849  0.1745 -0.0763
17103W        W36637  12.892   2.101   1.766 -0.2487  0.1152  0.1349
17104W        W36638   0.132  15.591   1.751 -0.1454  0.0574  0.2928
17105W        W36639   2.816   2.014  15.840  0.0285  0.3246 -0.2592
17106W        W36640   9.983  11.818  12.827  0.1326  0.2688  0.1231
17107W        W36641  15.264  14.928   5.268 -0.3256  0.2688  0.2385
17108W        W36642   2.526   5.189   2.574 -0.2231 -0.2982 -0.1397
17109W        W36643  14.301  16.515   1.591  0.0277 -0.1584 -0.1761
17110W        W36644   4.143   7.479  12.777  0.1771 -0.0312 -0.1263
17111W        W36645  15.021  16.684   4.293  0.1283 -0.0627  0.1085
17112W        W36646   4.489  15.329   1.279 -0.1142 -0.1016 -0.1158
17113W        W36647   5.797   4.057  14.706 -0.1280 -0.0542  0.2722
17114W        W36648  11.302   8.221   2.479  0.2068  0.1288  0.1421
17115W        W36649  10.732  14.761  16.126 -0.0473 -0.1842  0.0385
17116W        W36650  10.590  12.073   0.263 -0.1133 -0.1609  0.1332
17117W        W36651   0.377   3.775  12.831 -0.2216 -0.0190 -0.0020
17118W        W36652   2.358  11.393   1.216  0.2530 -0.2125  0.1167
17119W        W36653  11.989  13.430  14.542 -0.0805 -0.1840  0.1217
17120W        W36654   1.791   4.081  12.341  0.1078 -0.1111 -0.1485
17121W        W36655   1.988   6.372   4.944  0.0165  0.2310  0.1062
17122W        W36656   0.813   4.978   1.237 -0.3069  0.2082  0.0426
17123W        W36657  11.259   0.823   5.954  0.1052 -0.4229 -0.3122
17124W        W36658   9.822  14.438  17.210  0.0006 -0.2149  0.0428
17125W        W36659   6.932   3.994  14.387 -0.1389  0.0441 -0.0375
17126W        W36660  11.775   1.454   1.987 -0.1754 -0.0479  0.1156
17127W        W36661   0.236  16.106   1.114  0.1902 -0.1345  0.1280
17128W        W36662   7.868   8.237  15.083  0.0621  0.1801  0.1572
17129W        W36663   5.579   1.638  15.264  0.2335 -0.1564 -0.0328
17130W        W36664   8.208  15.332  14.856 -0.1559  0.3349  0.0503
17131W        W36665   1.239   9.500   4.178 -0.1770  0.0609  0.0539
17132W        W36666   5.932   2.321  11.907  0.1807 -0.0109  0.0657
17133W        W36667  10.379   7.198   3.838  0.1881 -0.2039 -0.2120
17134W        W36668  10.268  16.315   4.573  0.2006 -0.2862  0.1680
17135W        W36669   6.381   1.095  12.399 -0.0423 -0.0353 -0.0928
17136W        W36670  16.304  13.514  14.716  0.1220 -0.2090  0.1101
17137W        W36671  11.127  13.859  13.632  0.2471  0.0109  0.0875
17138W        W36672  13.860  11.088   1.698  0.1780 -0.0241  0.0710
17139W        W36673  11.948   4.588  15.223 -0.1434  0.1165 -0.4663
17140W        W36674  16.889   9.945  16.936 -0.0078  0.1592 -0.0574
17141W        W36675   4.977  11.409  17.296  0.1461 -0.1615  0.0910
17142W        W36676   6.624   1.484   1.679  0.2465 -0.1828 -0.4992
17143W        W36677   1.200  11.753  15.068 -0.0507  0.0728 -0.1145
17144W        W36678  17.155   9.531   1.222 -0.2261 -0.1198  0.0010
17145W        W36679  10.016   4.944   2.555 -0.0758 -0.1412  0.0959
17146W        W36680   7.906  15.998   4.240  0.1804 -0.0294  0.3610
17147W        W36681   9.361   4.369   4.032 -0.0425  0.0388  0.1219
17148W        W36682   5.023  12.828  17.159  0.0695  0.0071 -0.1208
17149W        W36683  11.973  15.139  12.694 -0.1686 -0.0924  0.0219
17150W        W36684  10.532   3.985   2.682 -0.0261  0.3399  0.0459
17151W        W36685   2.977   7.146   0.907  0.1786  0.2065  0.1682
17152W        W36686  12.505  15.275   1.043 -0.3500 -0.1113  0.2284
17153W        W36687  14.470   5.130  13.433  0.2558  0.0338 -0.0292
17154W        W36688   4.913   9.432   1.070 -0.1837  0.1616 -0.0748
17155W        W36689   3.947   5.401  16.445  0.0876 -0.0869 -0.1469
17156W        W36690   1.660   5.157  13.320 -0.0868  0.0412  0.1032
17157W        W36691  16.305  11.367  14.772  0.4492 -0.0436 -0.0705
17158W        W36692  10.568   9.577  16.598  0.0257  0.0266  0.0451
17159W        W36693   8.605  14.456  15.188 -0.1484 -0.1568  0.3266
17160W        W36694  13.113   6.732   0.603  0.3437 -0.2482  0.0022
17161W        W36695  15.811   5.129  12.891 -0.1824  0.0001  0.2181
17162W        W36696  10.526  13.405  12.099 -0.1447 -0.1979  0.1741
17163W        W36697  16.775   7.399  13.449 -0.0404  0.0181  0.0369
17164W        W36698   9.886   6.196   1.409 -0.2435  0.0734  0.0611
17165W        W36699  17.341   5.471   3.683  0.2991 -0.0116  0.0906
17166W        W36700  12.983  16.474   2.037 -0.1970 -0.3590 -0.2751
17167W        W36701   4.991   3.700   2.300  0.0175  0.0338 -0.0922
17168W        W36702  15.343   7.327  14.958  0.0899  0.4404  0.1178
17169W        W36703   9.729  13.041  12.671 -0.2550 -0.0624  0.1974
17170W        W36704   6.685   1.373   4.315 -0.2247  0.0546  0.2112
17171W        W36705   3.267   4.607  12.919  0.1616  0.2504  0.0957
17172W        W36706   2.528  14.535  12.037  0.1699  0.0212  0.0493
17173W        W36707  17.437   8.188  12.522 -0.1694  0.0934  0.0191
17174W        W36708  12.044  11.541   4.936  0.1114  0.1271 -0.0458
17175W        W36709  11.231   7.289  14.950 -0.1603  0.0452 -0.0225
17176W        W36710  12.265   9.361  15.952 -0.0048 -0.0110  0.0930
17177W        W36711  17.459   5.059  12.352 -0.0751  0.1179 -0.1466
17178W        W36712   1.204   7.409   0.095 -0.0720  0.2840  0.2896
17179W        W36713  11.863  15.455  13.111  0.0620  0.0162  0.1238
17180W        W36714   9.915  17.084  14.152  0.0197 -0.1925 -0.0186
17181W        W36715   6.778   8.202   2.655 -0.1616 -0.1827  0.0176
17182W        W36716  14.501   7.634  14.584  0.1135 -0.2602 -0.0236
17183W        W36717  17.379   2.908  12.366 -0.0494  0.1281  0.0195
17184W        W36718   8.249  13.569  13.539 -0.0251 -0.2049 -0.0237
17185W        W36719   1.919   3.209   4.654 -0.1486 -0.0026  0.1603
17186W        W36720   4.058   0.274  15.424  0.1668 -0.0263  0.0369
17187W        W36721   5.662   8.836   1.100 -0.1200 -0.0671 -0.1704
17188W        W36722   9.137  10.097   3.548  0.1336  0.0442  0.1513
17189W        W36723   2.894  16.208  16.588 -0.0248 -0.4782 -0.1355
17190W        W36724   3.995  16.172   3.440  0.0943 -0.1643 -0.1110
17191W        W36725   5.461   9.511   1.328  0.0754  0.1525  0.2823
17192W        W36726   0.162  10.881   1.795  0.1721 -0.2396  0.3809
17193W        W36727   6.660   7.711   1.088 -0.0316  0.2416 -0.3410
17194W        W36728   0.581  10.539   0.525 -0.1369 -0.0877  0.2438
17195W        W36729  16.503   1.735  14.667 -0.1117 -0.1430 -0.2016
17196W        W36730  12.892  16.255  15.778 -0.1234  0.0757  0.1567
17197W        W36731   1.331  13.304   4.454 -0.1794 -0.0499 -0.0444
17198W        W36732  17.376   0.384   1.807 -0.3296  0.3032 -0.1275
17199W        W36733  15.731   8.022   3.221 -0.0866  0.0246  0.3630
17200W        W36734  11.325  13.399   2.952  0.1915 -0.1264  0.0610
17201W        W36735  13.100   1.055  15.049 -0.1930 -0.0996 -0.0858
17202W        W36736  11.398   2.136  16.329  0.1905  0.0321  0.0518
17203W        W36737  16.473   0.006  13.632 -0.1323 -0.1655 -0.0735
17204W        W36738  10.857  14.849   2.086 -0.1400 -0.0571 -0.2963
17205W        W36739  13.924  13.848   4.493  0.1067  0.1869 -0.0780
17206W        W36740  16.274   3.406   2.021 -0.0932 -0.0914 -0.0813
17207W        W36741  12.138   8.207   0.687  0.0905  0.2049 -0.1137
17208W        W36742   7.540   5.933   4.431 -0.3805  0.1730 -0.0887
17209W        W36743  10.168   2.944   2.668 -0.2348 -0.1051  0.3359
17210W        W36744  16.981   5.428  15.243  0.0309  0.1466  0.1671
17211W        W36745   1.233   5.347   1.216 -0.0017  0.2247  0.1237
17212W        W36746   0.331   3.558  16.699 -0.3568 -0.1172  0.2122
17213W        W36747   5.115   4.878  13.586 -0.0332 -0.0577 -0.0168
17214W        W36748   0.564   1.422  14.519 -0.0692  0.1293 -0.1884
17215W        W36749   8.953   3.974  17.302 -0.2566  0.1187 -0.0163
17216W        W36750   3.038   6.013   2.259  0.2293 -0.2423  0.1167
17217W        W36751   6.300   3.809  16.760 -0.2010  0.1597  0.0273
17218W        W36752  12.326   3.924  13.316  0.1138 -0.1289  0.1423
17219W        W36753   0.845   3.823   1.329 -0.3202 -0.2241  0.0049
17220W        W36754   5.686   6.746  17.313  0.0381 -0.0348 -0.0000
17221W        W36755  16.533   6.389   4.220 -0.0574  0.1241 -0.0460
17222W        W36756   2.426   1.519   4.524  0.1237 -0.0507  0.0657
17223W        W36757   6.784  17.381  17.020 -0.3735  0.2883 -0.2332
17224W        W36758   3.114   6.240  12.395  0.2496 -0.2199 -0.3069
17225W        W36759  10.315   2.288  13.541  0.0553 -0.0051 -0.0219
17226W        W36760   0.002  14.878   1.784  0.6036  0.0608 -0.1519
17227W        W36761   0.294   1.631  15.953 -0.1027  0.0652  0.2328
17228W        W36762  11.196   9.689  14.833 -0.0905 -0.0208 -0.0050
17229W        W36763  11.123   1.846  13.004  0.2525  0.0778  0.2069
17230W        W36764   6.622  13.258   3.631  0.1133  0.2772  0.1540
17231W        W36765   6.591  14.131   4.995 -0.2177  0.0964 -0.1117
17232W        W36766  10.446   0.876   0.699 -0.1821 -0.1714  0.1204
17233W        W36767   9.921   0.287   3.276 -0.1965 -0.1667  0.2053
17234W        W36768  15.054  14.758   3.347  0.0439  0.2098 -0.0318
17235W        W36769   4.191   7.610  14.721 -0.0289 -0.0316 -0.4713
17236W        W36770   9.598  10.466  16.954 -0.2506 -0.0015  0.1787
17237W        W36771  15.058   7.492  17.137 -0.3812  0.2547  0.0691
17238W        W36772   4.468   7.020  12.360  0.2487  0.3845  0.0972
17239W        W36773  13.445   2.724  15.533  0.1485 -0.0092 -0.0366
17240W        W36774  16.069  12.280   3.546  0.0256  0.5124 -0.0558
17241W        W36775   5.386   3.353  14.271 -0.0335  0.0595  0.0679
17242W        W36776   7.564   2.598   3.661 -0.1954  0.2199 -0.0810
17243W        W36777  10.686  14.546   1.069  0.0177 -0.2620  0.4700
17244W        W36778   7.465  17.203   3.745  0.0535  0.0785 -0.2936
17245W        W36779  10.918  13.498   3.359 -0.0028  0.1450  0.2299
17246W        W36780   3.017  14.555   0.776  0.0818  0.1714 -0.0072
17247W        W36781  10.303  15.678   2.081 -0.1800  0.3179  0.0456
17248W        W36782  11.903  10.188  14.271  0.2826  0.2243 -0.1391
17249W        W36783  13.169  15.786   1.413 -0.1070 -0.2148  0.0729
17250W        W36784  14.215   6.583   4.471 -0.1297  0.0110  0.1266
17251W        W36785  16.234  15.414   2.047 -0.2176  0.0765 -0.2488
17252W        W36786   2.965  16.224   0.769  0.3834 -0.1562 -0.0658
17253W        W36787   6.750  12.680   2.970 -0.0471 -0.0816 -0.1209
17254W        W36788   5.543   1.721  14.241 -0.0303 -0.0451 -0.1816
17255W        W36789  11.724  13.234   0.993  0.0422 -0.0496  0.0134
17256W        W36790   9.038   4.355   3.553  0.3767 -0.0064  0.0105
17257W        W36791  14.630   6.479   0.036  0.3130  0.0218 -0.0542
17258W        W36792  15.535  12.149  16.391  0.1229  0.3777 -0.1068
17259W        W36793   3.318  12.525   1.419 -0.0464 -0.1035  0.1800
17260W        W36794   7.225   1.075   0.986 -0.0077 -0.0510 -0.0198
17261W        W36795  16.015   4.020  14.264 -0.0651  0.0367 -0.1177
17262W        W36796  16.457  11.178   2.231 -0.0258  0.4188  0.0757
17263W        W36797  13.218  14.233   3.502  0.4112  0.1236 -0.1144
17264W        W36798   5.348   8.759   3.071  0.0292  0.1584 -0.0448
17265W        W36799  14.019  11.150  15.557  0.1609  0.1166 -0.1207
17266W        W36800   0.228  10.818   4.286 -0.1723 -0.3150  0.1668
17267W        W36801  12.389  17.077  15.446  0.2208  0.0715  0.0963
17268W        W36802  10.520  15.991  17.221  0.0965  0.3377  0.3310
17269W        W36803  14.925  11.072  15.751  0.2198 -0.1038  0.1007
17270W        W36804  10.283  15.444  15.624 -0.0914  0.3048 -0.0668
17271W        W36805  13.938   3.846  15.861 -0.0740 -0.1445 -0.0370
17272W        W36806   5.380  17.153   2.470  0.1655 -0.1358  0.1338
17273W        W36807  13.897  12.857  12.518  0.0515  0.0931  0.2041
17274W        W36808   1.497  10.445   0.964 -0.1802 -0.0215 -0.3359
17275W        W36809   2.434  11.179  14.392 -0.4476 -0.0359  0.3598
17276W        W36810   9.888   3.384  13.181 -0.0475  0.0211 -0.2670
17277W        W36811   7.188  13.140  12.338  0.1545 -0.0599 -0.0264
17278W        W36812  15.800  15.066   0.583 -0.1055  0.0113  0.0505
17279W        W36813  14.510   4.441  13.688 -0.3103 -0.1081 -0.3318
17280W        W36814   9.311   1.945   0.492 -0.0519 -0.3490  0.1746
17281W        W36815   2.842  13.656  17.313  0.1469  0.0265 -0.3392
17282W        W36816   2.373   4.670   0.044  0.1843  0.4007  0.0093
17283W        W36817   3.232  15.332  16.491 -0.0870  0.2130  0.0854
17284W        W36818   0.829   8.528   2.281 -0.0204 -0.0563 -0.0075
17285W        W36819  12.368   7.507   0.191  0.0997  0.0590 -0.1148
17286W        W36820  12.914   8.825  16.392  0.0058  0.1912  0.1140
17287W        W36821   5.875   0.128  13.820 -0.0447  0.0595 -0.0305
17288W        W36822   1.570   6.811  14.102 -0.0836  0.1275  0.0513
17289W        W36823  15.937  16.400   4.618  0.0898 -0.1937  0.1760
17290W        W36824   9.408  13.541  13.715 -0.0925  0.1505  0.2401
17291W        W36825   6.659   7.432   0.698  0.1299  0.0781 -0.1773
17292W        W36826  14.759   6.524   4.471  0.0059  0.1755 -0.1153
17293W        W36827   6.979   1.511  16.643 -0.2040 -0.0954  0.0543
17294W        W36828   5.048  17.167  12.310 -0.2424  0.2230  0.0823
17295W        W36829   1.309   5.187   3.344  0.0919 -0.1950  0.3026
17296W        W36830  16.467  13.516   0.664  0.1824 -0.4013  0.2828
17297W        W36831   1.126   8.501   1.327 -0.1403  0.1604 -0.1150
17298W        W36832  15.799   9.537  14.680 -0.3394  0.0676 -0.1500
17299W        W36833   3.259  14.509  16.419  0.0169 -0.1928 -0.1779
17300W        W36834   1.596   7.888  14.815 -0.0987  0.0908 -0.3112
17301W        W36835   1.638  10.987  14.799 -0.1268 -0.2853  0.0722
17302W        W36836   6.282  10.979   3.159  0.0931 -0.2641 -0.0348
17303W        W36837  11.167  11.921   2.762  0.1527 -0.0773 -0.1223
17304W        W36838  16.468   4.368   1.011 -0.0878 -0.1160 -0.2081
17305W        W36839   1.042  10.947  16.458 -0.0133  0.1617 -0.0487
17306W        W36840   1.928  15.805  16.074  0.2215  0.0118  0.2322
17307W        W36841   0.507   7.600   0.609  0.0192 -0.2962 -0.1955
17308W        W36842   0.027  14.506  15.161  0.2290 -0.0174  0.0630
17309W        W36843   9.596   2.450   2.747  0.1586 -0.1546 -0.0932
17310W        W36844   9.936  15.886   2.316  0.3203 -0.1062  0.0911
17311W        W36845   5.249   8.160   5.032  0.1147 -0.0407  0.1353
17312W        W36846  14.111   9.940  15.159 -0.1331  0.2418  0.2346
17313W        W36847  14.606  16.731  12.895  0.2499 -0.0300 -0.0640
17314W        W36848  16.461   3.352   5.106  0.1544 -0.0762 -0.0431
17315W        W36849  12.018  14.356  16.961 -0.2191 -0.0748  0.2073
17316W        W36850   0.519   1.159  16.425  0.0534  0.2873 -0.0872
17317W        W36851   6.412  11.448  12.515 -0.0263 -0.0687 -0.0135
17318W        W36852  12.293   0.467   0.735  0.1175 -0.0801  0.0878
17319W        W36853   2.758   0.827   0.237  0.1291 -0.0293 -0.1792
17320W        W36854   4.921   7.667   4.317 -0.0488  0.0674 -0.1276
17321W        W36855  17.300  12.399  14.455 -0.0979 -0.0702 -0.1821
17322W        W36856   3.096  10.162  12.453 -0.0080 -0.1100 -0.1300
17323W        W36857  11.135  10.531   4.153  0.3239 -0.2787 -0.1357
17324W        W36858   0.669   3.163   2.371 -0.0152  0.0471  0.1547
17325W        W36859   2.499  14.276   1.460 -0.1969  0.1672  0.3075
17326W        W36860   4.008  13.792  17.099  0.2202 -0.2497  0.1258
17327W        W36861  15.746   3.908   5.071  0.2356  0.1102 -0.0009
17328W        W36862  12.977   4.762   1.595  0.0460 -0.1380  0.1212
17329W        W36863   0.298   9.146  15.374  0.0015  0.0930 -0.2098
17330W        W36864   2.385  14.103   4.005 -0.0321  0.1517  0.2343
17331W        W36865  10.333   6.889   5.655 -0.0656 -0.0601 -0.2292
17332W        W36866  10.761  16.398   3.925 -0.0248  0.3219  0.0163
17333W        W36867   4.448   7.927  16.808 -0.0234 -0.0866 -0.0996
17334W        W36868   5.511   6.323   3.351 -0.2776 -0.1375  0.0723
17335W        W36869  12.470   6.825   0.773 -0.0516  0.2449 -0.1614
17336W        W36870  16.287  15.587   1.581  0.0558 -0.2545 -0.0058
17337W        W36871   9.299   9.410   1.986  0.0466  0.0728  0.0950
17338W        W36872  14.155   8.484   4.576 -0.0499  0.0667  0.0768
17339W        W36873  16.187   5.331   0.967 -0.0158  0.2529 -0.2323
17340W        W36874   1.153   9.085  16.011  0.1573 -0.0603  0.0658
17341W        W36875   2.116   0.086   0.004  0.2432 -0.1659  0.2161
17342W        W36876   7.997   3.521   2.111 -0.0012  0.1774 -0.2980
17343W        W36877   2.015  15.718  12.732 -0.1345  0.2439  0.0589
17344W        W36878   1.092   3.827   3.676  0.4411  0.0827 -0.0650
17345W        W36879   5.030   5.192   0.212  0.0048  0.0522 -0.0254
17346W        W36880  15.009   3.068  13.689 -0.2905 -0.0635 -0.2200
17347W        W36881  16.906  15.698  14.992  0.2654 -0.1900 -0.1381
17348W        W36882  16.973  10.360   3.551  0.0750 -0.1689 -0.1990
17349W        W36883  10.157  12.667  15.499  0.1098  0.1073 -0.1552
17350W        W36884   6.921   1.658  17.200 -0.1679  0.0325  0.0137
17351W        W36885  12.408  14.260  12.428  0.0180 -0.0197 -0.1654
17352W        W36886  13.911   9.982  13.034 -0.0419  0.3836 -0.1776
17353W        W36887  16.289   3.430   3.372 -0.1132 -0.0980 -0.0835
17354W        W36888   1.608   6.466  16.473 -0.0846  0.1154 -0.0289
17355W        W36889  14.288  12.099  13.102 -0.1440 -0.0420 -0.2990
17356W        W36890   0.813  14.509   2.588 -0.1924 -0.0705 -0.3055
17357W        W36891   1.484   0.902   4.870 -0.0294  0.0320 -0.1480
17358W        W36892   6.365   9.452   1.960 -0.1293 -0.0661 -0.2891
17359W        W36893  12.550   7.731  17.040  0.1289 -0.0454  0.0242
17360W        W36894   3.646  15.940  12.358  0.3744 -0.4996  0.0131
17361W        W36895   9.242   1.267   5.137  0.2831  0.3621  0.0110
17362W        W36896  15.836  16.613  13.700  0.2554  0.0310 -0.2970
17363W        W36897   9.200  11.072  14.368  0.2532 -0.0238  0.3969
17364W        W36898   3.836   6.349  12.685 -0.4198  0.0525 -0.1201
17365W        W36899  11.563   9.892   2.015  0.1224 -0.0372  0.3743
17366W        W36900  14.317   9.843  14.648  0.0863 -0.0803 -0.1264
17367W        W36901   0.020   4.623   3.396  0.2289 -0.2163  0.0453
17368W        W36902   3.655   6.762   3.768 -0.0931  0.0482  0.0506
17369W        W36903   2.668   7.803   1.614 -0.2273  0.1128 -0.2268
17370W        W36904   4.823  11.406   3.706 -0.0567 -0.0875  0.2177
17371W        W36905  10.602  13.279  14.378  0.1419  0.1409 -0.1884
17372W        W36906   1.438   1.475  14.495  0.3649 -0.0944  0.1403
17373W        W36907   5.849   5.146  15.451 -0.4511  0.2564  0.0798
17374W        W36908   5.658   7.722   4.568  0.2167  0.0929 -0.2772
17375W        W36909  11.194   0.212  13.675 -0.1938  0.3412 -0.1630
17376W        W36910   3.580  14.839  16.641  0.2203  0.1228 -0.0668
17377W        W36911  11.765  10.650  14.468  0.2835  0.2872  0.0351
17378W        W36912   6.050  15.802  16.601 -0.2134 -0.1960 -0.0897
17379W        W36913  12.415  15.269   3.140 -0.1814 -0.3626  0.4461
17380W        W36914   2.689  13.753  16.446  0.2244 -0.0728 -0.0629
17381W        W36915   8.151   4.619   2.773  0.0807 -0.1521 -0.1055
17382W        W36916   3.277  17.195  16.166  0.0926  0.2072 -0.0236
17383W        W36917  12.322  10.129   0.953 -0.1700 -0.0579 -0.0276
17384W        W36918   9.760   1.372  15.887 -0.3242 -0.1560 -0.1477
17385W        W36919  12.132   3.367  15.016  0.2232 -0.0829 -0.1006
17386W        W36920  10.116   1.764   0.768  0.1646 -0.1128 -0.0169
17387W        W36921   3.978   6.413   4.706  0.2308 -0.1567  0.0658
17388W        W36922  11.563  17.395   1.591 -0.2570  0.1202  0.1036
17389W        W36923  11.122   6.539   3.575  0.0013  0.0177  0.4988
17390W        W36924  10.474  13.181  16.168  0.1953 -0.0964 -0.1110
17391W        W36925  14.710   3.373  15.255  0.0016 -0.2464 -0.1767
17392W        W36926  12.941  14.029   1.323 -0.0404  0.0896  0.0737
17393W        W36927   0.846  11.070  12.442  0.0491  0.0181  0.0761
17394W        W36928   6.278   7.908  16.841  0.1334 -0.1086 -0.1381
17395W        W36929   5.680  11.911   3.352 -0.0856  0.0210  0.2912
17396W        W36930   4.910  15.466   3.810 -0.1162 -0.1366  0.1364
17397W        W36931   9.224   6.265  12.685 -0.0700 -0.0110 -0.0966
17398W        W36932   4.996   7.888  13.288 -0.0385 -0.0172  0.0569
17399W        W36933  17.018   3.399  17.214 -0.1964  0.2183  0.1312
17400W        W36934   8.397  10.285  15.552  0.0346  0.1849 -0.0194
17401W        W36935   2.118   6.752   2.889  0.3758 -0.1377  0.1398
17402W        W36936  13.440  16.024   3.074  0.0053 -0.0445  0.3106
17403W        W36937   7.741   5.391   2.673  0.1638  0.0199  0.2636
17404W        W36938  16.715   4.405   2.195  0.0427 -0.1384 -0.2726
17405W        W36939   6.715   4.936   0.438 -0.1970 -0.1778  0.0984
17406W        W36940  11.727   2.914  14.823 -0.1798  0.1287  0.1940
17407W        W36941  11.242   5.523   4.781 -0.1913 -0.1088 -0.0706
17408W        W36942   1.360   5.637   2.917  0.1521  0.2011  0.0372
17409W        W36943   0.087  14.433   5.094  0.2111 -0.0843 -0.2043
17410W        W36944   6.893   1.263  13.777 -0.0650  0.0793  0.0862
17411W        W36945  12.936   5.167   5.403 -0.0445  0.0072 -0.1139
17412W        W36946   9.786  13.646  15.895  0.2985  0.2523 -0.0084
17413W        W36947   8.098   6.801  16.066  0.1419  0.0592 -0.0483
17414W        W36948   5.628   2.444   0.770 -0.0924  0.2271  0.1794
17415W        W36949   1.566   8.602   4.996  0.0630 -0.0628  0.1234
17416W        W36950   3.885  17.091   4.393 -0.0769 -0.1364  0.0978
17417W        W36951   4.637   7.672  12.994 -0.1227 -0.0935 -0.0531
17418W        W36952  15.132   2.877   1.689  0.0347  0.1140 -0.1032
17419W        W36953  12.875  15.294   1.407  0.1087 -0.3409 -0.3439
17420W        W36954   6.253   5.135   4.594  0.1569 -0.0705  0.0860
17421W        W36955  14.674  10.669  16.614 -0.4802 -0.0028  0.0268
17422W        W36956  11.596   6.618   3.434  0.1555  0.1910 -0.0481
17423W        W36957   9.494   0.615  16.471  0.0325  0.3163 -0.1839
17424W        W36958   7.651  13.312   0.326 -0.0777  0.2991 -0.1252
17425W        W36959   8.795   4.418   3.085 -0.0666  0.0045  0.0346
17426W        W36960   2.272  15.403   4.771  0.0071  0.1053  0.4611
17427W        W36961   0.910   8.816   3.825  0.1004 -0.0925  0.0961
17428W        W36962   7.091   9.769   1.943  0.0960 -0.1473 -0.0922
17429W        W36963  10.564   3.893  13.230  0.1653  0.0880  0.1096
17430W        W36964   8.958  16.658  12.390 -0.2020  0.0127 -0.3161
17431W        W36965  16.804   6.370  16.203  0.1243  0.1290  0.1363
17432W        W36966   7.687  13.507   3.457 -0.0668 -0.3706 -0.1071
17433W        W36967   3.706   4.115   0.381  0.1567  0.1367  0.2330
17434W        W36968   3.956   6.166  13.449 -0.4347 -0.3217 -0.0781
17435W        W36969  15.471   0.394   2.140 -0.1218 -0.2496  0.1534
17436W        W36970  15.020   4.407   2.282 -0.3081  0.2217 -0.0479
17437W        W36971  14.160   0.857   3.102 -0.1530  0.0549 -0.2526
17438W        W36972   4.821   2.768  12.675 -0.1645  0.1591  0.1804
17439W        W36973  12.562   5.948  15.192 -0.0718 -0.1877 -0.3030
17440W        W36974  14.092   6.127  16.889  0.0861  0.1430 -0.1109
17441W        W36975   9.335   4.672  16.142 -0.2095  0.3371 -0.2035
17442W        W36976   6.756   9.379   2.284  0.1327 -0.1084 -0.0559
17443W        W36977   5.660   6.477   0.381 -0.0515  0.2689 -0.0126
17444W        W36978  12.863   8.655  15.857 -0.1005  0.1928 -0.0656
17445W        W36979   3.769   9.982  16.684 -0.0566  0.1735 -0.0108
17446W        W36980   5.151   0.162   3.939  0.0645  0.0083 -0.1999
17447W        W36981   7.967  14.845  13.835 -0.0956  0.0718  0.0936
17448W        W36982  17.457  14.494   4.135  0.2881 -0.0033  0.0923
17449W        W36983   1.957   7.350   3.590 -0.3025  0.0920 -0.1606
17450W        W36984   4.160  12.476   1.066 -0.0465  0.2649  0.1722
17451W        W36985   3.844  11.443   1.782  0.0898 -0.1054  0.1228
17452W        W36986   2.880  13.883  15.868  0.2489 -0.2324  0.1586
17453W        W36987  17.296   5.455   4.170 -0.2164 -0.2151 -0.1766
17454W        W36988  15.317  17.236   5.058 -0.3457  0.2462  0.1190
17455W        W36989  10.082   1.445  13.711 -0.0497  0.0969 -0.2142
17456W        W36990   2.019  10.645  12.174 -0.1756  0.1312  0.0973
17457W        W36991   3.777   7.078  15.198  0.0597  0.0700 -0.0923
17458W        W36992  17.176  12.796   0.509 -0.1305 -0.0290  0.3951
17459W        W36993   6.461   8.673  15.933  0.0111  0.0539 -0.0873
17460W        W36994   0.938   8.663   0.476  0.1288 -0.1722 -0.0845
17461W        W36995  11.007   1.524   4.629  0.1497 -0.1818  0.0867
17462W        W36996  13.546  11.305  14.616  0.2630 -0.0972  0.0019
17463W        W36997   6.155  13.072   1.562  0.1345 -0.0365 -0.0074
17464W        W36998   7.987  10.627   1.890 -0.0257 -0.0590  0.2244
17465W        W36999   3.361  13.566   2.676  0.0001  0.0679 -0.0991
17466W        W37000  11.806   1.809  14.428 -0.0334 -0.2485  0.1589
17467W        W37001  16.606  16.131  17.091  0.3601 -0.0150 -0.3577
17468W        W37002  16.622  13.039  15.526  0.0558 -0.2693  0.3093
17469W        W37003   6.319   3.138  15.088 -0.1772 -0.0951  0.0676
17470W        W37004  10.111  13.951  12.512 -0.0187 -0.3257 -0.1299
17471W        W37005   8.899  16.095  14.867  0.2008  0.0652  0.1946
17472W        W37006   8.054  15.416   1.317  0.1529  0.0466 -0.0319
17473W        W37007  15.852   8.666  15.537 -0.0217  0.2481 -0.1974
17474W        W37008  16.910  14.076   1.714 -0.1819 -0.2537  0.1464
17475W        W37009   4.763   3.325   4.272 -0.2205 -0.0220 -0.0194
17476W        W37010   3.662  15.697  16.582  0.1160 -0.2239  0.3186
17477W        W37011   0.485   8.448   5.555  0.0953 -0.3031 -0.0770
17478W        W37012   8.520   9.520   3.184 -0.1270  0.1190 -0.1246
17479W        W37013   9.890   8.866  15.130 -0.1506 -0.1399  0.1373
17480W        W37014   7.262  16.509   0.961 -0.1634  0.0375 -0.1340
17481W        W37015   7.488  15.402   0.230 -0.2500  0.1539 -0.0302
17482W        W37016  14.608  16.753  14.465  0.2185 -0.0075  0.1386
17483W        W37017  13.314   2.788   1.996  0.2191  0.3361 -0.4039
17484W        W37018   7.261   3.933   1.337 -0.0551  0.1042 -0.3569
17485W        W37019   1.212   4.931  15.500 -0.1368  0.0259  0.0201
17486W        W37020  14.516   7.573  13.362 -0.0103  0.1036 -0.1641
17487W        W37021   8.208  17.021   0.521  0.4763 -0.3783  0.0676
17488W        W37022   9.063  15.041  13.857 -0.3498 -0.0509 -0.2236
17489W        W37023   5.428   6.570  14.884 -0.1686  0.0366 -0.0020
17490W        W37024   9.446  14.715   3.743  0.0119 -0.0006  0.0617
17491W        W37025   4.939  10.454  12.665 -0.4092  0.0053 -0.1871
17492W        W37026  10.180   5.710  13.787  0.2520 -0.0228 -0.0996
17493W        W37027   3.801   1.477  14.103  0.1533 -0.1287  0.4025
17494W        W37028   2.654   6.357  12.455 -0.0849 -0.1519  0.1012
17495W        W37029  14.258   2.708  16.952  0.2688 -0.0734 -0.0730
17496W        W37030  13.049  14.706   2.496  0.0567 -0.2012 -0.0600
17497W        W37031  16.825  11.240  17.053  0.0040  0.0790 -0.1227
17498W        W37032  16.298  16.045   3.417  0.1747 -0.1687  0.0907
17499W        W37033  15.062   8.836   4.120 -0.3357  0.1095 -0.0468
17500W        W37034  10.793  10.786  14.563 -0.1036  0.3245 -0.0463
17501W        W37035   8.710  11.848   0.479  0.1070  0.2367  0.2192
17502W        W37036   5.805  12.253  13.335 -0.1870  0.0319 -0.1163
17503W        W37037  15.185   7.732   4.536 -0.0235 -0.0405 -0.2792
17504W        W37038  11.980  14.915  15.245 -0.1758 -0.1778 -0.1835
17505W        W37039  16.549  16.756  15.151 -0.0922 -0.0129 -0.2498
17506W        W37040   6.754  13.599   3.290 -0.0510  0.0776 -0.2288
17507W        W37041   9.409  12.332  13.162  0.1810 -0.0331 -0.2761
17508W        W37042   6.522   6.233  14.333 -0.0387 -0.2131 -0.0464
17509W        W37043   5.539   4.342  15.760  0.0485  0.1150 -0.0308
17510W        W37044   8.961  10.848  16.073 -0.2259 -0.1130 -0.2685
17511W        W37045   6.582  12.618  15.559 -0.2922  0.4039  0.0653
17512W        W37046  10.683   4.694   2.186  0.1524 -0.0691  0.1858
17513W        W37047  12.442   0.671   2.428  0.3808 -0.4724 -0.0120
17514W        W37048  12.195   5.142   4.992 -0.0994 -0.0995  0.1164
17515W        W37049  13.482   0.457   2.033 -0.1498  0.2968 -0.0889
17516W        W37050  14.858  12.849   4.341  0.3913  0.0313  0.1488
17517W        W37051   3.965   2.048  14.047 -0.3750  0.0961  0.0890
17518W        W37052   6.960   2.633   4.581 -0.1224  0.1577 -0.0054
17519W        W37053   0.191   7.711  17.080 -0.2654  0.3508 -0.1032
17520W        W37054   3.169  13.981  17.212 -0.1204  0.0004  0.1197
17521W        W37055  16.288  13.992   1.435 -0.2488 -0.0894  0.1180
17522W        W37056   4.446   6.326   4.783  0.0569 -0.0494 -0.1323
17523W        W37057  16.918   2.121   5.052  0.1195  0.3707  0.1331
17524W        W37058   5.700  12.996  13.046  0.0474 -0.3514 -0.0096
17525W        W37059  14.466  16.754   4.023 -0.0129  0.1498  0.0682
17526W        W37060  16.015   5.228   1.895 -0.0163  0.1500  0.4019
17527W        W37061  12.800   2.193  14.907 -0.2318 -0.0553 -0.0618
17528W        W37062   0.705  11.627  12.698 -0.3064  0.1615 -0.1393
17529W        W37063   1.322   3.912   2.738 -0.2561 -0.5025 -0.1145
17530W        W37064   1.688  14.168   0.966 -0.1940  0.0421 -0.0807
17531W        W37065  10.550   9.741   2.513 -0.1103 -0.0361 -0.0073
17532W        W37066   3.707   2.459   1.051 -0.1164 -0.0004  0.1089
17533W        W37067   8.345  16.734   3.581 -0.1478  0.0079  0.2434
17534W        W37068  12.545  15.369  15.965 -0.0309  0.0831 -0.1666
17535W        W37069  11.772   0.675   6.090 -0.1822 -0.1010  0.2593
17536W        W37070  12.252  14.864  15.827 -0.2304  0.3317  0.3267
17537W        W37071  11.324  14.675   2.125 -0.0302  0.0849  0.0534
17538W        W37072   2.244  10.968   4.302 -0.1029  0.3763 -0.0746
17539W        W37073   0.389  12.030  12.603 -0.0595 -0.2670 -0.0473
17540W        W37074   0.114  17.286   2.944  0.0677  0.0002  0.1896
17541W        W37075  10.429   8.200  13.071  0.2485 -0.0186 -0.0424
17542W        W37076  13.645  17.157   3.619  0.0121  0.1523 -0.0151
17543W        W37077  17.047   5.073   3.298  0.0917 -0.2703  0.1382
17544W        W37078  12.820   6.021  13.552 -0.2766  0.1542 -0.0585
17545W        W37079   8.174   9.678   4.335 -0.1101 -0.0109 -0.2047
17546W        W37080  15.681  16.505  15.149  0.0093  0.0809  0.1542
17547W        W37081   8.994  11.698   3.254  0.0174 -0.2573 -0.0453
17548W        W37082  12.902   4.347   5.040  0.1994  0.2890  0.0757
17549W        W37083  15.724   5.872  13.674 -0.0414  0.0955 -0.2493
17550W        W37084   0.091   6.591  15.646  0.1222 -0.0509 -0.0695
17551W        W37085   4.876   7.323   4.873 -0.0443  0.0141 -0.0109
17552W        W37086  10.422  12.692   5.221  0.1633 -0.2631  0.1760
17553W        W37087   3.855   3.355   2.574  0.1659  0.0981  0.0085
17554W        W37088   0.667   2.379   4.411  0.0484  0.0594  0.2014
17555W        W37089  16.496   2.906   3.425  0.2957  0.3736  0.0457
17556W        W37090  17.152   0.460  17.149  0.0552  0.1185  0.0192
17557W        W37091  12.183   4.334  16.227 -0.0223 -0.4359 -0.1318
17558W        W37092  17.061  15.754  12.360 -0.0937 -0.3314  0.1865
17559W        W37093   5.391  15.362   0.384  0.1318 -0.2040  0.1662
17560W        W37094   7.782  16.262  15.344  0.1002 -0.0082  0.0199
17561W        W37095  13.490   9.169   2.804 -0.0089 -0.0800 -0.3256
17562W        W37096   1.535  13.709   1.047 -0.0668  0.0953  0.1772
17563W        W37097  12.866   7.490  15.975 -0.2417 -0.0755 -0.0802
17564W        W37098   4.575  12.549   1.929  0.2937  0.0719 -0.5243
17565W        W37099   6.462  14.774  13.612  0.0156 -0.2849  0.2422
17566W        W37100  13.626  10.362  12.937  0.2986 -0.2016 -0.1637
17567W        W37101   4.404  12.250  17.101  0.1819 -0.0882 -0.1440
17568W        W37102   0.862   4.431  13.270 -0.2592 -0.1175  0.2494
17569W        W37103  16.208  17.409   4.191  0.2558  0.1850  0.0576
17570W        W37104   5.371   7.009   4.054  0.0743  0.1662  0.1491
17571W        W37105   5.558   6.761  15.348  0.1692  0.2645  0.1139
17572W        W37106  14.123  15.762  15.009 -0.5711 -0.1219 -0.0500
17573W        W37107   0.188   2.538  14.207  0.0865 -0.3161  0.0710
17574W        W37108  15.152   2.732  14.177 -0.1283 -0.2042 -0.0068
17575W        W37109   2.058   9.902  15.212  0.3561 -0.2832  0.0237
17576W        W37110   7.104   6.381  14.990  0.0284 -0.0040  0.0734
17577W        W37111  14.560  13.617   0.317 -0.3733  0.2375  0.0634
17578W        W37112  14.353   9.312  14.504 -0.2166 -0.0599 -0.0967
17579W        W37113  10.604   4.912  16.904  0.0673  0.0137  0.0642
17580W        W37114  17.101  13.106  12.184 -0.0253  0.1363 -0.2226
17581W        W37115   8.623   5.989   1.611  0.0381 -0.0521 -0.0428
17582W        W37116  11.695   1.019   2.944  0.2332  0.0462  0.0013
17583W        W37117   4.863   3.203  12.421 -0.1391  0.2089  0.0569
17584W        W37118   7.973   7.241   0.453  0.3149 -0.2296 -0.1429
17585W        W37119  11.623   1.579  15.349  0.0985  0.2308  0.3608
17586W        W37120  14.855   5.350  13.705 -0.1801 -0.0384 -0.3204
17587W        W37121  10.809   8.436   4.040  0.1498 -0.2716  0.0700
17588W        W37122   2.769   3.923   3.301  0.0597  0.1110  0.1391
17589W        W37123   4.184   5.365   1.533 -0.0083 -0.0745  0.0232
17590W        W37124  15.222  14.282   4.055 -0.2381 -0.0285  0.3754
17591W        W37125   7.971   5.538  15.786 -0.2330 -0.0640 -0.2560
17592W        W37126   2.509  13.818   2.844 -0.0125 -0.2712 -0.0152
17593W        W37127   2.895  14.245  11.839  0.0744  0.2038  0.1622
17594W        W37128   9.951   9.926   4.661 -0.1810  0.0392 -0.1195
17595W        W37129  16.774   1.648  14.151  0.1737  0.2965  0.2024
17596W        W37130  10.789   4.512   2.752  0.0738  0.0908 -0.0700
17597W        W37131   9.527   6.275   4.982 -0.1100  0.1560  0.1960
17598W        W37132   6.321   4.305   4.210  0.4454  0.1128  0.4109
17599W        W37133  14.255  14.890  12.891  0.2910 -0.1922  0.3110
17600W        W37134   8.501   9.393  14.838  0.1348  0.1922  0.1381
17601W        W37135   5.482  14.520   0.753  0.0730 -0.0805  0.2688
17602W        W37136  16.920   3.146   2.652 -0.0501 -0.0347  0.0749
17603W        W37137   9.447   8.842  14.827  0.2739  0.0654  0.0100
17604W        W37138  14.648  15.024   0.527  0.1433 -0.0998 -0.0517
17605W        W37139  16.188   0.708   2.563 -0.1539 -0.1031  0.0956
17606W        W37140   2.848   8.147  12.984  0.1355  0.1634  0.2956
17607W        W37141   8.587   7.742   1.414 -0.0476 -0.3420  0.0608
17608W        W37142  12.196   4.945  12.055 -0.2344  0.1006  0.0205
17609W        W37143   7.252   3.667  16.524 -0.0352 -0.1293  0.0484
17610W        W37144   8.039  13.821   3.319  0.0654 -0.0715 -0.1275
17611W        W37145   9.105   5.728  12.769 -0.1736  0.0621  0.0014
17612W        W37146   3.296  13.705   0.275  0.2569  0.0560  0.1799
17613W        W37147   7.340   7.606  16.375  0.1284  0.0527  0.0520
17614W        W37148  11.848   4.010  13.637 -0.3241 -0.3653  0.1594
17615W        W37149  11.577  16.061   0.243  0.1774  0.0826 -0.1995
17616W        W37150   2.482  17.425  15.886 -0.3135  0.1142  0.2887
17617W        W37151   6.294  15.686   4.031  0.0982  0.1218 -0.0657
17618W        W37152   1.886  10.178   3.519  0.0206  0.0151 -0.0386
17619W        W37153  13.206  15.783   5.274  0.2265 -0.0768  0.2668
17620W        W37154  15.312   0.015  13.424 -0.0160  0.0138 -0.1568
17621W        W37155   1.395  17.411   1.767 -0.1370 -0.0592 -0.0169
17622W        W37156   7.881   1.481  12.992 -0.2132 -0.2363  0.1087
17623W        W37157  17.165  10.802   2.275 -0.0011  0.3517 -0.2241
17624W        W37158  14.469   8.082   1.914 -0.2221  0.0900 -0.0255
17625W        W37159  11.516  15.042  13.024 -0.0237 -0.1397 -0.1518
17626W        W37160   7.461   5.276  15.054 -0.2978  0.0897  0.1725
17627W        W37161   7.870   3.681  12.883 -0.1932  0.0292  0.0658
17628W        W37162   1.518   0.038  14.852 -0.1131 -0.1601  0.0541
17629W        W37163  14.476   6.004   0.747  0.1011 -0.1723  0.1245
17630W        W37164   2.564  13.727   0.898 -0.0377 -0.1838  0.2714
17631W        W37165  14.498   4.153   2.240  0.0678 -0.0672  0.4376
17632W        W37166   2.593   2.307   1.275  0.2354 -0.1288  0.2657
17633W        W37167   5.482   7.103   1.089 -0.1030 -0.1410 -0.1607
17634W        W37168  10.272   0.808  14.746 -0.3485  0.1331 -0.0432
17635W        W37169  15.492   1.708  14.645 -0.2148 -0.1942  0.3092
17636W        W37170   1.135   3.046   3.287  0.0529 -0.0261  0.0242
17637W        W37171   8.186  12.095  11.439  0.1614  0.1814 -0.0001
17638W        W37172  16.700   3.231   1.927  0.2695 -0.2266  0.3932
17639W        W37173   6.258   8.742   3.862  0.2669  0.0584  0.1804
17640W        W37174  14.989  15.975  14.343 -0.2565 -0.0498  0.0791
17641W        W37175  16.042  10.100  13.522 -0.3164 -0.0273  0.2076
17642W        W37176   3.979   4.796  17.183  0.0216 -0.0494 -0.0381
17643W        W37177   9.085   4.843   1.228 -0.1617  0.1145 -0.2882
17644W        W37178   4.070   9.488   3.896 -0.1216 -0.0466  0.1187
17645W        W37179   4.059  12.232  16.012  0.0602  0.3099  0.1365
17646W        W37180  15.034  10.875   3.714 -0.0376 -0.0043 -0.1085
17647W        W37181  17.347  14.519   0.589  0.0401  0.1061 -0.1418
17648W        W37182  13.213  16.614  16.084 -0.0594  0.1087  0.2056
17649W        W37183   9.434  11.107  12.868  0.1196 -0.1890  0.0423
17650W        W37184   7.895  11.665   2.854 -0.0981 -0.1614  0.0300
17651W        W37185  15.440  15.636   0.304 -0.0181  0.0896 -0.2329
17652W        W37186  11.574   8.877   0.953  0.0882  0.2059 -0.2919
17653W        W37187  13.727   3.784   0.256  0.0234  0.0643 -0.3162
17654W        W37188   8.701   0.794   2.910  0.1023 -0.0613  0.1965
17655W        W37189  12.665   2.481  12.293 -0.1776 -0.0468  0.0236
17656W        W37190  10.910  10.471  14.170 -0.2694 -0.2133 -0.0912
17657W        W37191   1.143   8.687   3.421 -0.0117 -0.1890 -0.0481
17658W        W37192   2.331  11.061   0.667  0.0608  0.1603 -0.3195
17659W        W37193  12.101   3.629   4.439  0.5380 -0.0973  0.0693
17660W        W37194   9.833   3.267  12.644  0.0004  0.0082 -0.1046
17661W        W37195   3.159  12.069  17.257  0.0265  0.2277  0.0116
17662W        W37196   6.482   1.022  13.809  0.3394 -0.1042 -0.0246
17663W        W37197   0.318  15.467   0.423  0.0795 -0.0846 -0.0994
17664W        W37198   9.873  14.203   1.124  0.3179 -0.1849  0.2993
17665W        W37199  14.573   6.748   4.042 -0.1271 -0.0935 -0.0915
17666W        W37200  11.084  10.904  17.295  0.2716  0.1685 -0.1134
17667W        W37201   6.816  12.137   6.302 -0.2635 -0.1284  0.2706
17668W        W37202   1.276   4.467  14.964 -0.2765  0.0490 -0.1453
17669W        W37203   4.446   4.214  13.516  0.0989 -0.0859 -0.3835
17670W        W37204  13.126   7.561  15.008  0.1556 -0.0239  0.1092
17671W        W37205  15.036   8.754  16.101 -0.0389  0.0952 -0.0134
17672W        W37206   9.120   1.343  14.188 -0.1349 -0.4215  0.1825
17673W        W37207   3.634   4.036  14.513  0.1630  0.2178  0.0661
17674W        W37208   1.008   7.133  16.962  0.1458  0.1298 -0.0488
17675W        W37209   3.611  14.970   0.296  0.0531  0.1246  0.1829
17676W        W37210  15.090   2.048   2.068  0.2399  0.2279  0.3852
17677W        W37211   5.438   1.118   4.720 -0.3188  0.2000  0.0390
17678W        W37212   8.340  13.827   4.152  0.2618 -0.0064 -0.1737
17679W        W37213   2.312   4.769   3.586  0.2866  0.2992  0.3140
17680W        W37214   8.040   5.347  13.951  0.0033  0.3023  0.0871
17681W        W37215   9.001   8.768   4.696  0.2581  0.2678 -0.0140
17682W        W37216   4.504  12.496  16.036 -0.3654 -0.1946  0.0928
17683W        W37217   2.882  17.157   0.308  0.0123  0.1780  0.1663
17684W        W37218  15.952  10.760  12.758  0.1247 -0.1743 -0.0154
17685W        W37219  15.732  10.608   3.328 -0.2155  0.0032 -0.3545
17686W        W37220  14.128  15.234   1.108 -0.1058  0.0052 -0.0811
17687W        W37221  12.134   6.323   1.485 -0.0932 -0.0541  0.0739
17688W        W37222   5.689  12.426   1.195 -0.0410  0.2527 -0.0705
17689W        W37223   1.240  14.250   4.654 -0.1247 -0.0121  0.0638
17690W        W37224   9.331  15.034  12.502  0.0561  0.0364  0.2073
17691W        W37225   0.852  14.825   3.190  0.1242  0.0759  0.0702
17692W        W37226   8.417   5.675   0.276  0.0972 -0.2165  0.1451
17693W        W37227  12.172   1.730  12.897 -0.0894  0.1370  0.1695
17694W        W37228  10.176   7.308  16.365 -0.2060  0.1582  0.1635
17695W        W37229  15.766  10.091  12.484  0.0245  0.2564 -0.0739
17696W        W37230  11.621  14.106  15.668  0.0012  0.0899  0.1603
17697W        W37231   0.287   3.071   4.615  0.2391  0.0045 -0.1553
17698W        W37232  13.209   7.352  13.043  0.3811 -0.4397  0.0213
17699W        W37233  16.014   5.701  15.319  0.2644 -0.0671 -0.0957
17700W        W37234   3.502  12.136   2.692  0.3774 -0.1349  0.0519
17701W        W37235   2.198   3.491  16.517  0.2004  0.3544  0.2946
17702W        W37236   5.077  11.919  13.665  0.0206 -0.1310 -0.1452
17703W        W37237   5.290   1.171  14.319  0.1957 -0.1494  0.2104
17704W        W37238  12.849  17.167  12.477  0.1891  0.2065  0.1779
17705W        W37239   6.111   2.776  17.282  0.1026 -0.0591 -0.3586
17706W        W37240   4.461   2.181  13.941  0.3737 -0.1659 -0.1341
17707W        W37241  10.088  13.429  13.467 -0.1341  0.1630  0.0138
17708W        W37242   2.745   1.318   0.404 -0.1027  0.2804 -0.0552
17709W        W37243   3.712  10.338  15.082  0.0291  0.1810  0.3587
17710W        W37244  10.409   7.462  14.397 -0.0488  0.1283 -0.0647
17711W        W37245   3.200   2.839  14.526 -0.2744  0.0032  0.1305
17712W        W37246   3.423  15.102  13.887 -0.1468 -0.0794 -0.2245
17713W        W37247   5.731   8.460   0.238  0.2383  0.0464  0.1524
17714W        W37248   1.947   2.255   4.898  0.0041  0.0972  0.1158
17715W        W37249   5.811   3.319   2.652 -0.1436 -0.0163 -0.0348
17716W        W37250   6.493   2.634  14.294 -0.1079 -0.0843 -0.1325
17717W        W37251  10.695  11.198  14.215  0.1788 -0.0880  0.0129
17718W        W37252  17.396   3.832   4.270  0.2144 -0.0475 -0.0833
17719W        W37253  13.070   4.609   2.937 -0.1701  0.1728 -0.2771
17720W        W37254  15.133   0.433  14.946  0.0589 -0.2106 -0.0463
17721W        W37255   3.215   1.217  14.885  0.1227  0.0265  0.2659
17722W        W37256   5.293  15.206  15.023  0.1203 -0.1726 -0.0345
17723W        W37257  12.824   0.647  13.719 -0.3260 -0.0613 -0.5750
17724W        W37258  13.185   9.563  13.694 -0.0629 -0.3834 -0.0275
17725W        W37259   6.802  11.561   3.713 -0.0709  0.1793  0.3144
17726W        W37260   3.578   0.825  14.848 -0.2638 -0.1510 -0.2050
17727W        W37261   9.475   7.539  15.549 -0.0493  0.0793 -0.0618
17728W        W37262  10.133   4.933   1.580  0.0362 -0.4223  0.2096
17729W        W37263   6.079   1.000  16.365 -0.1051 -0.0009 -0.2585
17730W        W37264   4.458   3.648  14.328  0.0551 -0.2676  0.0729
17731W        W37265   0.908  16.345  13.059 -0.2041 -0.1923 -0.0226
17732W        W37266   3.789  15.006  13.322  0.0631  0.1357  0.0107
17733W        W37267   8.749   3.102   2.734  0.3423  0.0278  0.2910
17734W        W37268  14.879  12.481  13.586 -0.0483  0.2173 -0.2588
17735W        W37269  14.863  12.378   5.043 -0.0805  0.1662 -0.0207
17736W        W37270   4.260  17.427   4.223 -0.1128 -0.0199  0.1357
17737W        W37271   4.700   6.551  17.302  0.0502 -0.1870 -0.4546
17738W        W37272   2.598  16.364   1.898 -0.1995  0.0757  0.0444
17739W        W37273  11.062  13.591   0.347 -0.0965 -0.1231 -0.1901
17740W        W37274  10.308  11.133  13.377  0.3250 -0.2020 -0.0664
17741W        W37275   8.629   0.584   3.812 -0.0258  0.0483 -0.1964
17742W        W37276  13.400  15.442   0.521  0.2370 -0.0637 -0.5850
17743W        W37277  13.585   8.151  13.866 -0.1234 -0.1200  0.0244
17744W        W37278  11.524   8.464   4.875 -0.0999  0.1090  0.0459
17745W        W37279   1.820   4.233   2.642 -0.1616  0.1556 -0.0673
17746W        W37280   3.010  17.177  15.632 -0.1458  0.1942  0.1228
17747W        W37281  15.292  16.379   2.573 -0.1264  0.2126 -0.1779
17748W        W37282   9.121   8.677   0.016  0.0889 -0.0968 -0.0359
17749W        W37283   9.709  12.632   1.665  0.0281 -0.2051 -0.0758
17750W        W37284   1.577   1.677  12.372 -0.1871  0.0910 -0.1556
17751W        W37285   9.217   1.843  17.300 -0.0588  0.1717  0.3342
17752W        W37286  11.570  13.134   4.383  0.1155 -0.2347 -0.0930
17753W        W37287  15.825   6.095   2.121  0.0574  0.1308 -0.0224
17754W        W37288  12.344   8.079  14.507  0.0976 -0.0301 -0.0238
17755W        W37289   0.291   8.107   2.362 -0.1282 -0.2234  0.3616
17756W        W37290  11.880   9.998   2.794  0.1617 -0.2576 -0.0271
17757W        W37291  15.256   4.480  17.149  0.0017  0.1339  0.0360
17758W        W37292   4.464   9.790  13.620 -0.0306  0.2347  0.1183
17759W        W37293  16.803   0.003  14.058  0.2526  0.1143  0.2640
17760W        W37294   7.758   3.164  15.886  0.0284  0.0004  0.1019
17761W        W37295   7.680  11.417   4.225 -0.0050 -0.1285 -0.1274
17762W        W37296  17.206   1.547  15.996 -0.0472  0.0242 -0.1154
17763W        W37297  11.465  16.768  14.138 -0.2565 -0.1296 -0.1080
17764W        W37298   5.255   0.188   0.004  0.1412  0.5568  0.0465
17765W        W37299   5.700  14.111  11.994  0.1288  0.0192  0.2895
17766W        W37300  16.039  12.399  13.127 -0.3057  0.1883  0.0850
17767W        W37301   3.124   0.845  12.031  0.0137 -0.0245 -0.0015
17768W        W37302  11.997  14.182  13.715  0.1126 -0.0201  0.0795
17769W        W37303  11.417   1.552   4.343 -0.0959  0.2039  0.2158
17770W        W37304  15.913  11.491  13.564 -0.2343 -0.2256  0.1134
17771W        W37305   5.852  16.012   4.015 -0.1981  0.1153  0.1513
17772W        W37306   3.755  14.094  15.353  0.1608  0.0856  0.0221
17773W        W37307   6.630  17.070   3.493  0.2333 -0.1487 -0.0597
17774W        W37308  14.472  15.544  11.969  0.1032  0.0465 -0.0133
17775W        W37309  12.646   4.879   5.150 -0.1987 -0.2227  0.0259
17776W        W37310   2.940   8.393  12.543  0.1131  0.0971 -0.1523
17777W        W37311   4.111  11.728   2.188  0.3054 -0.1927 -0.0344
17778W        W37312   9.176   5.751   4.239 -0.0972  0.1738  0.0437
17779W        W37313   0.996  14.046   3.810 -0.1128 -0.2622 -0.1735
17780W        W37314  12.512   9.493  14.427 -0.1926  0.0500 -0.0041
17781W        W37315  14.886  10.157  15.807 -0.1427  0.2702 -0.0006
17782W        W37316  15.015  11.641   0.126  0.2187 -0.0475  0.0597
17783W        W37317   4.047   4.595   0.370  0.0572 -0.1855 -0.4146
17784W        W37318   1.161   0.896  15.116 -0.1031 -0.2376  0.3510
17785W        W37319  13.247   0.823  14.638  0.2525 -0.1615  0.1412
17786W        W37320  15.496   3.253   2.045 -0.0990 -0.0710  0.2392
17787W        W37321  12.642  12.726  16.229  0.0040 -0.0960  0.1651
17788W        W37322   2.059  16.363   1.790  0.2473  0.1606 -0.0550
17789W        W37323  12.234  13.158  14.872  0.0108 -0.1251 -0.0470
17790W        W37324   7.534  15.673   3.724  0.0483 -0.0504  0.0814
17791W        W37325   4.225   6.019   4.439 -0.0956  0.1619 -0.0218
17792W        W37326   4.406  14.440  14.482 -0.3677  0.0529 -0.1495
17793W        W37327   6.703  16.375   2.778  0.1427 -0.2936  0.0506
17794W        W37328   6.051   2.975  13.138  0.0196  0.2254  0.1243
17795W        W37329   1.589   4.077   5.006 -0.0716 -0.1568  0.4667
17796W        W37330  15.623   8.049   3.716 -0.1454 -0.0728 -0.0296
17797W        W37331   1.457   8.218   1.627 -0.0964 -0.0933 -0.2809
17798W        W37332   1.947   9.056  15.471 -0.1257 -0.0508  0.3172
17799W        W37333  13.970   6.007  15.885 -0.1980  0.4164 -0.1243
17800W        W37334   1.526  14.410   2.012 -0.3659  0.2395  0.1655
17801W        W37335  16.873   8.978   2.261  0.2210  0.0122 -0.0628
17802W        W37336  14.116  17.176  17.309  0.0701 -0.0563  0.1143
17803W        W37337  16.527   8.105  16.987 -0.0667 -0.2331 -0.0761
17804W        W37338   5.641  10.186  13.146 -0.1045  0.1712  0.0041
17805W        W37339  14.085   4.593   0.891  0.1040  0.1236  0.0039
17806W        W37340   2.258  14.669  12.667 -0.2384  0.3889 -0.0195
17807W        W37341   5.964   4.608  12.519  0.1170  0.0120  0.0099
17808W        W37342   8.138  13.577  12.561  0.0186  0.1815  0.0343
17809W        W37343   8.094  10.549  13.423 -0.1910 -0.2565  0.2546
17810W        W37344  13.970  16.602  13.761 -0.2132 -0.0371  0.1096
17811W        W37345   4.906  16.546   0.633  0.2792 -0.2133  0.2635
17812W        W37346   7.280  15.720  16.571 -0.0992 -0.0954 -0.1270
17813W        W37347   1.443  14.037  13.944  0.0235 -0.1424  0.1437
17814W        W37348  11.533   5.868  13.748 -0.2504  0.2004 -0.1699
17815W        W37349   4.266  11.859  16.837  0.0036 -0.3425  0.1196
17816W        W37350  10.688  13.951  12.749 -0.3200 -0.0011 -0.0921
17817W        W37351  16.377  14.535  13.672 -0.3424  0.0235  0.0404
17818W        W37352  15.601  14.902  12.703  0.2608 -0.1136 -0.0370
17819W        W37353  15.164  11.596   1.420 -0.1918  0.2214 -0.2952
17820W        W37354   2.614  15.728   3.484  0.1319  0.0614  0.2011
17821W        W37355   5.072  14.098   1.197 -0.3026  0.1184  0.1309
17822W        W37356   2.687   5.198   4.852  0.1008 -0.2343 -0.0160
17823W        W37357  14.779  13.621  16.669  0.0145  0.0547 -0.2391
17824W        W37358   9.079  12.994  15.619  0.0663 -0.0097  0.0979
17825W        W37359   2.505  16.025   0.996  0.0604  0.0802 -0.1613
17826W        W37360   1.509   4.869   1.901 -0.0657 -0.0500  0.1553
17827W        W37361   4.142  17.296  12.230 -0.0126  0.3579  0.0546
17828W        W37362  12.917  10.220  15.742  0.2638 -0.1251 -0.4422
17829W        W37363  13.713   0.716   1.415  0.0042 -0.0015 -0.2676
17830W        W37364   2.470   3.295  14.386 -0.0214 -0.0585 -0.0593
17831W        W37365   2.932  17.062  15.131  0.1414  0.2249 -0.1020
17832W        W37366   2.391   7.208   1.953  0.0629  0.2371  0.0266
17833W        W37367   7.540  10.570   2.217  0.1133  0.0300 -0.2325
17834W        W37368  13.051  14.602   2.005 -0.0079 -0.0596 -0.3425
17835W        W37369   6.200  10.982   5.285 -0.0623  0.3726  0.1822
17836W        W37370   3.516   1.813   2.884  0.1389 -0.0006  0.1388
17837W        W37371  14.810   5.899  13.908 -0.2094 -0.2098  0.0176
17838W        W37372  11.205   7.656  12.030 -0.0128 -0.0335 -0.0148
17839W        W37373   1.247   3.561  12.835  0.1274 -0.0273  0.2500
17840W        W37374  15.973   3.049   2.057  0.1393 -0.0443 -0.0450
17841W        W37375  16.257   3.857  16.003 -0.2133  0.6500 -0.4169
17842W        W37376  11.751   6.358   2.997 -0.0320  0.1879 -0.0008
17843W        W37377   9.974  10.063   2.421  0.0791  0.1230  0.2064
17844W        W37378  16.300   7.906  16.583  0.2964  0.0594 -0.0675
17845W        W37379  16.502   8.170  13.816  0.0729 -0.0644  0.0222
17846W        W37380   7.936  15.852   0.452 -0.3382 -0.0194  0.1157
17847W        W37381   3.142   9.384   2.570 -0.0138 -0.3399 -0.1201
17848W        W37382  14.814   9.648  15.742  0.0886  0.0472  0.1326
17849W        W37383   4.755   6.708  16.793 -0.0322  0.0505 -0.1344
17850W        W37384   6.641   4.275  17.126 -0.0280 -0.5201  0.0730
17851W        W37385   0.777   9.898  13.056  0.1497 -0.2351  0.0579
17852W        W37386  11.082  16.204   1.868 -0.0520 -0.0362 -0.2813
17853W        W37387   3.722  11.647  13.373  0.0418 -0.0048 -0.0728
17854W        W37388  17.010   3.439   4.896 -0.0618  0.0233  0.2521
17855W        W37389   7.555  15.236   4.358  0.0676 -0.2240  0.0453
17856W        W37390   6.291  10.067   2.871 -0.1977  0.2111 -0.2884
17857W        W37391   4.046  10.416  15.833  0.2695 -0.0243 -0.2635
17858W        W37392   2.588   1.530  15.999  0.0681 -0.0589 -0.0602
17859W        W37393   8.774  16.084   1.686  0.2031 -0.0991 -0.0254
17860W        W37394  11.502  11.939  13.239  0.5657  0.1499  0.1690
17861W        W37395  12.182  16.761   1.951  0.2603  0.2247  0.0071
17862W        W37396   9.163  16.711   3.067 -0.1514  0.3195 -0.1038
17863W        W37397   8.727   3.959  13.262  0.1925  0.0013  0.1306
17864W        W37398   7.672   7.314  16.469 -0.1481  0.3775 -0.2423
17865W        W37399   4.083   5.237   2.026 -0.0055  0.2231  0.0968
17866W        W37400   6.157   8.084  12.112  0.2145 -0.0725 -0.0561
17867W        W37401  15.150   4.789   1.893 -0.0534 -0.4195  0.2402
17868W        W37402  13.774  16.143   2.282  0.0622  0.1934 -0.1304
17869W        W37403  11.189  13.974   5.120 -0.0881  0.0400  0.1429
17870W        W37404  12.352  15.833   3.138 -0.1792  0.0765 -0.1028
17871W        W37405   6.712   5.816  15.954  0.0869 -0.0093  0.0697
17872W        W37406   0.242  16.619  16.942 -0.1699 -0.1296  0.0779
17873W        W37407  13.849  11.634  16.358 -0.0452  0.0526  0.1505
17874W        W37408  10.832  17.276   1.143 -0.0583  0.3515 -0.1364
17875W        W37409  15.433  10.810   4.819  0.1791 -0.1128  0.1790
17876W        W37410   8.430   5.123   2.641 -0.1257  0.2640 -0.0597
17877W        W37411  12.490  15.683   2.334 -0.0417 -0.2606 -0.0706
17878W        W37412  17.474  15.337  12.404  0.2825 -0.1860 -0.0140
17879W        W37413  11.552   0.602   1.945  0.2659  0.0806 -0.0671
17880W        W37414  15.183   1.667   4.749  0.0260 -0.0777  0.0185
17881W        W37415   3.542   4.757   1.594  0.1538 -0.0750 -0.4679
17882W        W37416   7.056   9.073  16.622  0.2591  0.0982 -0.1341
17883W        W37417  16.142   6.512   3.841  0.0786  0.1289 -0.1037
17884W        W37418  10.126   2.308  16.761 -0.1969 -0.0740  0.1449
17885W        W37419   4.443   7.092   3.016  0.1100  0.2523 -0.1911
17886W        W37420   1.039  17.118  15.627  0.0998 -0.2319  0.0252
17887W        W37421  14.993   4.775   0.271 -0.0433 -0.2909 -0.1542
17888W        W37422  16.168   0.718   1.350  0.1176  0.3619 -0.1032
17889W        W37423  16.795  16.083  15.874  0.2597 -0.0854 -0.0115
17890W        W37424   7.036  17.394   3.606  0.1664 -0.0523 -0.0793
17891W        W37425   0.885  12.139  13.686 -0.2139  0.0205 -0.0877
17892W        W37426   6.869   8.000  15.472 -0.1800 -0.0164 -0.0673
17893W        W37427  10.988  16.666  14.130  0.3460 -0.3231 -0.1433
17894W        W37428  15.142  15.263   3.217  0.0681 -0.1899  0.0142
17895W        W37429  11.448  15.881   0.969  0.0405  0.0650 -0.0578
17896W        W37430   6.501   2.266  15.287 -0.2162 -0.1333 -0.0353
17897W        W37431   5.523   2.711  16.408  0.1131 -0.2494  0.1883
17898W        W37432  11.155   9.215   2.012  0.2467  0.0232 -0.0506
17899W        W37433   3.392  16.432  13.547 -0.1142 -0.1049  0.0491
17900W        W37434   5.605  11.519  15.230 -0.1365 -0.1290  0.2788
17901W        W37435   5.006   0.118  12.787 -0.1039  0.1205 -0.0366
17902W        W37436  14.804   4.423  13.319 -0.2079  0.2671 -0.0932
17903W        W37437   7.338   5.045  12.843 -0.0918 -0.2227  0.0259
17904W        W37438  14.152   3.288   3.749  0.0469  0.1433  0.1415
17905W        W37439   9.878  11.040  12.670  0.0167  0.1328 -0.2417
17906W        W37440   8.935   6.835   3.591 -0.0642 -0.0661 -0.1346
17907W        W37441  15.729  13.847   1.438 -0.1215  0.0585 -0.2882
17908W        W37442   3.692   3.163   4.955  0.1820 -0.1014 -0.0602
17909W        W37443   0.297   6.480   3.729 -0.0607 -0.3419 -0.0177
17910W        W37444  13.714  15.098  17.143  0.4234 -0.2297  0.0204
17911W        W37445   0.442  12.560   3.190  0.1934 -0.1665 -0.1323
17912W        W37446  16.208  13.367   1.373  0.0726  0.2593 -0.0308
17913W        W37447  12.694   6.405   2.116  0.3661 -0.1606 -0.1738
17914W        W37448   2.531  11.187  15.277 -0.0134 -0.0883 -0.0606
17915W        W37449  13.379   0.420  17.126  0.3704  0.2200  0.1349
17916W        W37450  16.491  10.928  16.196  0.1631  0.0671 -0.2147
17917W        W37451  15.147   7.357  12.765 -0.0619 -0.0980 -0.0666
17918W        W37452   0.318   9.246  14.579 -0.1360  0.0952 -0.0792
17919W        W37453  16.312   5.282  16.813  0.1196 -0.2409  0.1370
17920W        W37454   2.810   1.938  16.334  0.1586  0.0470  0.0766
17921W        W37455  11.095   1.843  15.116 -0.1322  0.0200  0.1073
17922W        W37456  14.437   3.868   4.482 -0.1528 -0.1652  0.1464
17923W        W37457   0.095  10.515   2.248  0.0006 -0.0223 -0.0434
17924W        W37458  13.002   1.635  17.131  0.1607 -0.1392 -0.0110
17925W        W37459   9.061   0.927   1.100 -0.1212 -0.2382  0.1338
17926W        W37460   8.716   9.063   4.996 -0.0600 -0.1855 -0.2037
17927W        W37461   6.360  12.523   4.554  0.1747  0.0041  0.0925
17928W        W37462   3.736  10.235   1.154  0.0602 -0.0908  0.2945
17929W        W37463   0.507   1.876  17.108 -0.5280 -0.0569 -0.0268
17930W        W37464  11.908  11.524  12.537 -0.1479  0.0036 -0.1906
17931W        W37465   8.713  14.652   1.573 -0.0490  0.1946 -0.1734
17932W        W37466   9.161   0.935   3.173  0.1396  0.0193  0.0562
17933W        W37467   6.489  16.905  15.797 -0.0978 -0.0189  0.1355
17934W        W37468   4.689  16.201  13.764  0.0009  0.4227 -0.1224
17935W        W37469  11.521  11.660   1.830  0.4946  0.0887 -0.1218
17936W        W37470   0.053  10.637  13.066  0.0607  0.0352 -0.2323
17937W        W37471   4.621  10.633   4.458  0.1530 -0.1829  0.1094
17938W        W37472  14.662  13.911   1.316  0.1427  0.0688 -0.0739
17939W        W37473   5.975  15.003   1.804 -0.2216  0.0101  0.0178
17940W        W37474   2.169   4.187  11.943 -0.0496  0.1339 -0.2027
17941W        W37475  17.095   0.762  16.689 -0.1099 -0.1172 -0.0017
17942W        W37476  10.506   1.318  16.845 -0.0591  0.1137 -0.0860
17943W        W37477  15.220  13.797   4.159 -0.1674  0.1808  0.1407
17944W        W37478   1.362  14.129  12.826  0.3383  0.2611  0.0968
17945W        W37479  12.392   4.087   0.552 -0.1064 -0.0946  0.1119
17946W        W37480  11.513   4.091   2.643 -0.2405  0.1063  0.1470
17947W        W37481  15.205  11.840  13.092 -0.1025 -0.3699 -0.0990
17948W        W37482   9.877   7.473   1.550 -0.0555  0.1241 -0.0623
17949W        W37483  13.451   1.460   4.246  0.2776  0.0227 -0.0652
17950W        W37484  12.694  16.825   3.266  0.1256 -0.0177  0.2346
17951W        W37485   7.696  11.620   1.263  0.0633 -0.1572 -0.3188
17952W        W37486   4.905  14.966   1.803 -0.0911 -0.2700 -0.0192
17953W        W37487   7.429   1.618  13.258 -0.4591  0.0070  0.1100
17954W        W37488   4.879   0.109  15.405 -0.0423  0.2882  0.0794
17955W        W37489   5.465   5.194  15.141  0.1799  0.2787 -0.2087
17956W        W37490  15.798   1.090  17.047 -0.1147 -0.2880  0.0415
17957W        W37491   4.854  17.012   4.611  0.1448  0.1405  0.2648
17958W        W37492  13.752  14.751   4.909  0.0074  0.1560 -0.3759
17959W        W37493   8.192   9.794   0.391  0.0508  0.1226 -0.0602
17960W        W37494   1.487   2.404  14.227  0.3166  0.2981  0.0857
17961W        W37495  14.326   5.856  14.255  0.1014 -0.1091  0.0349
17962W        W37496   3.566   6.022  15.992 -0.1258 -0.1407 -0.0497
17963W        W37497   7.716  15.291  14.886  0.1737  0.1128 -0.1267
17964W        W37498   4.522   8.672   4.074  0.2703 -0.0508  0.3472
17965W        W37499  11.888   2.355  16.536  0.0039 -0.0276  0.2258
17966W        W37500   7.739  14.375   2.452 -0.0237 -0.0913  0.0496
17967W        W37501   1.933   2.471  13.422  0.1071  0.3410  0.2523
17968W        W37502   3.428  11.983  15.406  0.1580  0.0082 -0.0847
17969W        W37503  13.821  13.778   0.208  0.1287  0.1066  0.0614
17970W        W37504  13.670   8.026   4.898 -0.1008  0.0352 -0.1467
17971W        W37505   4.267   0.716   0.544  0.1093  0.1614 -0.2372
17972W        W37506  13.314   9.057   2.341 -0.1268  0.2038 -0.2216
17973W        W37507   3.089   7.225  16.194  0.0454 -0.0597 -0.2783
17974W        W37508   0.024   6.755   4.047 -0.0287  0.1310  0.1592
17975W        W37509   3.690   4.900  14.811 -0.0065 -0.0195 -0.1713
17976W        W37510  17.219  15.176  12.812  0.3051  0.2095  0.0105
17977W        W37511  14.515   8.621  15.922  0.0742  0.0544  0.2279
17978W        W37512   4.905   5.213   3.715 -0.0740 -0.0400  0.1160
17979W        W37513   3.617  10.468   2.820 -0.0905  0.0764 -0.1737
17980W        W37514  15.386  12.519   0.086 -0.2682 -0.1425  0.2954
17981W        W37515  12.400  13.818   2.121 -0.1289 -0.1057 -0.1351
17982W        W37516   3.495  11.193   0.941 -0.0300  0.1106  0.1421
17983W        W37517   9.233   9.913  16.225  0.0196  0.0266 -0.2416
17984W        W37518  13.040  12.453  14.690  0.1080  0.4463 -0.1727
17985W        W37519  11.250   5.436  13.710 -0.0170 -0.0897 -0.3635
17986W        W37520  11.831   6.334  13.642  0.0881 -0.2405  0.0902
17987W        W37521   3.452   9.880  17.086  0.1728 -0.2444  0.0443
17988W        W37522   8.679   5.459  12.684 -0.2257  0.1988  0.1297
17989W        W37523  11.609   5.396  14.617 -0.1372 -0.2393 -0.2879
17990W        W37524   8.515   6.110  15.006 -0.1461  0.1530 -0.0290
17991W        W37525  10.610   2.648   3.456  0.1788  0.2061 -0.1571
17992W        W37526  13.019   0.958   1.187  0.0590  0.2237 -0.1494
17993W        W37527  13.278   7.626   0.038  0.0572 -0.1852 -0.0019
17994W        W37528   8.218  16.708   2.112  0.1214 -0.1193 -0.1905
17995W        W37529   0.039  13.079  17.062 -0.0309  0.2762  0.0742
17996W        W37530  14.446   9.113  15.754 -0.0576 -0.0244 -0.1505
17997W        W37531  16.678  15.584  14.513 -0.1235  0.0781  0.1013
17998W        W37532   8.728  13.163   4.653 -0.3345  0.0736  0.0637
17999W        W37533  10.178   8.476   2.212 -0.3384 -0.1042 -0.0370
18000W        W37534  16.196  11.024   0.655  0.0579  0.0625 -0.1009
18001W        W37535  10.003  12.644  14.574 -0.2414  0.2099  0.0061
18002W        W37536   7.702   1.588   4.698  0.0043  0.2063  0.0861
18003W        W37537  12.287   7.581  12.968  0.0470 -0.1079 -0.0870
18004W        W37538  16.834   8.467   3.051 -0.2433 -0.1451 -0.1717
18005W        W37539  10.784  15.521   4.368 -0.1942 -0.1168 -0.0926
18006W        W37540   1.702  14.371  15.309 -0.1544  0.1273 -0.3209
18007W        W37541  15.707   0.205  12.565  0.1266 -0.0495  0.0184
18008W        W37542   1.100   9.849   0.918 -0.0800 -0.0996 -0.1354
18009W        W37543  10.766  17.411  13.725 -0.1771 -0.3170  0.2003
18010W        W37544  12.296   9.311  13.381 -0.1193  0.0274 -0.1069
18011W        W37545   8.935   9.645   4.411 -0.0076 -0.4407 -0.0266
18012W        W37546  12.136  17.444  15.777 -0.0574  0.3231  0.1872
18013W        W37547   8.864   8.997  13.863  0.0827  0.1167 -0.1592
18014W        W37548  14.057   9.738  11.397 -0.1655 -0.0719  0.3100
18015W        W37549  11.216  10.215  15.016  0.1409  0.1864 -0.2174
18016W        W37550  16.238  10.319  16.594 -0.2102 -0.1174 -0.1186
18017W        W37551  11.015   2.165  13.490  0.1822 -0.0545  0.2676
18018W        W37552  11.445   4.431  14.510 -0.1361  0.1056  0.1268
18019W        W37553  15.795   7.482   3.025 -0.0218  0.0740 -0.0363
18020W        W37554   2.517   1.725  16.661 -0.0055 -0.0254 -0.1860
18021W        W37555   3.192   7.311  17.280  0.1495 -0.0474  0.1256
18022W        W37556  17.066   7.190   0.738 -0.1824  0.0260 -0.0759
18023W        W37557  13.998   9.097  13.359 -0.0220  0.4140 -0.0534
18024W        W37558  14.912   1.821   0.551  0.1526 -0.0295  0.3328
18025W        W37559   4.183  11.292  14.124 -0.1079 -0.1208  0.1575
18026W        W37560  15.299  11.140  15.446 -0.0975  0.1629 -0.1839
18027W        W37561   3.924  16.528  14.213 -0.0416  0.0392 -0.1359
18028W        W37562   7.964  14.001  12.799  0.1642 -0.0294 -0.4618
18029W        W37563   8.875   5.943   2.184  0.1403  0.0468 -0.0166
18030W        W37564  12.237  10.475  13.452  0.0153  0.0012  0.0048
18031W        W37565  11.770   6.479   1.866 -0.0122  0.0738 -0.0515
18032W        W37566   6.614   6.141   0.094 -0.1757 -0.0641 -0.2089
18033W        W37567   9.250   1.442   0.374  0.3156  0.0875  0.0703
18034W        W37568   4.870   0.513   2.204 -0.0090  0.1525 -0.2328
18035W        W37569  15.901   4.402  14.619  0.1535  0.1012 -0.1496
18036W        W37570   0.443  17.307  13.655 -0.1516 -0.2429  0.1971
18037W        W37571   0.845   2.634  17.012  0.0865  0.0006  0.0250
18038W        W37572   6.639   8.486   3.704 -0.0383  0.0109 -0.1907
18039W        W37573  17.183   1.546   3.847 -0.1974 -0.0824 -0.0765
18040W        W37574   8.976  15.285  14.294  0.0376 -0.1955 -0.0299
18041W        W37575   4.289  13.151  15.269 -0.0016  0.0575 -0.0419
18042W        W37576  14.730   9.711   4.169  0.1144 -0.1150 -0.1133
18043W        W37577  13.993  11.100   3.203 -0.6813 -0.0101  0.0742
18044W        W37578  16.733   1.484  16.698 -0.0416 -0.2599 -0.0907
18045W        W37579   1.276  12.697   4.179  0.0808  0.2115  0.1898
18046W        W37580  13.595   5.414   5.055 -0.2720 -0.1591  0.2045
18047W        W37581   5.361   1.812  16.161 -0.0281  0.0316 -0.0137
18048W        W37582  11.960  15.767  14.655 -0.0205 -0.0371  0.0338
18049W        W37583   1.081   9.171   2.904  0.0067  0.0320 -0.1906
18050W        W37584   8.550   8.007   0.578 -0.2831  0.0157  0.0038
18051W        W37585   5.373   8.122   2.505 -0.0404  0.0914  0.0024
18052W        W37586  13.464  12.849  13.795  0.0441 -0.1514 -0.1876
18053W        W37587   2.304   7.386  12.518  0.2424 -0.0931  0.4046
18054W        W37588   3.977  16.471  15.831  0.1859  0.1301 -0.0023
18055W        W37589  13.412  12.008   0.864  0.1989 -0.2458 -0.1375
18056W        W37590   5.447   0.415  16.054 -0.1352 -0.1969  0.0080
18057W        W37591   9.653   0.151  17.211  0.1031 -0.3875  0.1137
18058W        W37592   6.524  11.798  13.343  0.0766  0.1981 -0.3273
18059W        W37593   4.854   1.124  15.944  0.0471 -0.3836  0.0253
18060W        W37594   2.234  16.433   3.067  0.2430 -0.1387 -0.0507
18061W        W37595  16.254   2.919   0.019  0.3754 -0.2238  0.1323
18062W        W37596  10.744  10.245  16.144 -0.0247 -0.1270  0.1521
18063W        W37597   2.899   1.477   2.184  0.2525 -0.3906 -0.1369
18064W        W37598  11.982  16.045   5.395 -0.0173  0.1557  0.0482
18065W        W37599  13.537   7.049   0.607  0.0024 -0.1801  0.1346
18066W        W37600   8.570   1.759  13.505  0.0039  0.1018  0.0879
18067W        W37601   6.212   2.530  12.895 -0.0767 -0.1744  0.2722
18068W        W37602  16.793  13.603  14.441 -0.2480  0.0278  0.0730
18069W        W37603   1.823  17.016   3.691  0.3810  0.0610  0.2069
18070W        W37604   3.212   2.895  13.021  0.4671  0.1810  0.1704
18071W        W37605   6.641  10.442  13.911  0.0105 -0.0287  0.0944
18072W        W37606  16.067   4.753  16.075  0.5836 -0.7035  0.1011
18073W        W37607   4.118  13.709   2.431 -0.4368 -0.1403  0.3396
18074W        W37608   2.642  11.147  13.535  0.1389  0.1565 -0.2432
18075W        W37609  14.821   7.775   4.903 -0.0013 -0.0003 -0.0158
18076W        W37610   9.159   3.411   4.503  0.0563  0.2399 -0.2029
18077W        W37611  14.143  14.904  16.868 -0.1369 -0.1071  0.1412
18078W        W37612  14.720   0.887  13.648  0.0329 -0.1281  0.1142
18079W        W37613  15.547  15.872  16.380  0.1765  0.1377  0.1759
18080W        W37614   5.086   7.126  13.788 -0.0076 -0.3206 -0.0105
18081W        W37615   5.664   8.986   3.900 -0.2456 -0.0581 -0.0354
18082W        W37616   1.704  15.034  15.395 -0.1035  0.1251  0.0071
18083W        W37617  15.449   7.760  17.057 -0.0779 -0.2639 -0.0345
18084W        W37618  12.638  11.631   0.276 -0.1295  0.1283  0.0100
18085W        W37619   2.322  11.496   0.428 -0.3742 -0.0283 -0.1659
18086W        W37620  12.662   5.740  14.413 -0.0683 -0.0928 -0.0568
18087W        W37621  15.252  13.165   0.922 -0.0435 -0.1455 -0.0013
18088W        W37622   8.542   5.130   3.644  0.1015  0.1224 -0.0187
18089W        W37623   1.990   5.635  13.313 -0.0230 -0.1086 -0.1071
18090W        W37624   0.380   8.981  14.114 -0.3527 -0.1472 -0.0162
18091W        W37625   2.261   6.774  16.986 -0.1851 -0.1826 -0.1575
18092W        W37626  12.852  16.580   0.435 -0.1257  0.0696  0.1417
18093W        W37627   2.730   9.332   1.171 -0.1350  0.1191 -0.1467
18094W        W37628   4.771  11.046   3.297 -0.1191  0.2640 -0.0518
18095W        W37629   0.030   0.483  15.924  0.0260 -0.0108  0.3334
18096W        W37630   7.248   8.551   1.871 -0.3264 -0.0292  0.2484
18097W        W37631  12.132   8.649   2.719  0.1559 -0.2072  0.0096
18098W        W37632   6.537   3.367  13.941 -0.0879  0.0178 -0.2304
18099W        W37633  16.067  15.652   1.109  0.2507 -0.2534 -0.0917
18100W        W37634   1.048   6.647   1.640 -0.1540  0.4687  0.1361
18101W        W37635  16.368   9.104   0.347 -0.1503  0.3568 -0.2065
18102W        W37636   5.419   4.093   4.343 -0.0637  0.3060  0.0016
18103W        W37637  10.979  10.988   0.912 -0.0546  0.1465 -0.0283
18104W        W37638   8.172  10.016  16.779  0.1171  0.2001 -0.1391
18105W        W37639   8.311   8.394  13.999 -0.2812  0.3012  0.1953
18106W        W37640   5.752   0.346   1.353 -0.0729 -0.2193 -0.2236
18107W        W37641   1.277   2.903   0.915 -0.1015 -0.1346 -0.1907
18108W        W37642   8.168   0.236  16.173 -0.1934 -0.1513 -0.0794
18109W        W37643   1.360  11.807   3.874 -0.1812 -0.0469 -0.0300
18110W        W37644  12.750   1.019   1.604 -0.0049  0.2316 -0.1631
18111W        W37645  16.170   6.350  11.032 -0.0109  0.1045 -0.2399
18112W        W37646   3.483  14.257   2.956 -0.2157 -0.0137 -0.0028
18113W        W37647   7.021   6.063   1.625  0.1754 -0.0462  0.0848
18114W        W37648   0.069   4.916  15.895 -0.0968  0.0962 -0.0624
18115W        W37649   9.461  16.031   0.608  0.0092  0.1044 -0.5441
18116W        W37650  14.915  11.099   5.096  0.0397  0.0627  0.2363
18117W        W37651   3.730   3.274  13.439  0.2788 -0.0616  0.4499
18118W        W37652   5.793   1.060  14.836 -0.0775 -0.1914  0.1044
18119W        W37653  13.924  10.695   0.407  0.0886  0.4890 -0.3294
18120W        W37654  12.913  13.529   1.388  0.0034  0.0370 -0.1140
18121W        W37655  16.478   8.563   3.442 -0.0186 -0.1073 -0.3054
18122W        W37656  13.243   3.647   0.884 -0.1860  0.1080 -0.0852
18123W        W37657  10.506   0.883   3.935 -0.1160  0.2908 -0.2625
18124W        W37658  11.104   5.915   4.290  0.1832  0.1779 -0.2739
18125W        W37659   7.489  16.212   1.383 -0.1849 -0.2730 -0.2496
18126W        W37660   3.067   4.288   3.768 -0.3879 -0.0484  0.0903
18127W        W37661   1.471  12.485   2.923  0.0844  0.0144  0.1696
18128W        W37662   6.740   6.603   3.604 -0.1073 -0.1126 -0.0468
18129W        W37663  12.662  16.056   2.606  0.1516  0.1864 -0.0877
18130W        W37664   0.467  10.486  15.229  0.0673 -0.2421  0.0946
18131W        W37665   2.527   7.848   4.938  0.2008  0.0347 -0.1478
18132W        W37666   6.970  15.108   2.120 -0.1089  0.0260 -0.0196
18133W        W37667  12.169   6.249  15.324  0.2211 -0.1230  0.0510
18134W        W37668  11.770   2.138   4.402  0.1773 -0.0885 -0.0708
18135W        W37669  11.629  12.732   5.064 -0.0158  0.0477 -0.2383
18136W        W37670   7.103   8.836   3.588 -0.0410  0.1969  0.0230
18137W        W37671  17.064   5.171   2.764 -0.0988  0.0113 -0.4666
18138W        W37672  13.588   5.161  15.634  0.0506  0.0714 -0.0802
18139W        W37673  10.189   4.104  16.401 -0.3353 -0.2613 -0.0474
18140W        W37674   3.765  13.381   3.160  0.2138 -0.0255 -0.1399
18141W        W37675   4.251  15.668   3.328  0.0439  0.1934 -0.1266
18142W        W37676  10.977   9.308   1.368  0.2308  0.1367 -0.0662
18143W        W37677  11.865  10.206   2.240 -0.2363 -0.1575  0.0126
18144W        W37678   2.923   3.020   2.330 -0.1508  0.2382  0.2693
18145W        W37679  13.065  16.471   3.231  0.1622  0.0646 -0.2252
18146W        W37680   5.770   4.218   2.951  0.2603 -0.1196  0.1257
18147W        W37681  13.282  13.823  14.749 -0.0022 -0.2475  0.0634
18148W        W37682   6.195   8.417   0.608 -0.1386  0.1281  0.2684
18149W        W37683   9.255  13.824  15.044 -0.2094  0.2498 -0.0966
18150W        W37684   0.585   2.883   1.776  0.0049  0.0061 -0.0708
18151W        W37685   4.126  14.368   3.830  0.0879 -0.1447 -0.1655
18152W        W37686   3.249   5.801   4.991 -0.0864  0.2366  0.1048
18153W        W37687   7.678   8.792   2.151  0.2844 -0.2101 -0.0412
18154W        W37688  13.190  16.960   3.350 -0.0143 -0.3083  0.0933
18155W        W37689  12.717   4.881  15.935  0.2803 -0.0632  0.0314
18156W        W37690   1.423  12.343  12.833  0.2842 -0.1847  0.1789
18157W        W37691  16.108  14.455   0.074  0.0183  0.4497  0.1362
18158W        W37692   0.128   0.440  12.233  0.2794 -0.2080 -0.2181
18159W        W37693   9.472   0.907   4.109 -0.1563  0.1838  0.0715
18160W        W37694  14.186  17.081  16.482  0.2756 -0.0854  0.0952
18161W        W37695   6.726   3.278   1.894 -0.1346  0.0269 -0.0934
18162W        W37696   6.371  13.904  14.499  0.0985 -0.0130  0.0864
18163W        W37697   9.534   6.826  14.318  0.1318  0.0088  0.1658
18164W        W37698   0.361  14.529  10.866  0.1794 -0.0974 -0.1974
18165W        W37699   9.812   0.087  13.370 -0.2126 -0.0616 -0.0419
18166W        W37700   4.079  16.193  14.603  0.1775  0.0308 -0.1562
18167W        W37701  15.860  13.761   4.306 -0.0394  0.0275 -0.0491
18168W        W37702   2.436  13.893  16.006 -0.3556  0.0912  0.5878
18169W        W37703   9.931  12.411   4.712  0.1970  0.0711  0.0245
18170W        W37704  10.630  13.749   1.353  0.1956  0.2741  0.0032
18171W        W37705   5.545   4.516   4.570 -0.0680 -0.3916 -0.0321
18172W        W37706  14.834  11.078  14.117  0.0759  0.2122  0.1134
18173W        W37707  13.993   2.533   0.487 -0.0154  0.1744  0.0961
18174W        W37708   7.011   7.822   2.922 -0.2002 -0.2794 -0.1420
18175W        W37709  14.189   2.746   2.998  0.0812  0.3028 -0.1816
18176W        W37710   4.107  16.151  15.128 -0.0783  0.1398  0.1179
18177W        W37711   8.636   2.556   2.553 -0.0186  0.0869  0.1304
18178W        W37712   0.324   2.279  14.608  0.1223 -0.2374 -0.0911
18179W        W37713  11.226  14.211   2.662 -0.1055 -0.0850 -0.0064
18180W        W37714  12.607   1.111  17.232 -0.1313 -0.1079  0.2447
18181W        W37715   0.560  10.933  16.776  0.0743  0.2274 -0.0777
18182W        W37716  11.091  15.023  14.801 -0.1786 -0.0075 -0.0409
18183W        W37717   4.780  13.900  13.451 -0.2055 -0.0922  0.1552
18184W        W37718   9.095   0.884  13.077 -0.0370  0.0382  0.3215
18185W        W37719  12.303   5.965   3.041  0.1611 -0.0607 -0.0966
18186W        W37720   7.622   5.519  14.157  0.0966 -0.0485  0.3583
18187W        W37721   0.276   3.727  17.270 -0.4605 -0.1298 -0.1412
18188W        W37722  15.849   1.516  14.964 -0.2606 -0.2524 -0.0563
18189W        W37723  11.093   9.377   4.299 -0.2862 -0.0795  0.0073
18190W        W37724  16.083   2.476  16.111  0.0528 -0.2247  0.3067
18191W        W37725   3.683  10.563   3.451 -0.0663 -0.1175  0.1630
18192W        W37726  13.996  14.300   5.225  0.2281 -0.1176  0.1963
18193W        W37727   2.010  12.085  16.550 -0.0867 -0.0790  0.1430
18194W        W37728  12.944  17.341  17.055 -0.0128  0.3108  0.0340
18195W        W37729  11.959  12.707  14.739 -0.0455 -0.0292  0.0232
18196W        W37730   6.187   3.204  13.516 -0.2870 -0.2295 -0.0074
18197W        W37731   7.556   7.010   1.426  0.1854  0.0106 -0.1959
18198W        W37732   5.724   3.476  16.101 -0.2523  0.0909 -0.0976
18199W        W37733  14.364   3.878  12.814 -0.0903 -0.3115 -0.0056
18200W        W37734  11.733  10.966  15.308 -0.4409 -0.2203  0.1101
18201W        W37735   4.713  11.140  15.436  0.0291 -0.0680  0.2679
18202W        W37736   0.977   6.183  14.758  0.1766  0.1463 -0.0460
18203W        W37737   3.191   5.549   2.148  0.1415 -0.1243 -0.0912
18204W        W37738   3.856   6.942   4.607 -0.0508  0.0386  0.0278
18205W        W37739  12.339  14.846   3.373  0.0184  0.0997  0.3145
18206W        W37740   4.375   8.387  13.672  0.3890  0.0910 -0.1648
18207W        W37741  16.066  12.096  16.976 -0.1701  0.0605 -0.0816
18208W        W37742  13.763  13.828  12.382 -0.1307 -0.4036  0.1259
18209W        W37743   3.687   9.593  14.336 -0.4632 -0.1128 -0.0422
18210W        W37744   8.241  16.344  12.417  0.0495 -0.0866  0.0690
18211W        W37745   7.082  11.993   3.652 -0.3026 -0.1656 -0.1675
18212W        W37746   6.871  11.895   1.190 -0.2196 -0.2231  0.0066
18213W        W37747   8.526   1.450  16.461  0.0224  0.2368  0.1808
18214W        W37748  17.010  10.516   4.657 -0.0662 -0.2422 -0.4026
18215W        W37749   8.809  14.449  13.866  0.1619 -0.2229  0.0756
18216W        W37750  15.072  14.642   4.453  0.3411  0.1695 -0.1597
18217W        W37751   7.617   6.039   3.981  0.3416  0.1089 -0.0312
18218W        W37752  15.561  11.862  14.676 -0.1135 -0.0104  0.1854
18219W        W37753   5.498  14.692   3.860 -0.0558 -0.2151 -0.1976
18220W        W37754   2.430   6.462  13.425  0.0227 -0.2928  0.0491
18221W        W37755   4.214  14.921  13.021 -0.0059  0.0099  0.2174
18222W        W37756   4.947   4.610   3.043 -0.2835  0.0742 -0.0856
18223W        W37757  15.820  12.720   5.213  0.2471  0.2472 -0.1074
18224W        W37758  14.920  13.477  13.721  0.0782  0.0219 -0.3944
18225W        W37759   6.723   2.154  12.140 -0.1988 -0.0976 -0.2240
18226W        W37760   5.030  13.179  15.744  0.1464  0.2832  0.0608
18227W        W37761  16.760  15.127   0.782 -0.1286  0.1176  0.2635
18228W        W37762  11.979   1.762   3.592  0.1827 -0.1927  0.3529
18229W        W37763  13.052   7.267   2.115  0.1196  0.1122  0.1576
18230W        W37764   2.733  16.475  16.167  0.1410 -0.2054 -0.0601
18231W        W37765   9.061   2.546   2.026  0.1149  0.0103  0.0807
18232W        W37766   2.773   9.931   3.098 -0.0870  0.1581 -0.1564
18233W        W37767  15.957   8.319  14.094  0.1911  0.0718  0.1316
18234W        W37768  11.461  13.771   2.595 -0.0801  0.0379 -0.1864
18235W        W37769   3.068   8.315  14.338 -0.1426  0.0448  0.0438
18236W        W37770   0.447   7.051   3.785  0.1464  0.1966  0.2160
18237W        W37771   1.330   7.804   1.848  0.2014 -0.1940 -0.0434
18238W        W37772   8.599   8.260  14.483 -0.0651 -0.0515 -0.3179
18239W        W37773   6.194  10.024   1.574 -0.0891  0.1680  0.1558
18240W        W37774  16.555  10.595  15.131 -0.0331  0.2139  0.2288
18241W        W37775   3.559   6.804  14.706 -0.4281 -0.0688  0.0982
18242W        W37776   7.515   0.194  13.093 -0.0387  0.1876  0.0440
18243W        W37777   6.345   4.893   2.919  0.3303  0.1109 -0.2165
18244W        W37778   1.515  12.239   4.086  0.1305  0.2361 -0.1128
18245W        W37779   9.900  11.553   3.754 -0.1825 -0.1607  0.1091
18246W        W37780   0.644  13.425  13.949  0.1784  0.2990 -0.2529
18247W        W37781   4.685  10.524   3.318 -0.1796 -0.1846 -0.1313
18248W        W37782   6.198  10.848  16.078 -0.0881 -0.0425  0.2987
18249W        W37783  12.262   9.499   4.993 -0.0685 -0.0293 -0.2873
18250W        W37784  10.365   4.888  12.463  0.1027  0.0209 -0.1803
18251W        W37785  15.034   2.146  16.412  0.0404 -0.0740 -0.2217
18252W        W37786   1.766   7.694  13.901  0.0182  0.0027 -0.2844
18253W        W37787   5.460   6.864   2.047  0.1218  0.1469  0.0688
18254W        W37788  12.737  15.606  12.687 -0.0626  0.1312 -0.3010
18255W        W37789   0.557  12.385   1.958 -0.1211 -0.2197 -0.3416
18256W        W37790  11.243   4.859   0.311  0.1283  0.0899  0.2926
18257W        W37791   1.135   7.700   3.453  0.0807  0.3075 -0.4040
18258W        W37792   1.609   5.998   3.796 -0.3217 -0.2647  0.0489
18259W        W37793   5.523   7.488   1.934  0.1751  0.1943 -0.0352
18260W        W37794   2.806   0.438  15.211 -0.0013 -0.1216 -0.1685
18261W        W37795   8.634  16.882  13.307 -0.3369  0.3357  0.1508
18262W        W37796   0.177  17.361   3.511  0.2158  0.1879 -0.0060
18263W        W37797   9.144   0.591  16.123  0.0187  0.0321  0.2366
18264W        W37798   2.548   0.394   0.347  0.2084 -0.0475  0.0492
18265W        W37799  16.965   6.266   4.743 -0.0529  0.4293 -0.1758
18266W        W37800  15.463   4.335  12.302 -0.5171 -0.0890  0.0614
18267W        W37801   9.145   8.000   0.154 -0.1302 -0.1793  0.0812
18268W        W37802  16.482   8.638   1.213  0.1674 -0.1988 -0.2852
18269W        W37803   9.660   4.118   3.582  0.0848  0.0366  0.0991
18270W        W37804   3.584   0.355   2.503  0.0167  0.4110 -0.0796
18271W        W37805  13.869   0.677  16.360 -0.0653 -0.0944  0.3275
18272W        W37806   3.228  10.022  16.314 -0.0868 -0.4382 -0.4040
18273W        W37807  14.645  14.214  14.528  0.2501  0.3191  0.1471
18274W        W37808   3.755  16.422  12.160  0.1358  0.1133  0.3773
18275W        W37809  15.438   6.293   1.850 -0.0882  0.2063  0.1738
18276W        W37810   0.334  11.601  15.474  0.1573 -0.0821 -0.0360
18277W        W37811   7.356  16.919  14.476 -0.0381  0.0264  0.0383
18278W        W37812  15.434   2.100   4.585  0.3741 -0.0508  0.0812
18279W        W37813   8.165  12.816   1.183  0.0844 -0.0929 -0.1241
18280W        W37814   4.808  12.097  15.668  0.0393  0.0282 -0.1453
18281W        W37815   3.451  16.327   1.230 -0.1359  0.1273  0.0508
18282W        W37816  14.236  11.890  12.046 -0.1394 -0.0113 -0.2090
18283W        W37817   1.229   3.456   1.089  0.1245  0.1674  0.3365
18284W        W37818  12.127  16.130   2.822  0.0733  0.1501 -0.3155
18285W        W37819   2.650   5.676  13.839  0.0580  0.0572 -0.0417
18286W        W37820  10.296  12.156  13.665 -0.2555 -0.0441  0.0354
18287W        W37821  13.036   4.018  13.429  0.0154 -0.0150 -0.2275
18288W        W37822   6.972  15.133  15.857 -0.1668  0.1512  0.1178
18289W        W37823  12.050   7.902   3.891  0.0816  0.0863  0.0853
18290W        W37824   4.857  14.232   4.133 -0.2359  0.0630  0.1800
18291W        W37825  14.210  13.129   1.017 -0.1163 -0.0075 -0.2088
18292W        W37826  15.216   5.650  12.498  0.0615  0.0725  0.2020
18293W        W37827  14.494   2.311   5.114 -0.4307  0.0487  0.0075
18294W        W37828  14.135  16.337  16.889 -0.2310  0.0495 -0.1943
18295W        W37829  15.910   0.849  16.060 -0.2601 -0.3399 -0.0517
18296W        W37830   4.119   1.118   0.882  0.0403  0.2614  0.0820
18297W        W37831   3.245   9.952   2.708  0.3746 -0.0125 -0.0536
18298W        W37832  14.987   8.239  16.062 -0.0768  0.1013  0.0051
18299W        W37833   2.510   3.998  12.281  0.2011  0.1293  0.5148
18300W        W37834   3.789   6.549  15.265  0.2549 -0.1506 -0.0497
18301W        W37835   6.766   5.546   2.852  0.0431  0.1766  0.1534
18302W        W37836   6.939   2.664   5.543 -0.2193  0.0977 -0.1815
18303W        W37837   7.485   1.301   2.871 -0.1566 -0.0733 -0.0720
18304W        W37838   3.961  17.181   0.197 -0.1130 -0.3207 -0.2030
18305W        W37839   8.414   0.803  15.013 -0.1053  0.0430  0.3889
18306W        W37840   8.157  16.914  15.594 -0.2329  0.0613 -0.1585
18307W        W37841  14.547   2.121  16.511 -0.0213  0.0239 -0.0827
18308W        W37842  12.147  12.340   2.148 -0.2319  0.0103  0.2757
18309W        W37843   1.803   5.863   5.201 -0.1273  0.0411  0.0265
18310W        W37844   1.158   9.340  13.667 -0.0598 -0.0528  0.0474
18311W        W37845   7.840   1.712  15.243 -0.1921 -0.0418 -0.0981
18312W        W37846   3.893   8.222   1.449 -0.0580 -0.1735  0.1077
18313W        W37847   4.496  13.303  13.561 -0.0435  0.0092 -0.2833
18314W        W37848   3.680  15.297   2.084 -0.2071  0.1942  0.2386
18315W        W37849   6.787  10.554  12.507  0.2084  0.0740 -0.0447
18316W        W37850   1.575   9.699   1.628 -0.2137  0.3642 -0.1690
18317W        W37851   3.610   1.381  13.227  0.1783  0.3111  0.1166
18318W        W37852   1.166   4.681  12.975  0.0330  0.0500  0.3914
18319W        W37853   7.868   9.944  14.471  0.1503  0.1575  0.1532
18320W        W37854  13.426   4.118  15.343 -0.0084  0.0028 -0.0720
18321W        W37855  14.469   2.944  12.340 -0.3773  0.0920 -0.0583
18322W        W37856   1.002  17.346   2.014  0.0036 -0.0811  0.0193
18323W        W37857   1.229  16.716   0.124 -0.0662 -0.3243 -0.0061
18324W        W37858  14.999   8.995  15.615  0.3376 -0.0273  0.1653
18325W        W37859   8.817  12.849   1.338 -0.1002 -0.0122  0.1025
18326W        W37860  12.055  10.212  15.283  0.1909  0.0563 -0.0948
18327W        W37861   4.017  15.693  16.179  0.2977  0.2306  0.1416
18328W        W37862   5.506  13.362   4.587 -0.3119 -0.0710 -0.1278
18329W        W37863   3.349  11.648   2.506 -0.0968  0.1616 -0.2431
18330W        W37864   2.704   8.025  16.841 -0.0157 -0.1512  0.3856
18331W        W37865  12.197  11.172   3.576 -0.1929 -0.0888 -0.0039
18332W        W37866  13.679  10.672  14.748 -0.2480 -0.0465  0.1016
18333W        W37867  13.774   6.954  13.770  0.2953  0.3196 -0.1293
18334W        W37868  15.453  14.448   3.623  0.0343 -0.0617 -0.0213
18335W        W37869   3.358   4.579   1.117 -0.1576  0.2324  0.2948
18336W        W37870   6.498   3.082   2.297  0.3080 -0.5556  0.0867
18337W        W37871   8.764   6.048  13.969  0.2312 -0.1462 -0.0696
18338W        W37872  12.408   6.495  14.336 -0.1925  0.1259  0.0705
18339W        W37873   8.322  16.563  12.949  0.0497  0.1133  0.0651
18340W        W37874  11.841  13.330   3.011 -0.0671  0.2596  0.2221
18341W        W37875   3.898   1.950  15.009 -0.0826 -0.0737  0.0012
18342W        W37876   5.395   6.065   1.806 -0.2316 -0.0381 -0.1415
18343W        W37877  16.680   4.227  13.838  0.2363  0.1592  0.1702
18344W        W37878   9.581   9.766  11.977 -0.1328  0.1352 -0.0176
18345W        W37879  12.182   5.493  11.952 -0.1955 -0.2056 -0.1533
18346W        W37880   9.288   9.287  16.909 -0.2135  0.1239 -0.1199
18347W        W37881  13.559   3.791  13.610 -0.1224  0.1957 -0.0650
18348W        W37882  15.785   8.007   1.559  0.1298 -0.1578 -0.0555
18349W        W37883   0.950  12.227  14.965  0.1884  0.0087  0.1944
18350W        W37884   5.609   4.977  16.621  0.1774 -0.0654  0.2416
18351W        W37885  16.569   2.522   4.819 -0.1906 -0.0568 -0.1420
18352W        W37886  11.995  15.873  12.841  0.0009  0.2123 -0.0883
18353W        W37887  15.885   7.004  15.585  0.0868 -0.0357  0.0138
18354W        W37888   7.277   9.985   1.570 -0.0515  0.0874 -0.1645
18355W        W37889  16.591  15.880  12.590 -0.1656 -0.0897 -0.3517
18356W        W37890   4.366   0.981  16.405  0.1169  0.2834  0.0950
18357W        W37891   7.218  15.041  14.928 -0.0226 -0.1390 -0.1641
18358W        W37892   0.146   0.505  14.158 -0.0274 -0.2001  0.2535
18359W        W37893  15.890   1.575  16.279  0.0371 -0.0073  0.0556
18360W        W37894   8.247  12.405   2.165  0.0735  0.0025  0.2493
18361W        W37895   4.739   6.277   3.667  0.1402 -0.0483  0.1253
18362W        W37896  10.169   7.135   4.374 -0.4490  0.2458 -0.2051
18363W        W37897  14.584  15.045  17.065  0.1026 -0.1328  0.1486
18364W        W37898   7.987   6.887   2.864  0.1233 -0.1061  0.0731
18365W        W37899   6.887   7.713  14.775  0.3309 -0.1706 -0.0427
18366W        W37900  11.168  16.040   0.582 -0.1558 -0.0443  0.2355
18367W        W37901  12.792   0.943  12.498 -0.1697 -0.2319 -0.0038
18368W        W37902  14.452   6.933   3.028 -0.1927  0.0706  0.0312
18369W        W37903  14.384   0.218  15.982  0.1821  0.1457  0.0812
18370W        W37904   7.396   9.891  14.356 -0.0151  0.0534  0.0252
18371W        W37905  14.720   5.796  14.716 -0.1141 -0.0755 -0.1104
18372W        W37906   1.558  15.185   4.324  0.0342  0.2133 -0.0348
18373W        W37907   5.468   7.377  15.874  0.1833 -0.0365  0.0876
18374W        W37908  17.260  16.313  14.333  0.0028  0.1231 -0.1955
18375W        W37909   8.280   6.203  16.898 -0.3942 -0.1167 -0.1066
18376W        W37910  12.235   6.561  15.763 -0.1434  0.0621 -0.0305
18377W        W37911  16.568  16.450  15.627 -0.1248 -0.0098 -0.0791
18378W        W37912   2.524   8.656  12.536  0.1377 -0.0953  0.0251
18379W        W37913  15.206  10.740   2.021  0.0122 -0.1166 -0.1206
18380W        W37914   4.799   6.085   2.497  0.1191 -0.2097 -0.0732
18381W        W37915   8.205   0.675  15.942  0.0013 -0.1995  0.0111
18382W        W37916  11.957   0.707   3.931  0.0939 -0.1861 -0.0141
18383W        W37917   3.333   7.534   0.959 -0.0210  0.1027  0.0782
18384W        W37918   2.294   0.397   2.830  0.1796 -0.1208 -0.0963
18385W        W37919  10.174  13.428  14.429  0.0426  0.0438  0.0737
18386W        W37920   1.441  14.308   3.739 -0.3715  0.0845  0.0211
18387W        W37921  15.860  12.718   0.347 -0.0569  0.0653 -0.3944
18388W        W37922   7.458   9.385  16.536  0.0203 -0.2868  0.1414
18389W        W37923   5.824  14.974   0.605 -0.0376  0.0348  0.0421
18390W        W37924  15.725   7.041   3.184 -0.2726 -0.2031  0.1436
18391W        W37925  17.167  13.764   2.426  0.2218 -0.0636 -0.0035
18392W        W37926   8.328   2.988   1.812 -0.1971  0.2286  0.1257
18393W        W37927   4.744   4.524  16.651  0.0418  0.2025 -0.0654
18394W        W37928  11.377   6.126   3.953  0.3282 -0.1259  0.0933
18395W        W37929   0.403   3.298   3.732  0.2568  0.1010 -0.0286
18396W        W37930  16.072  12.421   4.353  0.0984  0.0854 -0.0969
18397W        W37931   4.079   1.610   1.607  0.4425 -0.0651  0.1750
18398W        W37932   8.682  12.391   2.420  0.3125 -0.1291 -0.0815
18399W        W37933  11.894  15.841   0.778  0.0156 -0.3346 -0.1187
18400W        W37934   6.769   0.665  15.236  0.1150  0.2524 -0.2769
18401W        W37935  10.635  13.642  13.453  0.1985  0.0851 -0.0076
18402W        W37936  11.471   7.596   3.730 -0.0125 -0.0040 -0.0562
18403W        W37937  14.599   8.462  13.792 -0.0714  0.0142 -0.1122
18404W        W37938  10.693   5.635  13.836 -0.1172 -0.0136 -0.2395
18405W        W37939  13.764   3.325   2.468  0.0875 -0.1536 -0.0069
18406W        W37940  11.313   1.296   3.907  0.0763  0.0108 -0.1855
18407W        W37941   8.694   9.953   2.259  0.3401  0.2079 -0.0819
18408W        W37942   9.142  13.556   3.106 -0.1532 -0.1134 -0.1203
18409W        W37943  16.895   5.145   4.961 -0.0846 -0.0921  0.2165
18410W        W37944   2.396   9.502   3.287 -0.0373  0.1719 -0.0299
18411W        W37945  12.137   1.769   0.583  0.0793 -0.0723 -0.0459
18412W        W37946   7.103   5.900  17.195 -0.0190  0.1226 -0.0410
18413W        W37947  13.516  13.834   3.736  0.0531 -0.1040  0.1590
18414W        W37948   0.412   2.364   3.450 -0.0335  0.1286  0.0301
18415W        W37949   5.025   0.204  16.015  0.0831 -0.1346 -0.0034
18416W        W37950   8.572  13.855  12.775 -0.3629 -0.0868  0.2410
18417W        W37951   1.204  13.860  16.542 -0.2104  0.0989 -0.1057
18418W        W37952  12.082   8.169   3.479 -0.1070  0.2340  0.0273
18419W        W37953   1.375   0.307   5.206  0.2879 -0.1179 -0.0627
18420W        W37954   1.348   1.638  16.056  0.0935  0.0111  0.0477
18421W        W37955  15.596   1.686   5.034 -0.0711  0.1941  0.1884
18422W        W37956   1.573  10.523   3.700 -0.0174 -0.1035  0.3570
18423W        W37957   1.411   5.902   3.341  0.0871  0.1365 -0.2008
18424W        W37958   8.178  11.988  13.386  0.1037 -0.4325 -0.1009
18425W        W37959  11.544   0.247   1.255 -0.2290 -0.0201 -0.1895
18426W        W37960  12.266  17.121  12.424  0.1507 -0.0759 -0.1378
18427W        W37961  16.007  12.727  14.925 -0.0116 -0.2100  0.2255
18428W        W37962  16.128  15.320  16.008  0.1770 -0.2179 -0.0146
18429W        W37963   6.940   6.326  16.353 -0.1599 -0.1268 -0.1810
18430W        W37964   2.674  12.688  16.818  0.0208 -0.0063  0.1004
18431W        W37965   5.692   9.480   4.604 -0.0268 -0.2370 -0.2448
18432W        W37966  17.131  15.820  14.457 -0.2311 -0.2353 -0.2479
18433W        W37967  15.405  10.739   1.583 -0.0761  0.2373 -0.0842
18434W        W37968  10.759   4.369  13.222 -0.2634  0.0057 -0.2551
18435W        W37969  10.628   0.150  15.130 -0.0581  0.1663  0.3536
18436W        W37970  11.917   0.900  12.615  0.1022  0.0382 -0.2689
18437W        W37971  11.775  10.961  17.246 -0.0055  0.2330  0.1021
18438W        W37972  11.135  10.200  13.790 -0.2922 -0.1042 -0.0403
18439W        W37973   0.517   7.161  15.415  0.1513 -0.0661  0.2079
18440W        W37974   2.160   6.402   3.321 -0.0052 -0.1103  0.0380
18441W        W37975  15.747  12.400   1.510 -0.1242 -0.0464 -0.0027
18442W        W37976   2.319   1.678  15.202  0.3110  0.0579 -0.0275
18443W        W37977   9.810  11.300  16.121  0.0220  0.1256 -0.1566
18444W        W37978   9.963  14.366  16.723  0.0390  0.0722  0.1524
18445W        W37979   4.367  14.802   3.398  0.1491 -0.0866 -0.0144
18446W        W37980  11.426  14.608  16.564  0.1127 -0.0320 -0.0410
18447W        W37981   2.363  14.471  16.034  0.0399  0.0262 -0.0355
18448W        W37982   5.319  11.170  15.575  0.0858 -0.0149  0.1162
18449W        W37983   0.531   0.146   0.816 -0.0798 -0.0322  0.1145
18450W        W37984   0.034  13.066  13.409 -0.1852  0.0816  0.0656
18451W        W37985   1.341   1.323  17.151  0.2294  0.1450  0.0651
18452W        W37986   2.206  10.692   2.994 -0.1392 -0.1073 -0.0394
18453W        W37987   5.933  15.866  13.988 -0.0278  0.0900 -0.2155
18454W        W37988  13.875  11.430  13.682 -0.0199  0.0244 -0.1758
18455W        W37989   2.433  15.475  14.549  0.2261 -0.0577  0.0411
18456W        W37990  14.726   7.811  12.962  0.1506  0.0510 -0.2653
18457W        W37991   7.289   2.176  14.746 -0.1906  0.1095 -0.1204
18458W        W37992   1.639  10.599   5.139 -0.2890  0.2881 -0.1463
18459W        W37993  10.974  16.688   5.085 -0.1087  0.3554 -0.0219
18460W        W37994   9.292   5.814   1.519 -0.2680  0.2131  0.0391
18461W        W37995   3.523   9.413   3.840  0.0724 -0.0639  0.0024
18462W        W37996   9.330  12.462  15.528 -0.2752 -0.3028  0.2264
18463W        W37997   9.064   1.540   4.710 -0.0214 -0.2387 -0.1011
18464W        W37998  16.721   4.708   0.201 -0.0728 -0.0966  0.1469
18465W        W37999   9.286  12.651  12.019 -0.4554 -0.3439 -0.0139
18466W        W38000  10.211   7.894   0.368 -0.2206  0.0411  0.5557
18467W        W38001  10.867   7.248   2.407  0.0718  0.1214 -0.1060
18468W        W38002  15.189   7.006   3.044  0.1041 -0.0085  0.2062
18469W        W38003  12.423   1.619   3.624 -0.0539 -0.0572 -0.1170
18470W        W38004  14.293   7.093   0.654  0.0230  0.2124  0.0273
18471W        W38005  14.369   2.118   3.704 -0.1239  0.3249 -0.0564
18472W        W38006   3.456  12.754  15.643 -0.1062  0.1674 -0.1141
18473W        W38007  14.297  16.872  16.954 -0.2364  0.2312  0.1812
18474W        W38008   4.688   1.712   0.476  0.0078  0.3464 -0.0838
18475W        W38009   2.356   0.634  13.351 -0.0859 -0.4273  0.1386
18476W        W38010  13.487   5.795   0.252 -0.0378 -0.0555 -0.2653
18477W        W38011   5.386   7.732   4.146 -0.0507  0.0093 -0.0952
18478W        W38012  16.828   4.891  15.495 -0.4193  0.0271 -0.1380
18479W        W38013  13.762  13.014   4.576 -0.2457 -0.0828  0.0284
18480W        W38014   7.750   6.713   5.271 -0.1652  0.0757  0.0998
18481W        W38015  16.227   2.597   2.852  0.1764 -0.1233 -0.0316
18482W        W38016   0.786   6.659   3.645  0.1223 -0.2757  0.1455
18483W        W38017   8.807   3.383   1.949 -0.1390 -0.1517  0.1738
18484W        W38018  14.510   5.270  16.420  0.0532 -0.1919  0.1885
18485W        W38019  11.958  15.434   0.453  0.0335 -0.2394  0.1614
18486W        W38020   0.296   1.366  16.922  0.0493 -0.2510  0.1476
18487W        W38021  16.090  16.824  14.978  0.2264 -0.1446 -0.4777
18488W        W38022   1.675   1.210  12.445 -0.0239  0.3388  0.2454
18489W        W38023   1.000  13.460  16.310  0.0708 -0.1495 -0.0429
18490W        W38024   6.646  15.291   1.572 -0.2169 -0.1507  0.1934
18491W        W38025  10.518   5.351  12.521 -0.2506  0.0903  0.2149
18492W        W38026   9.125  14.015   2.143  0.0710 -0.0016  0.0989
18493W        W38027   8.312  13.252  16.977 -0.1682 -0.1777 -0.2219
18494W        W38028   4.982   7.555  15.991 -0.0449  0.2888 -0.0298
18495W        W38029   1.585  12.051   2.311  0.2045  0.0339  0.0794
18496W        W38030   7.194  13.212  13.386 -0.2334  0.2123  0.0144
18497W        W38031   7.204   3.895   2.324  0.1437 -0.0412 -0.0078
18498W        W38032  12.402  13.317  14.096 -0.2364  0.2760  0.1718
18499W        W38033   8.846   8.949  16.953 -0.1002 -0.0415  0.0709
18500W        W38034   8.220   3.285  12.549 -0.1121 -0.1944 -0.0018
18501W        W38035   2.897  15.568  15.798  0.2323 -0.1142  0.4629
18502W        W38036  13.117   1.488   0.291  0.0250  0.0206 -0.2470
18503W        W38037   6.289  10.352   0.301 -0.1799 -0.0659 -0.0399
18504W        W38038   8.369   6.130   4.053  0.0734  0.4740 -0.0858
18505W        W38039   4.860   6.544  12.905 -0.0407  0.2776  0.3460
18506W        W38040  13.560   9.028  13.668  0.0997  0.3613 -0.1986
18507W        W38041   8.710   9.917  15.400  0.2742 -0.1023 -0.4438
18508W        W38042   3.318   0.044  16.535 -0.3314  0.0981 -0.0470
18509W        W38043  12.013  16.673  13.691  0.2348 -0.2680  0.0426
18510W        W38044  16.230   7.934  14.265 -0.2210 -0.1709  0.0854
18511W        W38045  14.881  15.462   0.638 -0.0171  0.1742 -0.1658
18512W        W38046  16.912  10.680  14.475 -0.2613  0.0176  0.1026
18513W        W38047   5.634  14.358   2.572 -0.1171 -0.1004 -0.0947
18514W        W38048   7.307  10.599   0.640  0.0145 -0.3110  0.0567
18515W        W38049   8.654  16.007  14.468  0.0062  0.1328 -0.0910
18516W        W38050  13.577  14.692   1.821 -0.2185  0.0360  0.2145
18517W        W38051  17.367   3.425   3.850 -0.3454 -0.0024 -0.1124
18518W        W38052   5.959   0.518  14.883  0.1906 -0.0473  0.1272
18519W        W38053   2.244   2.979   0.960  0.4052 -0.1220 -0.0912
18520W        W38054  12.003   0.045  12.304  0.3057 -0.2266 -0.3059
18521W        W38055   8.630   5.582   3.704 -0.0029 -0.1721 -0.1273
18522W        W38056  10.715   1.212   0.999 -0.0971 -0.1931 -0.2483
18523W        W38057   9.711   5.773  16.216 -0.3598 -0.3621 -0.0764
18524W        W38058  11.041  12.402   3.059 -0.1095  0.2156  0.1053
18525W        W38059  16.751   8.369  16.097  0.0885 -0.2248 -0.1746
18526W        W38060  13.169  16.876   4.764  0.1051 -0.2783 -0.0468
18527W        W38061   6.178   3.026  16.847  0.1430  0.1173  0.0136
18528W        W38062  16.800   2.635   4.346  0.0208  0.0340 -0.0755
18529W        W38063   5.232   4.596   5.052 -0.0929  0.0676 -0.2018
18530W        W38064  10.682   4.713   0.677  0.2317  0.2689 -0.0672
18531W        W38065   9.217   3.476   1.083 -0.0118  0.0155  0.0337
18532W        W38066   6.627   7.481   2.878 -0.3802  0.0001  0.3567
18533W        W38067  10.608  15.918   4.658  0.1329 -0.0794 -0.0028
18534W        W38068  11.002   9.281  16.558  0.0548 -0.1651 -0.0028
18535W        W38069  16.008  16.574  15.999 -0.2330 -0.1791 -0.1873
18536W        W38070   1.024  11.340  16.002  0.1375  0.1231 -0.1382
18537W        W38071   1.413   3.606  15.337  0.1147  0.1614 -0.1941
18538W        W38072   9.349   8.757   1.305  0.0216 -0.1031 -0.1995
18539W        W38073   4.958   6.976   3.712 -0.3093  0.1817  0.0521
18540W        W38074  14.785   7.186   0.740 -0.0509 -0.2182 -0.2470
18541W        W38075  16.406   8.326   4.466 -0.0830 -0.3016 -0.0390
18542W        W38076   4.237  12.600  13.717 -0.1025 -0.1157  0.2036
18543W        W38077   7.027   5.378  17.191  0.0937  0.3372  0.0814
18544W        W38078   5.185  15.555   2.820  0.1782 -0.1287 -0.0385
18545W        W38079   6.578   5.198  16.938 -0.0960 -0.2184 -0.0995
18546W        W38080   5.146   9.184  13.128 -0.0816  0.1434  0.0224
18547W        W38081   3.241   0.532  13.031 -0.0967  0.3977 -0.0682
18548W        W38082   6.593  10.988   4.684  0.0904  0.1937  0.0409
18549W        W38083  12.932  13.441  17.050  0.0359  0.2293 -0.1803
18550W        W38084   7.940   4.540  16.767  0.1305  0.4014  0.2417
18551W        W38085  12.127   2.544  14.636  0.0308 -0.1646  0.1264
18552W        W38086   9.043  17.175   0.636  0.1269 -0.0534 -0.1142
18553W        W38087   0.480   9.133   0.855  0.0284 -0.1895  0.0453
18554W        W38088   8.527   9.830   2.788  0.1763  0.0461  0.0181
18555W        W38089   4.674   5.651   0.938  0.3330 -0.2062  0.2457
18556W        W38090  11.904   1.222   4.366 -0.0327 -0.0391  0.2933
18557W        W38091  14.810   4.673  16.869 -0.1267  0.2620 -0.0821
18558W        W38092   4.933   8.414  13.672 -0.0841  0.3967  0.1558
18559W        W38093  12.828   6.393  12.552  0.1037 -0.0036 -0.1152
18560W        W38094  11.993   0.656   2.706  0.0412  0.3326 -0.0696
18561W        W38095   3.342   1.257  16.329  0.0063  0.0196 -0.0502
18562W        W38096  11.517   3.132  12.611 -0.0421 -0.0306  0.0411
18563W        W38097   8.809  11.260   3.639 -0.2249  0.2565  0.1921
18564W        W38098   2.492   8.944  14.506 -0.0726  0.5191  0.2036
18565W        W38099   1.685  12.861   1.044  0.0989 -0.0750  0.0759
18566W        W38100   7.238  13.413   3.141 -0.1824  0.0617 -0.3290
18567W        W38101  17.396   1.606   2.541  0.0790  0.2914  0.1151
18568W        W38102   7.185   6.553   3.869  0.1635  0.0524 -0.0088
18569W        W38103  16.739   4.257  13.214 -0.2348  0.2306  0.0279
18570W        W38104   0.295  13.958   0.603  0.0773  0.0435  0.5123
18571W        W38105   0.968   5.979  13.199  0.0288  0.0968  0.2190
18572W        W38106  11.902  11.111   1.838 -0.0972  0.0513 -0.0578
18573W        W38107   7.121  16.163   2.549 -0.2295  0.0053 -0.1302
18574W        W38108   2.877   9.697  14.950 -0.1961 -0.0247  0.0268
18575W        W38109   6.590   5.786   3.364  0.2216  0.1838 -0.0661
18576W        W38110   9.520   0.613   3.212  0.1737  0.2298  0.1012
18577W        W38111  16.104  13.775   3.304  0.2612  0.0144 -0.1345
18578W        W38112  13.429   5.940   2.711  0.0594 -0.0898  0.0056
18579W        W38113   1.807   0.181  16.693 -0.1893  0.3045  0.1410
18580W        W38114   0.394   9.643  15.095 -0.0246  0.1639 -0.0861
18581W        W38115   0.422  10.281  12.988  0.0413  0.4856 -0.1675
18582W        W38116  10.135  16.790   4.554  0.1695 -0.1175 -0.1609
18583W        W38117   6.944  15.759   4.165  0.0247  0.2111  0.2774
18584W        W38118   4.535   5.080   4.404  0.0963 -0.2350  0.0923
18585W        W38119   6.348  15.681  11.521 -0.1296 -0.2969 -0.1599
18586W        W38120  14.266  12.454   3.905  0.1634  0.0839  0.2527
18587W        W38121  12.343  13.396   2.926  0.0954  0.0236 -0.0458
18588W        W38122   7.436  17.436  14.491  0.2374 -0.1747 -0.0925
18589W        W38123   0.607  16.364  14.418  0.3158  0.2088 -0.1006
18590W        W38124   0.186  10.745   0.849  0.0546  0.2922 -0.1306
18591W        W38125  11.182   4.691   4.132  0.0499  0.0122  0.2728
18592W        W38126  12.518  10.099  16.120 -0.0764  0.1006 -0.1850
18593W        W38127   0.709   0.551  15.779 -0.3410  0.0775  0.0150
18594W        W38128  15.579  16.012   4.585  0.2649 -0.1737 -0.4055
18595W        W38129   1.731  15.348   1.571 -0.1354 -0.1841  0.1813
18596W        W38130   7.617  12.088   2.782  0.0525  0.1474  0.0015
18597W        W38131   8.573  11.615  11.568 -0.2100  0.3081  0.0986
18598W        W38132  14.417   7.431  15.773 -0.2172 -0.0195 -0.0794
18599W        W38133  16.238  16.315  15.095  0.0721 -0.0386 -0.0321
18600W        W38134   7.071   0.396   1.540  0.0470  0.1076  0.0228
18601W        W38135   3.492  16.329  14.047  0.1653  0.1932  0.1558
18602W        W38136  13.937  12.562   4.712  0.0295 -0.1829 -0.0535
18603W        W38137   7.794   1.610  17.040  0.1900 -0.0148 -0.3122
18604W        W38138   8.791   9.414   3.894  0.0183 -0.0202 -0.1272
18605W        W38139  10.447  16.655  16.589 -0.0867 -0.2036 -0.3532
18606W        W38140  14.350   4.844   2.789  0.0929  0.0304 -0.1224
18607W        W38141  17.269   8.173   3.199  0.1461 -0.0376  0.0759
18608W        W38142   0.054   8.282  14.804 -0.0683 -0.0059  0.1272
18609W        W38143  14.455  11.638  13.972 -0.1779 -0.0944 -0.0125
18610W        W38144   0.258  13.293   3.860 -0.0072  0.0469  0.1104
18611W        W38145  16.878   0.243   3.665 -0.2025 -0.0588 -0.0366
18612W        W38146   6.637   2.421  16.232  0.2250 -0.1743  0.3255
18613W        W38147   1.148  17.291   3.081  0.1242 -0.2339  0.1844
18614W        W38148  10.228  16.205   3.564 -0.2225 -0.0284 -0.1129
18615W        W38149   1.750   6.489  12.830 -0.0701 -0.0007  0.1839
18616W        W38150   8.005  15.914   3.260 -0.0205  0.0853 -0.0305
18617W        W38151   8.591   1.410   4.871  0.0473 -0.1235 -0.0279
18618W        W38152   6.737  14.160   2.506  0.1794 -0.3780  0.1568
18619W        W38153   6.425  12.819   3.732  0.3006 -0.0989 -0.0274
18620W        W38154   4.623   3.484   0.871 -0.3579  0.0764  0.0698
18621W        W38155   3.037  16.062  14.048  0.3719  0.4050 -0.2907
18622W        W38156   8.579   2.600   1.684  0.0502  0.2836 -0.1250
18623W        W38157   0.122   8.237  14.311  0.3227 -0.2299  0.0657
18624W        W38158   0.331  10.256   5.090  0.2247  0.1474  0.0468
18625W        W38159   4.437  17.220   1.390  0.3168  0.0004 -0.0167
18626W        W38160  13.044  13.819  12.973  0.1822  0.0694 -0.1340
18627W        W38161   1.290   4.098  12.093  0.0211 -0.0471 -0.2396
18628W        W38162  16.104   8.328   4.057  0.3900 -0.3331 -0.3973
18629W        W38163   1.178   2.019  16.331  0.1879  0.0321  0.0154
18630W        W38164   1.546  15.067  16.044 -0.0081 -0.0051 -0.2620
18631W        W38165   1.205  14.686  14.541  0.0007  0.1653 -0.0995
18632W        W38166   6.235  12.083   2.473  0.0596 -0.0707 -0.1095
18633W        W38167   0.751  10.120   3.749  0.1405 -0.1877  0.1176
18634W        W38168   2.131   3.766  16.919  0.1152  0.0913 -0.4216
18635W        W38169  14.249   4.152   5.377  0.2466 -0.0778 -0.1420
18636W        W38170   9.236  10.636   0.992 -0.0922 -0.4355 -0.0263
18637W        W38171   0.013   4.544  13.425  0.0538  0.2520 -0.2859
18638W        W38172   9.555  10.249   3.736 -0.1983 -0.1533  0.1393
18639W        W38173   4.009  12.795  15.736  0.0216 -0.1579 -0.1909
18640W        W38174   1.084   2.738   1.979  0.1269 -0.1924 -0.0663
18641W        W38175   2.197   5.129   4.166  0.2908  0.0483 -0.1126
18642W        W38176   8.582   2.717   4.732  0.1268 -0.2409 -0.2141
18643W        W38177   3.517   3.761   4.233 -0.1740 -0.2631 -0.3607
18644W        W38178   8.662  16.956  14.821 -0.0132  0.0632  0.2054
18645W        W38179   6.960  16.662  12.332  0.0399  0.0013 -0.1006
18646W        W38180  15.303  10.462  12.215 -0.1480 -0.2433  0.0010
18647W        W38181  13.752   6.071  14.393  0.1571 -0.0856  0.2144
18648W        W38182   4.606  13.483  14.399  0.0057 -0.1795  0.2318
18649W        W38183  16.660  10.464   5.031  0.1185 -0.1340 -0.2990
18650W        W38184   0.998  15.816   1.235 -0.3228  0.3332 -0.1739
18651W        W38185  11.875   2.121   1.400 -0.0949  0.0345  0.4952
18652W        W38186   5.929   4.625   2.690  0.4354 -0.1506  0.0198
18653W        W38187   8.614  14.036  14.896  0.3747 -0.1820 -0.2680
18654W        W38188   8.554  15.580   3.952 -0.0940  0.1089  0.1159
18655W        W38189   7.502   8.933   0.143  0.1710  0.1648  0.2933
18656W        W38190   0.035   6.611  14.803 -0.0242  0.1277 -0.3567
18657W        W38191   1.164  10.326  12.011  0.1708 -0.3072 -0.0637
18658W        W38192   8.165  11.998  13.978  0.1631 -0.1106 -0.1157
18659W        W38193   0.323   5.121   1.279 -0.2182 -0.0043 -0.1555
18660W        W38194   4.139  16.825  17.195 -0.0540 -0.0296  0.1688
18661W        W38195  14.211  16.281   0.182  0.0228  0.0680 -0.1557
18662W        W38196   6.985  14.921  13.535 -0.2195  0.0721  0.0395
18663W        W38197  11.320  11.523   3.157  0.0431 -0.3668  0.1917
18664W        W38198  13.805  11.892  12.792 -0.0315  0.0474  0.0952
18665W        W38199   4.876  17.403  13.760 -0.2415  0.1512 -0.0007
18666W        W38200   0.335  14.402   0.856 -0.1290 -0.1294  0.1273
18667W        W38201   5.519  16.657  16.668 -0.2948 -0.1187  0.0149
18668W        W38202   5.140  15.666   1.071  0.1298 -0.1154  0.1108
18669W        W38203   6.545  11.143   2.679  0.0203 -0.3132 -0.3642
18670W        W38204  16.879  11.101   3.754  0.3500 -0.3372 -0.1837
18671W        W38205   7.590  15.834  14.144 -0.0976  0.3541 -0.2631
18672W        W38206   7.577   5.650  12.399  0.1703  0.0621 -0.1921
18673W        W38207  11.589   8.604   5.748  0.0785  0.0891 -0.0595
18674W        W38208   6.360   3.852  17.211  0.1500  0.0113  0.0475
18675W        W38209   3.704  10.224  16.195  0.0397 -0.2886 -0.4123
18676W        W38210   3.443   7.298   3.082  0.0944  0.1438 -0.1165
18677W        W38211   3.371   0.377   3.306 -0.0336 -0.1269  0.2552
18678W        W38212  13.686  12.348   3.742  0.1820  0.2467  0.0136
18679W        W38213   5.730   1.481  16.411  0.0742  0.2056 -0.1951
18680W        W38214   4.137   3.834   1.893 -0.2988 -0.1609  0.4716
18681W        W38215   5.587  12.528   2.136 -0.4579  0.3631 -0.3014
18682W        W38216   9.332   3.996   1.130  0.1471  0.0695 -0.0927
18683W        W38217  11.081   8.734  13.547 -0.0919  0.0361 -0.0224
18684W        W38218  13.012   6.040  16.149  0.0225  0.0326  0.0749
18685W        W38219  16.854   5.920   3.362  0.2531  0.0224  0.0495
18686W        W38220   2.128   3.432   2.606  0.2238 -0.3694  0.2605
18687W        W38221   6.570   7.613   1.976  0.1560 -0.4211  0.0347
18688W        W38222  14.158  11.433   4.298 -0.0557  0.0344 -0.2537
18689W        W38223   6.552  15.685  13.139 -0.1030  0.1608 -0.0510
18690W        W38224   2.421   6.645   1.973  0.2224  0.2434 -0.1000
18691W        W38225   0.317  17.458   4.403  0.5087 -0.1714 -0.3821
18692W        W38226  15.254   7.583   3.731 -0.2881 -0.1811 -0.3638
18693W        W38227  17.294   4.352   3.052  0.0618  0.0515 -0.0418
18694W        W38228   1.047   8.542  14.758  0.1906 -0.0210 -0.2524
18695W        W38229  14.769   7.265  12.290  0.0749  0.1059 -0.0404
18696W        W38230   4.788  11.158  14.205 -0.1664  0.0980 -0.0202
18697W        W38231  11.458  10.376  15.483  0.1400  0.1068  0.0197
18698W        W38232   5.338   6.698  13.193 -0.3017  0.1153 -0.3738
18699W        W38233  11.400   5.822  12.703  0.2580 -0.1332 -0.0944
18700W        W38234  10.139  15.876   0.680 -0.1742 -0.0328 -0.1900
18701W        W38235   3.907  14.518   3.130  0.2007 -0.3029 -0.4419
18702W        W38236  13.704   7.595   2.042 -0.0080  0.0980 -0.1170
18703W        W38237  13.364  15.286   4.189 -0.5108  0.1034 -0.0838
18704W        W38238   0.939   9.231   4.609 -0.4761 -0.0701 -0.0358
18705W        W38239   1.483   5.696  13.400 -0.1715 -0.0791 -0.2491
18706W        W38240   6.147  14.124  12.309 -0.1480 -0.1544  0.1161
18707W        W38241  11.576   8.960   5.020  0.2548 -0.0253 -0.2950
18708W        W38242   1.917   2.045  12.180  0.7226 -0.1146  0.1149
18709W        W38243   2.801   3.786   2.369  0.2309 -0.1262  0.2413
18710W        W38244   4.795   9.284   1.998  0.1766 -0.0534 -0.0166
18711W        W38245  11.920   9.780   4.089  0.1437  0.1101 -0.3039
18712W        W38246  13.063  11.571   2.544  0.1600 -0.3587 -0.0998
18713W        W38247   6.487   4.068  12.358  0.1599 -0.0593  0.4571
18714W        W38248   0.708   7.083  11.954 -0.2998  0.2018 -0.1699
18715W        W38249   2.196   8.370   0.620 -0.0454  0.1205 -0.1012
18716W        W38250   5.953   2.656  14.199  0.1566 -0.1108 -0.1038
18717W        W38251  11.022  12.884   2.635 -0.1107 -0.1470 -0.0768
18718W        W38252   2.319   1.510  14.571  0.0110 -0.2356  0.0735
18719W        W38253   5.323   8.142  14.863  0.0474  0.0331  0.2228
18720W        W38254   1.395  15.098  14.954  0.2349 -0.1893 -0.0854
18721W        W38255   1.343   1.713  13.646  0.1130 -0.0350 -0.2076
18722W        W38256   7.797  11.745  14.414  0.1144 -0.2354 -0.2471
18723W        W38257   0.820  11.426   4.996  0.0563  0.0004  0.0565
18724W        W38258   8.097  14.925  16.783 -0.0102  0.1698 -0.0417
18725W        W38259  14.287  11.967  12.609  0.1188  0.1336 -0.0142
18726W        W38260  12.209   2.680  13.187 -0.0614  0.2045  0.1922
18727W        W38261  16.202   3.689   4.132 -0.0177 -0.1265 -0.0404
18728W        W38262  14.220   4.594   0.001 -0.2373  0.3169 -0.1781
18729W        W38263  17.295  14.737  12.522  0.0543  0.1728 -0.0840
18730W        W38264   1.245   7.537  16.845 -0.1683  0.0264 -0.1672
18731W        W38265  16.214   3.859   4.896 -0.2092  0.1375 -0.0840
18732W        W38266   1.798   3.996  14.270  0.0007 -0.3189  0.1145
18733W        W38267   6.073   8.506  11.256 -0.1476 -0.0682 -0.3916
18734W        W38268  15.507   1.304   1.384 -0.0979  0.2625 -0.2589
18735W        W38269   5.366  16.637  13.451 -0.2271  0.1614  0.0165
18736W        W38270   8.117   7.609   3.984 -0.1149  0.1102  0.2424
18737W        W38271   0.131  10.959  17.199 -0.0357 -0.0368  0.2424
18738W        W38272  16.364   7.509  13.239  0.1362 -0.0030  0.0573
18739W        W38273   8.159  10.352  14.160 -0.2669  0.0800 -0.2002
18740W        W38274   1.154   2.825   5.029  0.1029  0.0914 -0.2481
18741W        W38275   7.749  10.023   4.460  0.0423  0.3523  0.2171
18742W        W38276   1.186   8.769   2.514  0.4890 -0.3384  0.0874
18743W        W38277  10.185  13.401   1.342 -0.2167 -0.3745  0.1219
18744W        W38278   1.648   4.754   2.938 -0.2603 -0.1623  0.2075
18745W        W38279   8.741   1.564  16.914 -0.0016 -0.1855 -0.0405
18746W        W38280  16.342  15.580   2.490  0.0780  0.1403  0.0697
18747W        W38281   6.712   9.131   1.174 -0.2765 -0.0753  0.0204
18748W        W38282   6.616   2.771  15.351  0.5047  0.2306  0.0711
18749W        W38283  14.000   7.115   3.093  0.2972 -0.1034  0.0352
18750W        W38284   7.401   4.820   3.815  0.0207  0.1385  0.2174
18751W        W38285  12.130   5.139   4.485 -0.2392  0.2672  0.0903
18752W        W38286   6.908  15.532  14.902 -0.3712 -0.2517 -0.0629
18753W        W38287   4.177  14.516   1.427  0.2694 -0.0696 -0.1093
18754W        W38288  17.162   7.971   0.112 -0.1068  0.0374  0.2321
18755W        W38289   6.874  15.050  12.594 -0.0854  0.1349 -0.1175
18756W        W38290   4.067   8.078   3.359  0.1060  0.0253  0.0237
18757W        W38291   8.702   2.580  16.825  0.0678  0.0326  0.1606
18758W        W38292   9.129   0.727   5.104 -0.0977  0.1235 -0.1340
18759W        W38293   5.333  10.209  17.255  0.0421  0.0436  0.3446
18760W        W38294   1.692  16.750   2.384 -0.2533  0.0755 -0.3049
18761W        W38295  10.122   3.485  14.800 -0.0143  0.0995  0.1214
18762W        W38296   0.435   4.120  15.878  0.0999  0.0623  0.0219
18763W        W38297   9.642  11.384  16.890  0.0274 -0.1173  0.2675
18764W        W38298  12.105   7.859  17.242  0.0001 -0.0533 -0.1556
18765W        W38299   2.637  10.202   1.623  0.1366 -0.2907 -0.0591
18766W        W38300   4.264   6.186  14.346  0.3542  0.0876 -0.2780
18767W        W38301  17.456   8.305   2.712  0.3363  0.0557  0.0331
18768W        W38302  11.760  16.502  16.165  0.1781 -0.0259 -0.1042
18769W        W38303  14.776  14.471  15.460  0.1646  0.0897 -0.0824
18770W        W38304   7.786   2.895   2.833 -0.1726 -0.1645 -0.0649
18771W        W38305  11.252   3.753  16.456  0.0122  0.3752 -0.1902
18772W        W38306  13.474   6.395   0.553  0.0410  0.2334  0.0151
18773W        W38307   0.060  12.109   1.679  0.1192  0.0431  0.2380
18774W        W38308   5.572   2.266  12.406 -0.0885 -0.0010  0.0852
18775W        W38309   0.178   8.714  13.511 -0.0663  0.2457 -0.0774
18776W        W38310  14.090   4.489   2.460 -0.1017  0.4318 -0.1433
18777W        W38311  13.408   7.061   2.427  0.0647  0.0825  0.3512
18778W        W38312   5.992  10.027  11.393  0.0825 -0.0070 -0.1242
18779W        W38313  14.217   4.701   3.350 -0.2363 -0.2192 -0.0944
18780W        W38314  11.022   5.729   3.285  0.0334  0.0929 -0.1968
18781W        W38315  15.487   9.402   0.380 -0.1723  0.0821  0.1907
18782W        W38316   7.444   9.755   1.118 -0.0894 -0.0920 -0.0005
18783W        W38317  11.322   1.885   4.961  0.1934 -0.1510  0.1952
18784W        W38318  17.049   7.677  16.387  0.1903 -0.1580 -0.1176
18785W        W38319   5.703   9.442   3.622 -0.0006  0.1887  0.1184
18786W        W38320  15.322   8.722  14.639  0.1891  0.0054 -0.2246
18787W        W38321   0.135  15.710   3.434 -0.3033  0.0505  0.3721
18788W        W38322   0.429   1.022   2.390  0.0494 -0.1002  0.0291
18789W        W38323   0.445  10.820   1.334 -0.0464  0.1095  0.0629
18790W        W38324  12.637  16.910   4.825  0.1434  0.1352  0.3864
18791W        W38325   3.319   9.811   3.468  0.0584  0.3403 -0.1883
18792W        W38326   7.746   9.757   1.742 -0.1317  0.0272  0.2896
18793W        W38327   6.178  11.708  15.416 -0.2042 -0.2589  0.0268
18794W        W38328   0.371   0.992  14.171 -0.2564 -0.0276  0.0305
18795W        W38329   1.332  13.573  13.839 -0.2440  0.3857 -0.0438
18796W        W38330   9.388   8.954  14.051  0.0839 -0.0444  0.0223
18797W        W38331  11.412   7.377  16.972  0.4762  0.1036  0.1289
18798W        W38332  16.427   7.124   4.504  0.1366 -0.2428  0.3955
18799W        W38333   7.068   1.122   3.148  0.1124  0.2207  0.0006
18800W        W38334   0.886  16.950  13.606 -0.0965 -0.0513  0.1059
18801W        W38335  10.653  11.363  15.285  0.2675  0.1287 -0.1032
18802W        W38336  14.332  13.393  14.535 -0.1080  0.0353  0.2033
18803W        W38337   6.956   2.645  13.319  0.0498 -0.0680  0.3274
18804W        W38338  16.337   3.935   3.081 -0.2006  0.4374 -0.2466
18805W        W38339   0.246  15.148  16.919 -0.1788 -0.0880 -0.3114
18806W        W38340   5.895   3.706  15.660 -0.2312 -0.1082 -0.2542
18807W        W38341  17.461  11.346   0.519  0.1029 -0.2249  0.2996
18808W        W38342   4.600  11.283   1.493  0.3901  0.0143  0.2754
18809W        W38343  16.091   5.415  17.220  0.1832  0.2012  0.1357
18810W        W38344   6.958   4.185   0.682  0.2184  0.1258  0.2740
18811W        W38345  11.309  16.342  15.114 -0.3232 -0.0255 -0.1195
18812W        W38346   2.372   7.275  15.664 -0.0002 -0.0257  0.0288
18813W        W38347   8.449  13.505  16.248  0.2996 -0.2951  0.1606
18814W        W38348   8.587  14.764  13.595 -0.0894 -0.2395  0.0716
18815W        W38349  13.887   3.352   1.395 -0.2488 -0.0896 -0.2206
18816W        W38350   6.649   7.704   2.440  0.0725  0.2352  0.5448
18817W        W38351  12.550   3.399   2.221 -0.2866  0.0107  0.0353
18818W        W38352   9.148  13.412  15.294  0.1812  0.0948  0.0579
18819W        W38353  12.127   3.812   1.422 -0.0525  0.0548 -0.2472
18820W        W38354  12.655  15.516  14.097  0.4556  0.2800  0.1778
18821W        W38355  15.169  16.391  16.298 -0.1236  0.1035 -0.1865
18822W        W38356  15.723  15.135  15.747 -0.0213  0.1101 -0.0574
18823W        W38357  12.743   6.968   3.807 -0.3108 -0.0667  0.0746
18824W        W38358   1.238   4.839  13.972 -0.0959  0.2381  0.1906
18825W        W38359   4.996   0.175  12.260 -0.1335  0.2071  0.2359
18826W        W38360  12.904   7.097   1.607  0.1825  0.1452  0.1810
18827W        W38361   0.141   3.510  16.234  0.0209  0.2307 -0.0876
18828W        W38362   9.141   3.036   3.865  0.0330 -0.0668  0.0179
18829W        W38363  15.044  15.900   0.474 -0.1070 -0.1150 -0.2236
18830W        W38364   9.457   8.421   0.336  0.1793 -0.2237 -0.0057
18831W        W38365  10.303   9.332   3.341  0.0736  0.0913 -0.0806
18832W        W38366  13.262  14.881   3.535  0.1600  0.3509 -0.0026
18833W        W38367  14.511  11.294   1.051 -0.0040  0.0623 -0.0580
18834W        W38368   2.519  13.235  13.671 -0.0069  0.2317 -0.1489
18835W        W38369   2.824   6.735  16.049 -0.2066 -0.0549 -0.1837
18836W        W38370   1.401   4.523  12.360  0.1860  0.0956  0.2218
18837W        W38371  13.465   5.423   4.565 -0.2184 -0.0891 -0.0840
18838W        W38372   0.186   3.249  15.745  0.0474  0.2877 -0.1345
18839W        W38373  16.907   3.787  13.911 -0.2192 -0.2119  0.2131
18840W        W38374  11.403   0.482   4.554 -0.0824 -0.1149 -0.2147
18841W        W38375  11.459   8.839  14.828  0.0271  0.1107 -0.0029
18842W        W38376  12.608  14.834  14.653 -0.1202 -0.0276 -0.0608
18843W        W38377  16.709  10.489   3.987 -0.0246  0.0962  0.1257
18844W        W38378   0.482   9.369   5.113 -0.2319 -0.1746 -0.0069
18845W        W38379   0.407  13.520  13.479 -0.0251 -0.1764  0.0980
18846W        W38380   7.523  15.752  12.651 -0.2326 -0.0445  0.1707
18847W        W38381   2.648  12.445  14.406  0.2768  0.0664 -0.0332
18848W        W38382   3.743   8.739  16.190  0.3006 -0.0320  0.0889
18849W        W38383   8.390   8.956  13.547 -0.2798 -0.4049  0.0569
18850W        W38384   3.216  17.306  14.734  0.0418 -0.1106 -0.0424
18851W        W38385  12.970   8.148  15.989 -0.2589 -0.0569  0.3781
18852W        W38386  10.143  14.434  16.165 -0.0650 -0.1873 -0.3063
18853W        W38387  14.957  16.624   1.164 -0.0456 -0.0659  0.1705
18854W        W38388  16.817  12.279   2.987 -0.3044  0.4120  0.0328
18855W        W38389   2.232  16.826   2.641  0.1535 -0.0934 -0.1239
18856W        W38390  11.065   6.710  14.151  0.2058  0.1432 -0.0122
18857W        W38391   5.257   2.158   3.067  0.0083  0.0414 -0.2057
18858W        W38392   4.649   9.726  16.843  0.1925 -0.0734 -0.1676
18859W        W38393   7.066  13.040  14.889 -0.0741 -0.0684 -0.3284
18860W        W38394  14.140  12.168   3.479 -0.2078 -0.1424 -0.2657
18861W        W38395   4.467   9.274   3.349 -0.3357  0.2625 -0.1612
18862W        W38396  15.053  12.033   4.240 -0.2380 -0.2033 -0.1035
18863W        W38397  16.982  17.303   2.739  0.2026 -0.1699  0.2738
18864W        W38398  13.424   1.946  13.097 -0.0727  0.0062  0.1015
18865W        W38399  12.688  10.429   1.700  0.0677 -0.0738 -0.0564
18866W        W38400  12.029   0.304  12.746 -0.1596 -0.1350 -0.3161
18867W        W38401  12.238   8.073  15.441 -0.0589  0.1865 -0.0689
18868W        W38402   8.337  10.325   2.065  0.0313 -0.2586  0.1081
18869W        W38403   2.958   2.038   2.468 -0.0598  0.2989 -0.0136
18870W        W38404  16.297   0.824  12.335  0.0846 -0.1833 -0.3776
18871W        W38405   0.836  15.163   3.589  0.0232 -0.2633 -0.0095
18872W        W38406  13.505   3.235   1.131  0.0230  0.0219  0.3365
18873W        W38407   1.582  14.545  13.109 -0.0935  0.0591 -0.2246
18874W        W38408   1.262  14.845   2.112 -0.3309 -0.2152 -0.1395
18875W        W38409   7.193   8.716   1.160 -0.1537 -0.2070  0.0930
18876W        W38410   0.463   1.727   3.938 -0.4131  0.0795 -0.1679
18877W        W38411   2.750   0.818  13.003 -0.0808 -0.2107  0.1036
18878W        W38412   7.857  12.408   3.491 -0.0404  0.0418 -0.0845
18879W        W38413  14.893  12.582   1.072  0.0245 -0.4670 -0.2181
18880W        W38414   0.585  10.019  16.532 -0.2258  0.0537 -0.0836
18881W        W38415  14.405  11.023   5.181 -0.2039  0.1166  0.1394
18882W        W38416  12.748  11.179   2.918  0.0204  0.1457  0.1036
18883W        W38417   4.680   4.222   2.908 -0.1680  0.1532 -0.1017
18884W        W38418  12.682  11.939  13.078 -0.0549  0.2056 -0.3888
18885W        W38419  14.943   5.291   3.509  0.0573 -0.1524  0.2757
18886W        W38420  17.171  11.916  14.256  0.0573 -0.2804 -0.3067
18887W        W38421  16.216   7.717   2.391  0.2119 -0.0278  0.0413
18888W        W38422  14.079  10.604  14.338  0.3269  0.1666 -0.2566
18889W        W38423   2.408   2.059   1.670 -0.2278 -0.2402  0.1669
18890W        W38424   0.111   8.172  17.176  0.0794 -0.0522  0.2064
18891W        W38425  12.658   3.054   1.397 -0.0926 -0.2267  0.0053
18892W        W38426   9.240   5.524  16.963  0.1492  0.1468 -0.0242
18893W        W38427   2.039  14.789  14.997 -0.0033 -0.0221  0.1315
18894W        W38428   0.272  10.320  13.661  0.1263  0.2873  0.2846
18895W        W38429   5.047   2.378  13.857 -0.0797 -0.0384 -0.3794
18896W        W38430   1.315  16.728  15.709 -0.0495 -0.1698  0.2221
18897W        W38431   0.675   8.452  14.427  0.0032  0.1637  0.1738
18898W        W38432   6.919  16.332   4.117  0.0344  0.0126  0.2059
18899W        W38433   0.852  12.187  12.776  0.0589 -0.4062  0.3457
18900W        W38434   2.890  13.685  13.667  0.0533  0.0941  0.0842
18901W        W38435  15.311  15.339   3.887 -0.1023  0.1465 -0.0618
18902W        W38436  15.771   8.038  14.452  0.1949 -0.0119  0.0619
18903W        W38437  10.596   9.321   0.163 -0.0350 -0.0087  0.2914
18904W        W38438  12.876  15.803  13.747 -0.0213 -0.2232 -0.1509
18905W        W38439   8.595   5.196  15.352 -0.2345  0.1848 -0.0799
18906W        W38440  13.925   2.836  13.732 -0.2390 -0.0192  0.2172
18907W        W38441  14.727  12.269  12.585  0.2576 -0.1098  0.2406
18908W        W38442  14.400   3.434   0.227  0.1002 -0.2971 -0.0349
18909W        W38443   5.844   1.919   1.505 -0.2546 -0.0505  0.2238
18910W        W38444  16.214   4.119  13.067 -0.1926 -0.1507 -0.1603
18911W        W38445   7.129  11.412   1.127  0.3991  0.0783 -0.2952
18912W        W38446   7.810   8.338  12.631  0.3566  0.2435 -0.1382
18913W        W38447   8.365   7.097   3.077  0.0284 -0.0306 -0.2673
18914W        W38448  13.386   4.949  14.768 -0.1757 -0.2330 -0.2303
18915W        W38449   1.600   6.716   4.860 -0.0328 -0.1785 -0.3150
18916W        W38450   6.308  13.638   3.785 -0.1031 -0.2142 -0.0463
18917W        W38451   2.539   8.351   4.777  0.0619 -0.2079  0.2543
18918W        W38452   9.254   1.274  13.580  0.1090 -0.0878  0.1927
18919W        W38453   7.663   0.016   2.905 -0.1154  0.0095  0.0113
18920W        W38454  14.915   6.692   1.540  0.0359 -0.1260 -0.0367
18921W        W38455  12.392   0.697  12.653  0.1165 -0.1176  0.1676
18922W        W38456  14.309   9.417   4.570  0.2893 -0.1628 -0.1228
18923W        W38457   1.509  14.527   3.297 -0.2836 -0.2489  0.2510
18924W        W38458   9.441   5.799   5.171  0.0747  0.2374 -0.1431
18925W        W38459   9.899   0.569   4.331 -0.3757  0.1232  0.0865
18926W        W38460   8.892   5.792   5.179  0.0228 -0.1463  0.1165
18927W        W38461  13.989  11.019   3.801  0.0420 -0.0254  0.0676
18928W        W38462  11.379   0.491  14.070 -0.0369  0.0209  0.0750
18929W        W38463   1.732  12.156   0.006 -0.5073  0.0380  0.0534
18930W        W38464   8.630   5.216  17.159  0.2028 -0.0948  0.0807
18931W        W38465  16.442   4.313   4.878  0.0280 -0.1726 -0.2428
18932W        W38466   5.784   7.253   0.714 -0.2786 -0.1243 -0.1358
18933W        W38467   4.367   6.398   0.517 -0.1764  0.0784 -0.2350
18934W        W38468   8.517   7.360   2.176  0.2766  0.0341  0.1395
18935W        W38469  17.386   4.754  16.383 -0.2612 -0.0743  0.4380
18936W        W38470   1.850   1.789   4.719 -0.0496 -0.1236  0.3308
18937W        W38471   7.667  17.048  12.236 -0.3543  0.1327 -0.2177
18938W        W38472   9.313   2.761   3.058 -0.0399 -0.2213  0.0336
18939W        W38473  14.916  10.962   2.724 -0.0490 -0.2848  0.0061
18940W        W38474   5.490  11.538  16.623 -0.1587  0.3128  0.3362
18941W        W38475   9.017   6.636   1.202 -0.0511 -0.1456 -0.0965
18942W        W38476   1.375   5.758  17.283 -0.1178 -0.2331 -0.2844
18943W        W38477   6.179  14.494  16.125  0.1526  0.0772 -0.0686
18944W        W38478   1.647  15.742   2.581 -0.2935 -0.2216 -0.1356
18945W        W38479  17.144  12.780   2.247  0.0519 -0.0786 -0.0518
18946W        W38480  12.025   9.943  16.420 -0.0844  0.2219 -0.1993
18947W        W38481   4.750   4.525   6.297  0.0353  0.3440  0.1548
18948W        W38482   9.754  10.076  14.483  0.2207  0.0629 -0.1008
18949W        W38483  11.556   3.222  16.657 -0.0137 -0.0562  0.0237
18950W        W38484   7.189  15.641  15.732 -0.0997 -0.1635  0.0043
18951W        W38485  10.928  11.353   3.399 -0.1039 -0.0543  0.3236
18952W        W38486   9.656  13.383  13.055  0.0023 -0.4738 -0.2050
18953W        W38487  12.083   9.706   1.278 -0.0297 -0.1755  0.0612
18954W        W38488   1.016   1.589   4.069 -0.0850  0.0712  0.1943
18955W        W38489  14.462  12.601   1.890 -0.0246  0.2155  0.0057
18956W        W38490   5.796   1.079   3.396  0.1669  0.0511  0.0573
18957W        W38491  12.783  14.360  16.293  0.0515  0.0611  0.1676
18958W        W38492   7.164   8.697   2.779 -0.1953  0.2025 -0.2297
18959W        W38493  17.029   4.632   2.729 -0.0939  0.0543  0.1352
18960W        W38494   3.711   4.033   2.050 -0.3150  0.2134  0.0300
18961W        W38495   8.428   5.943  12.063 -0.0722  0.0564  0.2743
18962W        W38496  15.369  16.913   1.177 -0.0960  0.0163 -0.0953
18963W        W38497  14.719   0.741  16.793 -0.2127 -0.3104 -0.1640
18964W        W38498   0.295   7.165   4.714 -0.1231  0.1026  0.2455
18965W        W38499   8.709  10.677   0.993  0.0119  0.0436 -0.0426
18966W        W38500  16.364  15.145  12.352  0.1507 -0.2031 -0.1582
18967W        W38501  16.485   7.533  12.068 -0.3572  0.4379 -0.2820
18968W        W38502  12.189  13.674   0.783  0.2340 -0.4412 -0.1811
18969W        W38503  15.700  15.662   4.925  0.0345 -0.2059  0.0035
18970W        W38504  15.965   6.749  12.332 -0.2661  0.0369  0.2074
18971W        W38505  13.853   0.410  13.101 -0.0750  0.1769  0.1750
18972W        W38506  13.007   3.406   4.991  0.0092 -0.2750  0.2571
18973W        W38507   9.780   8.411   2.627  0.0404 -0.1951  0.0060
18974W        W38508   2.846   1.125  13.867  0.4910  0.0582 -0.0207
18975W        W38509  15.736  11.019  14.179  0.0526 -0.5098  0.0314
18976W        W38510   7.747   2.322   2.491  0.0377 -0.1704  0.0907
18977W        W38511  15.992  12.843   2.683  0.3303  0.1961  0.1482
18978W        W38512  16.605  15.299  16.185 -0.0057  0.3959  0.0078
18979W        W38513   0.335  11.109   4.672  0.0372  0.2638 -0.0648
18980W        W38514  10.997   1.401   3.156  0.0489 -0.1018 -0.0534
18981W        W38515  10.443  11.715  15.785  0.3609 -0.2632  0.0905
18982W        W38516   1.239  12.620   1.522  0.0905 -0.0071 -0.0516
18983W        W38517  11.762   9.401  12.418 -0.0901 -0.1170  0.1309
18984W        W38518   0.315  17.240   5.014 -0.1049 -0.2656  0.2853
18985W        W38519   3.362   7.815   4.966 -0.2166  0.0701 -0.0176
18986W        W38520   6.755   5.642   1.164  0.0002  0.1547 -0.0061
18987W        W38521   9.085  15.305   2.621  0.1478 -0.0601 -0.2441
18988W        W38522  16.409   9.820   0.895  0.1391 -0.1134  0.0038
18989W        W38523   0.801   5.139   2.611 -0.1464 -0.0039 -0.0967
18990W        W38524  11.848  15.426  16.376  0.1209 -0.1702 -0.0012
18991W        W38525  12.921   6.430  16.489 -0.4028 -0.1918  0.1748
18992W        W38526  11.908  11.918  12.882 -0.5232 -0.2920 -0.1492
18993W        W38527   8.623   0.517  16.240 -0.5462  0.0841 -0.4352
18994W        W38528   4.151  17.434  15.814  0.1079  0.0484  0.1152
18995W        W38529  13.402  10.472   0.411  0.1354  0.0981 -0.0822
18996W        W38530  11.835  17.143   1.889 -0.1413 -0.0321 -0.1708
18997W        W38531   0.072  10.915   2.622 -0.2001  0.3044  0.2257
18998W        W38532  17.460  17.176  14.846  0.2424  0.1648 -0.0622
18999W        W38533   4.882  16.464  15.277  0.3394 -0.0430 -0.0299
19000W        W38534  10.315  11.857   5.398  0.2553  0.1152  0.1794
19001W        W38535   5.880   4.810  14.291  0.0651 -0.0305  0.0662
19002W        W38536   1.128   2.563   4.524  0.0291 -0.1896 -0.0870
19003W        W38537   9.708  11.531   2.433 -0.2073  0.0856  0.1314
19004W        W38538  14.678   2.515   4.560  0.0627 -0.0520 -0.0514
19005W        W38539   6.772   4.781   2.254 -0.3695 -0.2630  0.2925
19006W        W38540   3.641   1.368   0.099 -0.2724  0.1383  0.3779
19007W        W38541  14.439   5.035  15.927 -0.1694 -0.2183 -0.0200
19008W        W38542   5.752  16.615   1.155  0.0970 -0.1148 -0.1374
19009W        W38543   7.140   8.086  13.410  0.1223  0.0869 -0.3886
19010W        W38544  12.237   3.772   2.378 -0.0436  0.0270 -0.0447
19011W        W38545   6.315   8.925  15.082 -0.2642  0.1156  0.0920
19012W        W38546   7.049  10.701   3.871 -0.0822  0.0811  0.1719
19013W        W38547   3.529   8.277  16.390  0.2197 -0.0311 -0.3609
19014W        W38548   7.123   4.594  16.188  0.0798  0.1379 -0.3371
19015W        W38549   8.588   9.473  12.780 -0.0132  0.0759  0.1319
19016W        W38550   4.013   3.239  16.059 -0.0104  0.3417 -0.2382
19017W        W38551  14.133  15.756  13.324 -0.0043  0.2125  0.2481
19018W        W38552   9.565  14.146  13.918  0.1350  0.1056  0.0038
19019W        W38553   3.626   8.705   1.397 -0.2105 -0.1149  0.2006
19020W        W38554   9.263   6.037   0.870 -0.3021  0.1954  0.2516
19021W        W38555  17.181   2.627  15.008  0.2557 -0.1039 -0.0629
19022W        W38556   9.723  14.870   1.298 -0.1101 -0.0283 -0.0492
19023W        W38557  11.283  17.005   2.065 -0.0325  0.0914  0.1675
19024W        W38558  17.461   7.848  13.576 -0.0533 -0.0918 -0.0749
19025W        W38559   5.722   5.200  17.104 -0.1743 -0.1720 -0.1000
19026W        W38560   8.419   1.871  16.148  0.1574  0.1501  0.2506
19027W        W38561   2.121  13.594   1.139 -0.0143 -0.2963 -0.1612
19028W        W38562  13.778  15.777  16.389 -0.1819 -0.0454 -0.0329
19029W        W38563   0.569   8.072  17.112  0.3650  0.1532 -0.0719
19030W        W38564   7.525   6.121   0.605 -0.0580  0.1436 -0.0725
19031W        W38565   7.080  15.570   2.436  0.0991 -0.1366  0.2190
19032W        W38566  14.132   3.759  17.221  0.2842 -0.1921  0.0551
19033W        W38567   7.542  14.027  16.123  0.1863  0.0753  0.2007
19034W        W38568  16.049   1.906   5.166 -0.1242 -0.1519 -0.1048
19035W        W38569  15.913   1.968   0.535 -0.1166 -0.1078 -0.1370
19036W        W38570   1.875   1.761  12.999 -0.0913 -0.1533 -0.0940
19037W        W38571   0.059   8.728  12.435 -0.1190 -0.1670  0.1743
19038W        W38572   5.303   4.683  14.160  0.1181 -0.0971 -0.3385
19039W        W38573  10.878   4.192  16.443  0.0853  0.1279 -0.0134
19040W        W38574  15.920   4.286  16.172  0.1295 -0.1941  0.1913
19041W        W38575   6.667   4.011   4.450  0.1102  0.0958 -0.0041
19042W        W38576   4.908  16.447  14.484 -0.1732  0.3512  0.0741
19043W        W38577   7.595  14.116   0.818 -0.1163  0.0536  0.0777
19044W        W38578  10.752   5.692   4.596 -0.0978  0.0506 -0.1415
19045W        W38579  16.382   8.888   2.077 -0.0938  0.0366 -0.1736
19046W        W38580  15.358   5.844   4.975  0.1075  0.0755 -0.3436
19047W        W38581   9.906  11.394   2.885  0.1036  0.1225  0.2803
19048W        W38582  15.094  15.334  16.944 -0.0070 -0.4263  0.1172
19049W        W38583   1.111  11.269  12.989  0.0258  0.1113 -0.3601
19050W        W38584  14.967   1.950  15.390 -0.1565  0.1025 -0.0505
19051W        W38585  15.089  12.443   0.637 -0.1284 -0.4478 -0.1322
19052W        W38586   4.144   2.947   1.101  0.2506 -0.3255  0.3741
19053W        W38587   1.080   8.970   1.512  0.2221  0.1099 -0.1185
19054W        W38588  16.399   1.139   2.674  0.2567  0.4874  0.0802
19055W        W38589   9.209  11.328   2.092 -0.0778  0.0955 -0.0756
19056W        W38590  16.493  17.015  15.660 -0.4118  0.1187 -0.0925
19057W        W38591  10.914   8.160   1.037 -0.1555  0.1390 -0.0571
19058W        W38592  11.661  15.205  17.280 -0.1387  0.1625  0.0728
19059W        W38593   8.309   6.320  14.013  0.3247  0.1695  0.1140
19060W        W38594  12.333   6.137  13.502 -0.0048 -0.1205  0.1077
19061W        W38595   2.067  10.350   4.873  0.1553  0.0170 -0.3204
19062W        W38596  15.740  13.843   3.707 -0.1747 -0.0094 -0.0661
19063W        W38597   7.312   5.591   2.828  0.2687 -0.0740  0.0137
19064W        W38598  10.567  13.441   0.980  0.2250 -0.2320  0.0767
19065W        W38599  16.193  15.783  14.481  0.0385  0.1812 -0.1048
19066W        W38600  13.019   3.824  12.876 -0.2925 -0.1977 -0.1537
19067W        W38601   7.924   5.144   1.497 -0.2084  0.0337  0.2110
19068W        W38602   0.458   6.253   6.100  0.4503 -0.0221  0.0777
19069W        W38603  16.615  12.843  17.106  0.0369 -0.0338  0.2943
19070W        W38604   0.640   5.944  16.548 -0.2815 -0.0632  0.0145
19071W        W38605   9.907  17.384   0.694  0.1224 -0.1686 -0.0061
19072W        W38606   0.801  10.207   0.252 -0.1092  0.0005  0.0589
19073W        W38607  11.581   0.326  15.230  0.0059 -0.1005 -0.0206
19074W        W38608  15.701   5.122  15.930  0.1132 -0.1968  0.1867
19075W        W38609   6.305   7.640   3.292 -0.3639  0.0292 -0.1731
19076W        W38610   1.047   8.233   3.573  0.0197 -0.3903  0.0257
19077W        W38611   3.181  15.368  15.432  0.3779  0.0159 -0.0829
19078W        W38612  16.226  16.291  14.510 -0.2366 -0.2072  0.0992
19079W        W38613  13.510  13.811   3.228 -0.2911  0.0096  0.1374
19080W        W38614  13.748   1.810   4.958 -0.1436  0.3356  0.1817
19081W        W38615  11.610   4.950  15.795 -0.4054  0.0572 -0.2183
19082W        W38616  12.544  12.192  15.694  0.0532 -0.0383 -0.2519
19083W        W38617  15.646  15.248   5.220 -0.0768 -0.1547  0.1388
19084W        W38618   4.613  11.455   2.936  0.0905 -0.0272 -0.0171
19085W        W38619  12.421  16.833   0.278 -0.0440  0.0028 -0.0036
19086W        W38620   3.699   5.747   3.262 -0.1003  0.0859  0.0217
19087W        W38621  15.257  10.788   0.276  0.1906  0.0847  0.2639
19088W        W38622  14.581  17.388  17.071 -0.0567 -0.1430 -0.0907
19089W        W38623  16.141  13.689   2.658  0.1895  0.0308 -0.4102
19090W        W38624   1.054  15.847  15.736  0.2149 -0.3117 -0.0552
19091W        W38625  14.001   6.584   3.224  0.1082  0.0810  0.1759
19092W        W38626   8.545   4.368   3.515 -0.3080  0.0203 -0.3331
19093W        W38627  16.481   3.426  16.047 -0.2489 -0.0513 -0.2820
19094W        W38628   0.217  10.380   1.184  0.0171 -0.1452 -0.2852
19095W        W38629   1.118  13.240  12.956 -0.2959  0.0767  0.2769
19096W        W38630   3.593  14.259  12.138 -0.2088 -0.0604  0.0977
19097W        W38631   1.928   0.509  15.202 -0.2007  0.0535 -0.2801
19098W        W38632  11.095   3.061  15.913  0.0018  0.0676 -0.0928
19099W        W38633   1.744  11.765   0.921 -0.1405 -0.1596  0.0600
19100W        W38634   8.194   5.885  16.525 -0.0600 -0.1812 -0.0534
19101W        W38635   6.317   7.185  17.290  0.2212 -0.0861  0.0231
19102W        W38636  10.754   3.195   1.331  0.1037  0.2671  0.0621
19103W        W38637  11.493  14.739   4.476  0.2923  0.2486 -0.0891
19104W        W38638   4.397   6.013   2.167  0.0897 -0.0329 -0.0527
19105W        W38639   4.934  11.656  14.654  0.3923  0.0459  0.0790
19106W        W38640   7.179  11.786   4.807  0.3051 -0.2397  0.0285
19107W        W38641  12.147  11.818   2.911 -0.1247 -0.1561  0.2017
19108W        W38642   5.650  11.881   0.371  0.2636 -0.2425  0.0440
19109W        W38643  17.060   9.376  12.888 -0.0826  0.0297  0.1605
19110W        W38644   0.914   1.002  16.135  0.1485  0.1912 -0.3622
19111W        W38645  12.718   1.901  16.842  0.1077 -0.0367  0.0544
19112W        W38646  16.349   0.391  15.837 -0.0072 -0.1186  0.4363
19113W        W38647  16.497  15.765   5.432 -0.1584  0.2579  0.1943
19114W        W38648  10.967  16.362  14.683  0.3104 -0.1862  0.1463
19115W        W38649  14.331   8.614   3.144 -0.1706 -0.0211  0.0111
19116W        W38650   3.316  13.441  12.453 -0.0211 -0.0347  0.1945
19117W        W38651   3.040  14.683   1.831  0.3231  0.2020  0.0463
19118W        W38652  15.199  13.963   3.636 -0.0431 -0.0150 -0.1283
19119W        W38653  15.995  13.351  16.833  0.3161  0.2715  0.0860
19120W        W38654  11.994  12.854   0.027  0.0707  0.0943  0.0378
19121W        W38655   9.534   4.284  15.860 -0.1324 -0.1322  0.2230
19122W        W38656   8.116   2.465   4.979  0.1118 -0.0282 -0.0479
19123W        W38657   5.791   5.043   1.466 -0.0068  0.1382 -0.1872
19124W        W38658  11.520   1.846   5.429 -0.5617 -0.1845  0.0603
19125W        W38659  16.323  13.929  13.780 -0.1915  0.3190  0.1994
19126W        W38660  13.174   8.945   1.775 -0.0793 -0.1477  0.2318
19127W        W38661  10.358   5.345   1.278 -0.1554 -0.0620  0.1086
19128W        W38662  11.481  11.812   0.036 -0.1518  0.0119 -0.1061
19129W        W38663   7.645   2.198  12.608 -0.1302 -0.1932  0.2478
19130W        W38664   0.460   0.785  12.085 -0.1677 -0.2091 -0.0606
19131W        W38665  10.281   2.675  14.270 -0.4021  0.0805 -0.0878
19132W        W38666   3.830   9.905  12.990  0.1556 -0.1512  0.2970
19133W        W38667  16.268   6.677  15.451  0.0364 -0.0541 -0.1432
19134W        W38668  15.171  11.674   0.879 -0.0225 -0.3237  0.1122
19135W        W38669  11.438   0.411  16.259  0.1722 -0.1786 -0.0126
19136W        W38670  15.247   5.608   0.760 -0.2808  0.0246  0.2992
19137W        W38671   3.237   2.570   2.451  0.0424  0.1733  0.1545
19138W        W38672   2.964   3.436   3.111  0.2511  0.2668 -0.1681
19139W        W38673  13.582  12.634  13.278  0.0283  0.3382 -0.1663
19140W        W38674  15.190  11.143   1.703  0.1443 -0.0707 -0.1993
19141W        W38675  13.978   3.445   1.898  0.0946 -0.0055  0.0582
19142W        W38676   4.496  14.687   4.284  0.0867 -0.0937 -0.1636
19143W        W38677  10.947  11.328   1.895 -0.2474 -0.3171  0.2918
19144W        W38678   7.879  16.225  16.370 -0.0509  0.0763 -0.1952
19145W        W38679   7.325   5.169  13.374  0.0681 -0.1894 -0.3420
19146W        W38680   8.120   6.788   4.892 -0.0839 -0.0841  0.1026
19147W        W38681  12.309   5.567  15.023 -0.1486  0.0191 -0.1730
19148W        W38682   8.222  14.077  12.290 -0.2194  0.0482  0.0685
19149W        W38683   6.176  14.139  16.933 -0.0252 -0.1618  0.3770
19150W        W38684   4.704  13.715   4.926 -0.0545  0.0737 -0.0636
19151W        W38685   7.163   2.941  16.649  0.0126 -0.1953  0.0284
19152W        W38686   3.044  12.607   4.868 -0.1144  0.2050 -0.1556
19153W        W38687   6.099   9.810  12.504 -0.1162 -0.0033 -0.2366
19154W        W38688   6.778  12.039  14.704 -0.1225  0.1143  0.0672
19155W        W38689  16.173  14.502  15.599  0.0010  0.0936  0.3853
19156W        W38690   2.744   1.644   1.713  0.0782  0.1894 -0.0333
19157W        W38691  10.794   9.271   3.109 -0.0103 -0.3134  0.0443
19158W        W38692   3.337  12.405   0.282 -0.2079 -0.2350  0.1085
19159W        W38693   0.344  11.029   0.368  0.2156  0.0363  0.1581
19160W        W38694  10.051   9.495  16.012 -0.1891  0.0886 -0.1652
19161W        W38695   2.536   1.072   4.241 -0.0366  0.0120 -0.1577
19162W        W38696   5.703   5.057   4.340 -0.1641  0.0529  0.2730
19163W        W38697  16.402   3.789  16.494  0.0425  0.1243 -0.2693
19164W        W38698   6.560   7.866  14.067  0.1369  0.0506 -0.1679
19165W        W38699  16.638   9.180  13.102  0.1160 -0.0529 -0.3616
19166W        W38700   9.949   6.953  16.968 -0.2005 -0.0162 -0.3994
19167W        W38701   9.380  16.502  15.683  0.1689  0.3266 -0.1427
19168W        W38702  10.242   9.169  12.978 -0.1913  0.1741  0.2688
19169W        W38703   7.675  10.790  15.458 -0.4397  0.0505  0.0326
19170W        W38704  11.686   6.895   0.080  0.0990  0.2040  0.1449
19171W        W38705  15.584   0.244  15.153 -0.0557 -0.1561  0.0380
19172W        W38706  15.320  12.808  13.599  0.1448 -0.2831  0.1164
19173W        W38707  12.818   8.575  13.687  0.0368  0.1173  0.1956
19174W        W38708   1.629  16.327  16.697  0.2338 -0.2436 -0.1130
19175W        W38709  11.586   2.299   5.198  0.2175 -0.1177 -0.2918
19176W        W38710   1.639   5.163   1.468 -0.2148 -0.0237 -0.1437
19177W        W38711  15.397   0.331   3.688  0.0752 -0.2036  0.1715
19178W        W38712   6.194   8.417   2.816 -0.0096  0.1912  0.0673
19179W        W38713  14.191  10.931   1.364 -0.0572 -0.1364  0.1345
19180W        W38714  16.798  14.686   4.759 -0.1698 -0.0480  0.2219
19181W        W38715  16.476  15.376   1.183  0.2997  0.1798  0.1363
19182W        W38716   3.246   7.614   3.458 -0.2062  0.0355  0.0229
19183W        W38717  15.013  15.217  12.408  0.0492 -0.0681  0.1345
19184W        W38718   6.866  13.548   0.635  0.0251  0.3214 -0.1106
19185W        W38719  11.199   4.049  16.041  0.1300  0.0169  0.0827
19186W        W38720   2.376   7.302   4.806 -0.0575  0.4518  0.0776
19187W        W38721   3.763   4.623   4.403 -0.3186  0.0853  0.1464
19188W        W38722   8.699   5.882   0.739  0.3344  0.0080  0.2388
19189W        W38723  15.620   0.753  15.429  0.0577  0.2102 -0.1456
19190W        W38724   7.717   8.874  17.005 -0.0627  0.2156  0.2768
19191W        W38725   8.616   7.208   3.528  0.0247  0.1260  0.2788
19192W        W38726  16.925  13.958   4.666 -0.0334 -0.0664  0.1299
19193W        W38727   8.120  10.572  15.256 -0.0398 -0.1529 -0.2023
19194W        W38728   9.220   0.387   2.412 -0.1445 -0.3856 -0.2536
19195W        W38729   0.766  10.009  14.895  0.0653 -0.0460  0.0309
19196W        W38730   3.582   3.450   3.552 -0.1537 -0.1716 -0.0142
19197W        W38731   9.536  16.180  16.595 -0.0365 -0.3145  0.1885
19198W        W38732   5.762   8.353   1.829 -0.2961  0.1043  0.2448
19199W        W38733   1.056   0.817  13.963 -0.0297  0.4576 -0.0089
19200W        W38734  15.708   2.458   4.350  0.0762  0.0040 -0.0940
19201W        W38735   5.429  17.427  15.925  0.1371 -0.1237  0.0339
19202W        W38736   4.787  12.171   5.482 -0.0428  0.1615 -0.0039
19203W        W38737   7.502  11.166   1.423  0.0732  0.1541 -0.1397
19204W        W38738   8.446  11.235   5.595  0.0317  0.1253 -0.2204
19205W        W38739  11.217  15.033  12.138  0.3624  0.1358  0.0589
19206W        W38740  12.448   8.469  14.091 -0.1200  0.4617 -0.3345
19207W        W38741  16.638  17.064   4.336  0.0377  0.2093 -0.0085
19208W        W38742   0.448   6.335  14.766  0.1121  0.2295 -0.2771
19209W        W38743   6.635   3.459   0.128  0.1027 -0.1266 -0.2496
19210W        W38744   0.273   6.931   2.406  0.0804 -0.3316  0.1395
19211W        W38745   3.443   7.768   2.119 -0.0521  0.1123 -0.2535
19212W        W38746  15.995  12.872   1.278  0.2310  0.2439  0.1053
19213W        W38747  16.115  13.275   0.921 -0.0035 -0.0452  0.0021
19214W        W38748   1.878  11.331  16.764 -0.4453 -0.0817 -0.2137
19215W        W38749   8.105   6.391   2.712  0.0158  0.3785 -0.3588
19216W        W38750  11.335  14.274   1.604 -0.0548  0.0352  0.0510
19217W        W38751   1.526   5.631  14.694 -0.0785 -0.2417  0.1062
19218W        W38752   9.787  13.365  16.711 -0.0699  0.1603 -0.1892
19219W        W38753  10.939   3.951   4.137  0.2210 -0.0009  0.2144
19220W        W38754   1.164  16.537   2.534  0.0604  0.0329  0.0204
19221W        W38755   0.987   4.902  12.342 -0.0664  0.0668 -0.2122
19222W        W38756   6.254  12.958  14.352  0.1278  0.1898 -0.1237
19223W        W38757   4.843   6.613  16.045  0.0292 -0.1070  0.1861
19224W        W38758   1.230  12.608  14.000  0.0715 -0.3078 -0.4037
19225W        W38759   2.220  14.290   4.810  0.0763  0.1614 -0.1463
19226W        W38760  11.274   6.150  14.822 -0.0364 -0.2201  0.1067
19227W        W38761  11.102   3.229  16.497  0.2254  0.0554  0.1634
19228W        W38762   6.898   1.233   0.245 -0.0164 -0.5365  0.0995
19229W        W38763   2.049   5.890   1.055 -0.0190  0.0712 -0.1891
19230W        W38764   9.291  14.220  13.063 -0.2696 -0.1205  0.2077
19231W        W38765   4.672   0.622  16.672  0.1324 -0.1523 -0.0687
19232W        W38766   2.935  14.839  11.933  0.2739  0.4264 -0.2195
19233W        W38767  17.117   5.355   2.309 -0.1478 -0.2079 -0.0523
19234W        W38768  12.791   4.582  12.675 -0.1464 -0.1067  0.0568
19235W        W38769   5.522  15.923  15.406 -0.1003  0.0381  0.2481
19236W        W38770  15.953  11.503   3.956 -0.1832 -0.0554 -0.2378
19237W        W38771   5.878  11.480  14.396 -0.1286  0.0213 -0.1329
19238W        W38772  14.809   9.998  14.768  0.1472  0.0581  0.0858
19239W        W38773   8.631  10.368   4.156  0.0922  0.5584  0.0266
19240W        W38774  13.117   9.476   2.658  0.1460 -0.0983 -0.0202
19241W        W38775  17.275   5.442   5.158 -0.0151  0.2067  0.1971
19242W        W38776  11.983   0.620  15.088 -0.2194 -0.0163 -0.1909
19243W        W38777   0.589   1.342   3.605  0.0117 -0.1911 -0.0796
19244W        W38778  11.769   2.837  16.556 -0.1826 -0.0592  0.1287
19245W        W38779   4.441  13.812   5.413  0.4394  0.1755 -0.0776
19246W        W38780   6.902  11.323   2.341  0.0166 -0.1914  0.0123
19247W        W38781  12.322   0.936   4.276  0.1151 -0.1892 -0.0601
19248W        W38782   1.882  13.724  15.814  0.1331 -0.0976  0.2371
19249W        W38783   6.369   8.638   0.099  0.0786  0.0004  0.1976
19250W        W38784   3.005  16.266  15.154 -0.0703 -0.0926  0.0004
19251W        W38785  12.579  12.122   2.995 -0.1418  0.1260  0.1362
19252W        W38786   2.637   9.632   4.992  0.2059 -0.2528 -0.0994
19253W        W38787   4.408   4.743  16.925  0.1315 -0.0628 -0.2855
19254W        W38788  11.748  11.263  12.952 -0.0248  0.1786  0.3023
19255W        W38789  14.813   2.757  15.775 -0.0978  0.1586  0.2208
19256W        W38790  16.530  13.460   4.017  0.0245 -0.1223 -0.2109
19257W        W38791   9.604  11.009  17.189 -0.1311 -0.1937  0.0080
19258W        W38792  14.502  17.125   3.600  0.1669  0.0253 -0.0996
19259W        W38793  14.056   6.990  15.972 -0.0674 -0.1694 -0.1241
19260W        W38794   6.349   0.955   2.525  0.1251  0.1093  0.0442
19261W        W38795  11.275   7.749  15.543 -0.6149  0.0821 -0.0423
19262W        W38796  11.387   2.635  16.300  0.2697  0.1457 -0.2307
19263W        W38797   9.225   6.635   5.060 -0.1559  0.0262  0.0454
19264W        W38798  10.464  16.401  14.847  0.3295  0.2066 -0.0773
19265W        W38799  10.027   0.084  15.202  0.2994 -0.0750  0.1207
19266W        W38800   7.914  15.818   5.192  0.2149  0.0456  0.3943
19267W        W38801  17.009   0.810   1.587 -0.1839  0.0313  0.0598
19268W        W38802   0.865   0.900  12.293 -0.0021 -0.0241 -0.0651
19269W        W38803  11.021   4.038  14.507 -0.1220  0.0205 -0.0225
19270W        W38804   3.947  10.092   3.295 -0.2988 -0.2822 -0.1399
19271W        W38805   5.609   7.594   2.423  0.1148 -0.4334  0.1036
19272W        W38806   0.653  12.352   2.785 -0.0792 -0.0748 -0.0986
19273W        W38807   1.128   0.632   3.157 -0.2348 -0.0661  0.3040
19274W        W38808   2.283  12.506   0.213  0.1519 -0.1564  0.1043
19275W        W38809  12.591  15.669  16.945  0.1251 -0.0974  0.0744
19276W        W38810   5.928   6.687  12.232 -0.0166 -0.0675  0.2492
19277W        W38811  17.459   0.926   0.874  0.1334 -0.1850 -0.1386
19278W        W38812  11.315  10.135  17.112  0.1998  0.3699 -0.2037
19279W        W38813  11.092  12.531  14.377 -0.3128  0.2140 -0.1679
19280W        W38814   9.360   8.114   5.938 -0.2286 -0.1087 -0.0533
19281W        W38815  17.140  10.184   2.359  0.0731 -0.1611 -0.0387
19282W        W38816  13.469  11.304  17.164  0.1889 -0.2232 -0.0471
19283W        W38817  17.013   0.711   0.639  0.1876  0.2219 -0.2789
19284W        W38818   7.122  10.374   0.192 -0.0012 -0.0367 -0.3036
19285W        W38819   4.593   3.628  12.324  0.1805 -0.2211  0.0223
19286W        W38820   4.324  15.532   0.041  0.1593  0.3054  0.0165
19287W        W38821   9.824   7.894   2.563 -0.2607  0.0558 -0.2387
19288W        W38822   7.930  11.347   4.954 -0.1480  0.0314  0.3168
19289W        W38823  11.385   9.917   4.868  0.2110 -0.0138  0.1090
19290W        W38824   1.685  16.895  12.946  0.5042 -0.1973 -0.1354
19291W        W38825   1.319  11.787  12.135  0.1668 -0.0606  0.0271
19292W        W38826  17.323  13.905   3.111 -0.0335  0.0868 -0.0081
19293W        W38827   0.865   8.069  14.996  0.0196  0.0318  0.0303
19294W        W38828   6.277   7.605   4.647 -0.2178  0.2085 -0.2105
19295W        W38829  14.671   1.141  15.671  0.1079  0.1685  0.2639
19296W        W38830   5.186   0.207  15.016 -0.1081 -0.0223 -0.0566
19297W        W38831   6.819  14.578   3.356  0.1430 -0.1391  0.0079
19298W        W38832  16.565   7.849   2.777 -0.2933  0.0218 -0.0930
19299W        W38833  12.870  15.437   4.404  0.0503  0.1877 -0.1400
19300W        W38834   7.411  14.931  15.621  0.0889 -0.1819  0.0279
19301W        W38835  16.302   4.364  16.504  0.2291 -0.0989 -0.0930
19302W        W38836   3.002  14.424  15.919  0.1451 -0.2341 -0.1750
19303W        W38837  10.494   8.362   0.516 -0.0964 -0.1676 -0.1161
19304W        W38838   0.667   6.475   1.868  0.3727 -0.0713  0.0184
19305W        W38839   3.401   0.376   4.139  0.0941  0.1538 -0.1099
19306W        W38840   6.530  10.021  15.843 -0.2462  0.5043  0.1862
19307W        W38841   8.728   0.370  13.455 -0.0597  0.0646  0.0830
19308W        W38842   0.021   7.989   1.913  0.2722 -0.0799  0.3469
19309W        W38843   1.519   5.599  16.810  0.0603 -0.0985 -0.0092
19310W        W38844   6.010  17.045  15.950  0.1804 -0.2578  0.3379
19311W        W38845  14.575   4.222  15.343  0.0067  0.3385  0.1182
19312W        W38846   6.406   4.630   0.122 -0.0353 -0.3075  0.1564
19313W        W38847  14.418  15.565   3.835  0.2582  0.2908  0.2695
19314W        W38848  10.391  12.632  13.750 -0.1384  0.0217 -0.1684
19315W        W38849   0.134  16.613   2.425 -0.0741 -0.2286  0.1801
19316W        W38850   6.039  15.993   2.819  0.1036  0.0271  0.2851
19317W        W38851  15.033   8.975  14.947 -0.3950 -0.2359 -0.0116
19318W        W38852   5.775   3.161  13.998  0.0432 -0.0243 -0.0739
19319W        W38853   2.700   1.996   2.036 -0.2054 -0.3185 -0.2416
19320W        W38854  16.550   8.129   2.295  0.0623  0.1794  0.2117
19321W        W38855   1.066  15.148  16.205  0.0384 -0.0659  0.2570
19322W        W38856  15.010   5.889  15.906  0.2475  0.1289 -0.2529
19323W        W38857  10.860  10.824  12.593  0.0667  0.2097  0.2255
19324W        W38858  10.453   5.335   4.371 -0.1660 -0.1367  0.0344
19325W        W38859   3.603  14.005   0.523 -0.1830 -0.1228 -0.1843
19326W        W38860   2.683  12.015   3.307  0.2152 -0.0736 -0.0273
19327W        W38861   0.234  14.531  16.146  0.0982  0.2292 -0.1827
19328W        W38862  16.919   4.573  14.157 -0.2673 -0.1243 -0.3114
19329W        W38863  13.389   0.652  13.391  0.0542 -0.1407  0.1672
19330W        W38864  10.014   5.331   1.809 -0.3683  0.0547 -0.1560
19331W        W38865   3.113   1.030   2.844  0.0740  0.2343 -0.1214
19332W        W38866   0.511   2.211  15.451 -0.1561  0.2486 -0.1500
19333W        W38867   5.670   9.441  14.412 -0.4058 -0.1312 -0.0758
19334W        W38868   9.472   8.732  12.665 -0.3153  0.0703 -0.1305
19335W        W38869   1.544  13.130  12.167 -0.2694  0.2338  0.3489
19336W        W38870  11.176   6.882  17.183 -0.1929 -0.0038  0.1462
19337W        W38871   2.928  13.862   4.724 -0.1841  0.0200 -0.3265
19338W        W38872  16.092   1.637  13.044  0.0143  0.6159 -0.1418
19339W        W38873  13.901  14.237   0.906  0.1681 -0.2930  0.0202
19340W        W38874   2.651  11.712   1.378  0.2921 -0.3004  0.0376
19341W        W38875  14.362   4.997  13.866 -0.2076  0.2331  0.0660
19342W        W38876  15.485  10.062   2.115  0.2717  0.2781 -0.0862
19343W        W38877  15.604  11.599   1.124 -0.0854 -0.0037  0.2278
19344W        W38878   3.176   7.691  13.167  0.0374  0.1967  0.0031
19345W        W38879   2.152   9.352   4.047 -0.2244  0.2892 -0.1639
19346W        W38880  16.945  10.171  15.189  0.0752 -0.0216  0.1648
19347W        W38881   0.095  12.309   4.074 -0.2437 -0.3345  0.0049
19348W        W38882  15.662   9.637   2.339 -0.0866 -0.0185  0.1317
19349W        W38883   1.632   9.351  15.823  0.2809 -0.0196  0.1707
19350W        W38884  13.901  17.253  13.027  0.0504  0.1881 -0.1296
19351W        W38885  17.425   4.850   2.963 -0.1035  0.1401 -0.1493
19352W        W38886   8.597   9.525   4.818  0.1744  0.1513  0.0424
19353W        W38887  13.671  16.365  14.555 -0.2508 -0.2522 -0.1210
19354W        W38888   4.997   0.806   1.145  0.1048 -0.0787 -0.0034
19355W        W38889   1.305  17.041   1.015 -0.0101 -0.1673  0.0246
19356W        W38890   5.869  12.479   2.640  0.1375  0.2357 -0.2552
19357W        W38891   6.636   8.185  16.022 -0.2612  0.2368  0.1739
19358W        W38892   8.202  13.962  16.293  0.0478  0.2407  0.1915
19359W        W38893   8.829  16.131  16.278 -0.3015 -0.0341  0.0453
19360W        W38894   6.963  12.081   0.157  0.1517  0.2541  0.0199
19361W        W38895  15.333   3.550  15.263 -0.1811  0.1028 -0.1030
19362W        W38896  10.528  11.666   2.069  0.0084  0.1744 -0.0312
19363W        W38897  10.601  12.948  17.026  0.0478  0.2945 -0.0366
19364W        W38898   7.890   9.036  13.410  0.1079  0.1818  0.1864
19365W        W38899  13.992  14.932  14.155  0.1502 -0.0489 -0.0041
19366W        W38900   4.587   3.540  16.275 -0.2596  0.0883  0.1063
19367W        W38901   8.848   4.752  15.924 -0.0763  0.1455 -0.0373
19368W        W38902   0.036   1.612  17.276  0.0305 -0.4810  0.0172
19369W        W38903   7.395   2.396   0.075 -0.1954  0.0993  0.0830
19370W        W38904   0.199  13.394   2.794  0.1841  0.4200  0.0641
19371W        W38905   1.252   8.864   0.047 -0.1577 -0.0265  0.0418
19372W        W38906   2.724  16.949  10.742 -0.0398  0.0100  0.4446
19373W        W38907   5.736  16.788   3.127 -0.0087 -0.4875  0.0049
19374W        W38908  10.252   1.229  15.914  0.0000 -0.0621 -0.0888
19375W        W38909  15.998   3.491  13.744  0.0138 -0.1267  0.2003
19376W        W38910   1.109   3.977  15.408  0.1808  0.0978  0.1922
19377W        W38911   4.238  13.834  13.591 -0.2778  0.1749  0.3904
19378W        W38912   1.289   8.540   4.537 -0.0930 -0.1409 -0.1476
19379W        W38913   0.215   5.708  16.432  0.0008 -0.0050  0.0960
19380W        W38914   7.374  16.242  12.923  0.2772 -0.2412 -0.1605
19381W        W38915  17.444   6.956   1.480  0.2586  0.1688 -0.1782
19382W        W38916   8.271   4.723  16.499  0.0348  0.2303  0.1169
19383W        W38917   0.321   6.718   4.494  0.0780 -0.0005  0.1497
19384W        W38918   5.124  17.047  13.417  0.0325 -0.0860  0.1686
19385W        W38919   5.532   8.777  13.310  0.0310 -0.0875  0.1318
19386W        W38920  11.776   7.467  16.612 -0.0908 -0.2376  0.2365
19387W        W38921  10.291   6.592   0.760  0.0077  0.1378 -0.0255
19388W        W38922  16.764   3.873   4.964 -0.1074 -0.2988  0.0052
19389W        W38923  14.190   6.913  15.492 -0.1442 -0.3640  0.2389
19390W        W38924  15.361   6.690  12.620 -0.1708 -0.2555  0.1516
19391W        W38925  11.929   7.399   1.247  0.0616 -0.2710  0.1391
19392W        W38926  11.613  15.367   1.820 -0.1284  0.0633 -0.0430
19393W        W38927   2.511   7.685   4.457  0.1324  0.1208 -0.2083
19394W        W38928  17.342   8.615   3.938 -0.0918  0.0751  0.0248
19395W        W38929  16.844  15.345   2.317  0.3410  0.2613 -0.0388
19396W        W38930  15.139   6.819   2.525 -0.0702  0.2967 -0.1886
19397W        W38931  12.125  10.047  13.100 -0.2171  0.0523 -0.0171
19398W        W38932   8.336   1.696   1.871 -0.0934 -0.0235  0.0053
19399W        W38933   2.312   4.421  15.405 -0.0111  0.1065 -0.3263
19400W        W38934   4.604   8.222   3.328  0.1864 -0.1346 -0.2086
19401W        W38935   5.105   4.950  12.796 -0.2051 -0.1684 -0.2831
19402W        W38936   4.471   8.460  15.958 -0.0365  0.1911 -0.0603
19403W        W38937  12.371   8.804  16.094  0.0374  0.0122  0.2450
19404W        W38938   2.514   6.103  14.702  0.1009  0.3541 -0.0218
19405W        W38939   0.057   4.457   2.568 -0.1455  0.1115 -0.1322
19406W        W38940   9.644  15.009   3.343 -0.0867  0.0698 -0.2892
19407W        W38941  14.082  14.650   1.823 -0.0021 -0.2284  0.0583
19408W        W38942   3.367  13.345   4.126 -0.0768  0.0996 -0.0739
19409W        W38943   7.051  10.246  13.590 -0.4277 -0.3408 -0.0326
19410W        W38944   7.049  12.064   2.813 -0.0715 -0.0943  0.2095
19411W        W38945  17.300  13.373  14.907  0.0302 -0.0196  0.4419
19412W        W38946  15.239   0.362  15.492  0.1732 -0.0298  0.0128
19413W        W38947   6.532   8.962   4.785  0.1220 -0.0867  0.1102
19414W        W38948  10.564  16.743   4.263  0.1112  0.3919  0.3725
19415W        W38949   5.864   3.289   4.936 -0.2326 -0.0753 -0.1729
19416W        W38950  13.768   6.792   3.722  0.0502 -0.1738 -0.2408
19417W        W38951   5.984   4.659   3.190 -0.2046 -0.2560  0.0380
19418W        W38952   5.829   4.205   3.999  0.0518 -0.2185 -0.1758
19419W        W38953   3.965   0.303   0.595 -0.0373  0.0944 -0.2170
19420W        W38954   7.867  10.585   3.595  0.0991 -0.2059  0.1095
19421W        W38955  15.026   2.208   0.877  0.2197  0.1110 -0.0874
19422W        W38956   6.544  17.425   3.140 -0.2474  0.1391 -0.0551
19423W        W38957   2.030  17.428   1.008 -0.0139  0.1294  0.2629
19424W        W38958  11.083  16.555   2.251 -0.0521 -0.0847  0.0978
19425W        W38959   1.972   6.516   2.411  0.2114  0.2751  0.0313
19426W        W38960   5.969   6.292  11.852  0.0135  0.1151  0.0898
19427W        W38961  17.357  16.820  15.667  0.2746  0.2499 -0.2513
19428W        W38962   2.329   6.963   3.398  0.1185 -0.0247  0.0229
19429W        W38963  11.869   9.208  13.218 -0.3386  0.1823  0.1302
19430W        W38964  14.974   2.134   3.958 -0.2586 -0.1192  0.0021
19431W        W38965   0.019   2.736  14.640 -0.1399 -0.2324  0.1479
19432W        W38966   1.195  14.155  13.323 -0.2134  0.1044 -0.2187
19433W        W38967  15.880   3.211  17.156  0.0359 -0.0021 -0.3969
19434W        W38968   9.973   7.507   2.036  0.2768 -0.0664  0.3235
19435W        W38969   4.868   3.773   3.950  0.2058 -0.0435 -0.2836
19436W        W38970   7.562  14.086  13.142  0.1908 -0.0147 -0.2078
19437W        W38971   6.124  16.525   2.880  0.3217 -0.0104 -0.1023
19438W        W38972   0.184   1.371  13.914 -0.0332  0.3957 -0.1729
19439W        W38973  13.103  13.407  14.605 -0.2469 -0.2389  0.0571
19440W        W38974   9.725  14.861  13.774 -0.2786  0.1441 -0.0353
19441W        W38975  11.824   3.844  13.171 -0.3012  0.1220 -0.0004
19442W        W38976  11.129   2.269   1.861  0.1317  0.0591  0.0288
19443W        W38977  14.970  10.269  16.599  0.1533  0.0362 -0.2236
19444W        W38978  11.747   6.502   4.835  0.0834 -0.3430  0.0177
19445W        W38979   4.389   2.471   0.363 -0.2764 -0.1156 -0.0467
19446W        W38980   0.323   4.585  16.699  0.0847 -0.1730  0.0663
19447W        W38981   6.529  14.352   3.740  0.1344 -0.0281  0.0168
19448W        W38982   5.054  15.656  13.830  0.0449 -0.3346 -0.1845
19449W        W38983  14.981   4.593  15.410 -0.1495  0.0314 -0.2461
19450W        W38984  17.386  12.996   2.723 -0.2230 -0.2257  0.1171
19451W        W38985   9.973   0.689  13.371 -0.1837  0.2820  0.1162
19452W        W38986  15.752  13.686  16.456  0.1654  0.0952  0.2571
19453W        W38987   7.218  16.071   3.757  0.2745  0.2646 -0.1019
19454W        W38988   9.300  11.111   3.347  0.1779 -0.0038  0.1087
19455W        W38989  13.285   5.529   1.735 -0.2882 -0.0164 -0.1825
19456W        W38990   9.871   4.436  16.191  0.1740  0.1518 -0.0112
19457W        W38991  12.979  14.716  17.280  0.0155 -0.1282 -0.0196
19458W        W38992   8.210   1.402  16.056 -0.0564 -0.0542 -0.1688
19459W        W38993   3.042   5.237   4.004 -0.0122  0.3360  0.1825
19460W        W38994  10.216  16.029   4.996 -0.1812 -0.0110  0.1930
19461W        W38995   3.183   1.250  16.793  0.3932 -0.2416  0.1288
19462W        W38996   8.082  16.608  16.064 -0.2656  0.0878  0.1701
19463W        W38997   8.493   4.780   5.213 -0.1847  0.2961  0.0049
19464W        W38998   1.819   2.724   2.010  0.3845  0.1283 -0.2976
19465W        W38999  15.339  16.862  14.877  0.3446 -0.2584 -0.0762
19466W        W39000  11.480  15.679   0.482 -0.2051  0.1607  0.1672
19467W        W39001  10.119   9.073   0.062 -0.0951  0.1286 -0.0027
19468W        W39002  10.481  10.724  14.237  0.4357  0.0845 -0.1397
19469W        W39003   2.137   5.084   4.732 -0.2275  0.0290 -0.1337
19470W        W39004   9.059  15.939  16.684 -0.2080 -0.1136  0.2949
19471W        W39005   9.717  17.053   3.792  0.1201 -0.0141 -0.2706
19472W        W39006  13.454   5.148  16.148  0.2189  0.2024  0.2224
19473W        W39007   8.449   9.502  15.320 -0.1473  0.1903  0.1000
19474W        W39008  15.928  11.198   4.994 -0.0436 -0.0125 -0.0428
19475W        W39009  17.468   3.958   2.392  0.0602  0.2097 -0.5024
19476W        W39010   5.039  12.416   5.131 -0.1083  0.0543 -0.1805
19477W        W39011  14.471   4.870   3.793  0.1551 -0.0162  0.1156
19478W        W39012  12.304  11.335  14.442  0.2667 -0.0327  0.2041
19479W        W39013   1.489  16.994   4.120  0.1433 -0.1523  0.0036
19480W        W39014   6.176   2.774   3.199  0.2105  0.0546 -0.2280
19481W        W39015  16.876  10.943   4.393  0.0545  0.1701  0.1653
19482W        W39016   2.676   5.274   4.277  0.2888  0.2132 -0.0926
19483W        W39017  13.597  13.016  15.736  0.1518 -0.0650 -0.0170
19484W        W39018  13.210   8.977  15.978 -0.3839  0.0586  0.2321
19485W        W39019  14.371  16.585   3.548 -0.0617  0.1435  0.0084
19486W        W39020   5.695   1.616   2.514  0.0348  0.2559 -0.2290
19487W        W39021   0.796   3.674   6.052  0.0311  0.0599  0.0993
19488W        W39022   0.948   8.567  16.511  0.1252 -0.1778 -0.0753
19489W        W39023  13.934  10.205   0.536  0.2627  0.1226  0.3025
19490W        W39024   7.488   3.814  13.222  0.2671 -0.1666 -0.1899
19491W        W39025   3.589   6.095  16.834 -0.3331  0.0155 -0.0223
19492W        W39026   8.202   9.413  13.682  0.2116 -0.0027 -0.1674
19493W        W39027   7.206  11.776   0.784 -0.1640  0.4625 -0.0168
19494W        W39028   0.212  13.652  14.701  0.1675  0.0683  0.0728
19495W        W39029  16.534   0.796  16.058 -0.0943 -0.0162 -0.0901
19496W        W39030   3.590   9.512  15.017  0.1466  0.2908 -0.1965
19497W        W39031   1.559  10.324  15.928  0.0807 -0.1728  0.2405
19498W        W39032   1.302   2.859   3.699 -0.2821 -0.0985 -0.2139
19499W        W39033   9.787   2.189   4.743  0.0218 -0.2465 -0.0115
19500W        W39034  12.776  12.393  13.293 -0.0396  0.0928 -0.2162
19501W        W39035  14.786  13.271   0.085  0.0145 -0.0897  0.0134
19502W        W39036  12.245   9.824  15.749  0.0648  0.1666 -0.3349
19503W        W39037  12.785  17.196  14.123  0.3027  0.0380  0.1651
19504W        W39038  16.843  13.954  16.241 -0.1712 -0.1673  0.0764
19505W        W39039  11.464  15.044   3.191  0.2115 -0.2869  0.2436
19506W        W39040  16.360   2.518  17.064 -0.2285  0.1076 -0.0569
19507W        W39041  13.311   2.679   4.354  0.0926 -0.1260 -0.0397
19508W        W39042   3.971  16.827   4.814  0.0461  0.2634  0.2160
19509W        W39043  16.813  10.366  12.587  0.2401 -0.1489 -0.0786
19510W        W39044  15.797  16.836  14.581 -0.1416  0.0913 -0.3349
19511W        W39045   5.804   2.467  13.217  0.1394 -0.0478  0.0885
19512W        W39046   2.933   5.200   0.507  0.1399  0.1751 -0.2508
19513W        W39047  16.120   8.169   3.546  0.2573  0.1051  0.1470
19514W        W39048   3.076  11.030  15.242 -0.0997 -0.1551 -0.0053
19515W        W39049   7.532  10.572  17.271 -0.2689 -0.3037  0.1224
19516W        W39050   6.685   5.746  14.480 -0.0404 -0.2873  0.0250
19517W        W39051   8.337   8.994  14.057 -0.1604  0.0529  0.0241
19518W        W39052   6.602  12.256  13.669 -0.3311 -0.3204 -0.2586
19519W        W39053   7.482   2.487  13.305 -0.2939  0.1062  0.1268
19520W        W39054  12.968   9.387  14.720  0.0109  0.1844 -0.4160
19521W        W39055   5.484   4.691  12.559  0.1647  0.2439  0.1378
19522W        W39056  15.726   8.386  16.993 -0.1945 -0.0677 -0.1871
19523W        W39057   2.500  11.618   2.718  0.0605  0.1946  0.1064
19524W        W39058   4.461  12.098   4.150  0.1094  0.1865 -0.2152
19525W        W39059  12.812  12.542   0.283 -0.0901  0.2436  0.1738
19526W        W39060  10.224   5.268   5.349  0.1524 -0.1834 -0.2641
19527W        W39061   7.430  15.285  16.024 -0.4277 -0.0270 -0.0388
19528W        W39062   1.105  16.134   5.257 -0.0258  0.1210  0.1335
19529W        W39063   2.110  13.953   1.456 -0.0837  0.0421 -0.1383
19530W        W39064   8.936   8.868   3.882 -0.2652  0.0069  0.1473
19531W        W39065  11.728  12.513  17.061  0.2591  0.1632  0.0066
19532W        W39066   1.902   8.698   2.936  0.0425 -0.2308 -0.1587
19533W        W39067   7.627  15.773  13.155 -0.4538  0.0248 -0.0767
19534W        W39068   2.518   6.805  15.611  0.1034 -0.0486  0.0459
19535W        W39069   8.117   3.552   4.479 -0.2725 -0.0245 -0.0915
19536W        W39070  14.119   1.659   0.102  0.0526  0.0726 -0.1290
19537W        W39071  12.867  12.041   0.496  0.0220 -0.0355  0.0931
19538W        W39072  11.668  12.459   0.815  0.0237  0.1164 -0.3346
19539W        W39073  14.537   7.975   0.855  0.2583  0.0727  0.0826
19540W        W39074  11.993   3.781  14.860  0.1254  0.2769  0.1197
19541W        W39075   0.429  12.986  16.319  0.1703  0.0644 -0.2404
19542W        W39076  15.921   0.041  13.848 -0.0996 -0.0290  0.0619
19543W        W39077  15.003   6.812   4.849  0.5365 -0.1408  0.1888
19544W        W39078   6.019   1.764  14.388  0.2434  0.3628 -0.2163
19545W        W39079   5.417   3.101  15.180  0.1660 -0.1158  0.3003
19546W        W39080  12.377  11.725  15.673 -0.1795  0.0013  0.2973
19547W        W39081  13.031   4.563   3.610 -0.1761  0.0144  0.0743
19548W        W39082  12.687  11.230  13.044 -0.0209  0.0359  0.2181
19549W        W39083  13.121   5.572   3.567 -0.1111  0.2486 -0.0294
19550W        W39084  11.193  15.452  14.565  0.1707  0.1885  0.2143
19551W        W39085   2.007   8.724  13.308 -0.4324 -0.0681  0.1779
19552W        W39086   2.259   4.201   1.636  0.1108  0.0457 -0.3917
19553W        W39087  15.510   8.999   3.180 -0.2474 -0.0305  0.2490
19554W        W39088  14.045   6.273   1.523 -0.2198  0.0838  0.2396
19555W        W39089   3.668   5.278   2.335  0.0063 -0.2085 -0.2298
19556W        W39090   1.259  13.201   5.241  0.3659  0.0099 -0.1096
19557W        W39091   8.668   7.160  16.698  0.0963 -0.1759  0.0942
19558W        W39092  13.603  10.457   1.232 -0.0251  0.3446  0.2115
19559W        W39093  10.313  10.362   3.189 -0.4327 -0.1474  0.1983
19560W        W39094  15.499   0.211  17.026  0.0587 -0.0856  0.1830
19561W        W39095   3.019  16.758   3.084  0.1295  0.0397  0.3607
19562W        W39096  10.186   9.975  15.751 -0.1655 -0.1449  0.2281
19563W        W39097  13.854   5.695   0.877 -0.0046 -0.1170  0.2815
19564W        W39098   2.090   8.277   3.369 -0.2402 -0.1434 -0.0896
19565W        W39099  14.206   8.481   1.726 -0.1292 -0.0577  0.1211
19566W        W39100   5.497  11.799  14.267 -0.4162 -0.1397  0.2367
19567W        W39101  15.754  16.485   0.153 -0.0801 -0.0898 -0.1080
19568W        W39102   9.020  16.519  16.730  0.3136  0.2724  0.1667
19569W        W39103  16.505   5.287   2.126 -0.2135 -0.0028  0.1525
19570W        W39104   0.778   6.524  13.855  0.2771  0.0216 -0.1642
19571W        W39105   1.410   4.612  15.934  0.1332 -0.0773  0.0792
19572W        W39106  17.149   9.629  15.947  0.0596 -0.0116 -0.0511
19573W        W39107   9.763   1.604   3.125 -0.1043  0.1568 -0.1993
19574W        W39108  16.326  11.039  12.974 -0.1379  0.1256 -0.2554
19575W        W39109  11.549   7.879   2.849 -0.1505  0.1045 -0.1689
19576W        W39110  10.038   8.994  16.839 -0.3917  0.0627  0.2174
19577W        W39111  16.927  11.880   4.737  0.1053 -0.0365  0.1744
19578W        W39112   9.105   2.978  13.570  0.0143  0.1819 -0.2408
19579W        W39113   5.682   6.027   4.242  0.1077  0.0612  0.4161
19580W        W39114   2.603  12.363  13.774 -0.3215  0.2132 -0.1393
19581W        W39115  17.067  10.680  14.991  0.1209  0.3090 -0.2785
19582W        W39116  12.041   0.697  13.094 -0.0425  0.3478 -0.0223
19583W        W39117  15.046  15.693   4.646 -0.0684  0.4732 -0.4319
19584W        W39118   5.334  13.375   5.068  0.0833 -0.4066  0.0712
19585W        W39119  14.856  16.825  14.948  0.0749 -0.1184  0.2038
19586W        W39120   1.795   5.102   3.798  0.0916  0.1056 -0.1271
19587W        W39121   2.596   8.228   0.896  0.0767  0.0814 -0.0576
19588W        W39122   9.795   8.123   4.294  0.1811  0.0156  0.0026
19589W        W39123  15.100   0.133   2.303  0.1792  0.0628 -0.0184
19590W        W39124   6.981  15.112   3.339  0.0908  0.2442  0.0236
19591W        W39125   1.369   1.145  14.098  0.0976 -0.2931 -0.0022
19592W        W39126  10.829   7.937  16.643  0.2087  0.2543 -0.2604
19593W        W39127  16.456   5.793  13.797  0.4143  0.2030 -0.0437
19594W        W39128   8.230   6.523   5.296 -0.2026 -0.2099  0.0895
19595W        W39129   5.761  12.901  15.228 -0.3107  0.2878 -0.4020
19596W        W39130   4.970  12.379   2.529 -0.2365 -0.0259 -0.0027
19597W        W39131   8.951   7.271  16.002 -0.0589 -0.0846 -0.0825
19598W        W39132  17.118  10.731  12.465  0.0535 -0.5459  0.0080
19599W        W39133   8.425   9.891  14.993 -0.0713 -0.0641  0.2690
19600W        W39134  15.006  12.249  14.543 -0.0798  0.1526 -0.1995
19601W        W39135   0.859  15.482  11.876 -0.1548 -0.0300 -0.1925
19602W        W39136  12.257  11.041   0.692 -0.0549 -0.1067  0.0546
19603W        W39137   0.642   1.619  12.371 -0.0130 -0.1059 -0.2004
19604W        W39138  13.740   7.545  17.009  0.5864  0.0341  0.4497
19605W        W39139   0.178   5.354  13.379 -0.1483  0.1163  0.1900
19606W        W39140   4.198  15.582   2.178  0.0722  0.1250 -0.0281
19607W        W39141   6.845  10.261  15.554  0.1531 -0.0186  0.0195
19608W        W39142   9.596  14.233   3.712 -0.2274 -0.0415  0.1103
19609W        W39143   2.015  14.733   4.567  0.2546  0.3230  0.2426
19610W        W39144  10.925   2.158  16.113 -0.0798 -0.0123 -0.1218
19611W        W39145   5.001  11.376   2.545 -0.0943  0.0585  0.0399
19612W        W39146   1.607   1.817  14.091  0.2120 -0.0083  0.0248
19613W        W39147   5.941   8.788  14.754 -0.2275  0.1614 -0.0791
19614W        W39148  14.676   8.508   1.848  0.2529 -0.0075 -0.0016
19615W        W39149   0.929  13.040   1.743  0.1337  0.2087  0.0471
19616W        W39150   0.686  10.073   0.723  0.1910 -0.1648  0.0205
19617W        W39151  12.291  11.270   3.096  0.1730 -0.1487  0.0082
19618W        W39152   1.939  13.780   0.675  0.3687 -0.0286  0.2730
19619W        W39153   0.955   5.286   0.769 -0.0132 -0.0366  0.1843
19620W        W39154   2.460  10.508  16.601  0.1846 -0.4463  0.0742
19621W        W39155   6.639   7.935  13.584 -0.2807  0.1721 -0.0557
19622W        W39156   1.170   0.521  12.055  0.1734 -0.4481  0.0505
19623W        W39157  11.969   7.067   2.596 -0.0700  0.0441 -0.0238
19624W        W39158   8.476  11.821   1.091 -0.0337 -0.0131 -0.0008
19625W        W39159   8.488   8.499   2.924  0.0543 -0.0126 -0.2477
19626W        W39160   2.953   6.264   4.054 -0.5229 -0.0003  0.0488
19627W        W39161  11.286  11.374  11.248  0.1830  0.0523 -0.2072
19628W        W39162   7.922   5.576  16.772  0.3340  0.2495 -0.0456
19629W        W39163  17.367  15.282   2.176  0.3206  0.0328 -0.0271
19630W        W39164   4.254   9.470   2.012  0.0431 -0.1421  0.0472
19631W        W39165  16.867  14.386  17.268  0.2396  0.2363  0.0296
19632W        W39166  11.991  12.773   1.092  0.0161 -0.1854  0.3595
19633W        W39167  14.756  15.135  16.597 -0.0633  0.2203  0.1039
19634W        W39168  13.773  16.627  15.297  0.0187  0.0728  0.0579
19635W        W39169  16.873  15.226  12.421 -0.4941 -0.1432 -0.2120
19636W        W39170   7.293  12.204   4.511 -0.0679  0.3635  0.0819
19637W        W39171  13.647   6.757   0.207 -0.1625 -0.1139 -0.1174
19638W        W39172  15.623  15.950   3.283  0.1520  0.0236  0.0962
19639W        W39173  11.277  11.155   0.609 -0.1314  0.0494  0.4254
19640W        W39174   0.488  15.079  15.504  0.0700  0.1808 -0.0546
19641W        W39175   9.818   6.924   0.554  0.1530 -0.1377 -0.0049
19642W        W39176   8.134   9.776  13.345 -0.0100 -0.0601  0.0509
19643W        W39177  10.586   5.399  14.517  0.2883  0.1381  0.2107
19644W        W39178  15.413   0.206   0.790 -0.1738 -0.1118 -0.0730
19645W        W39179   9.107   7.452  16.617  0.1899  0.1341 -0.0440
19646W        W39180  11.425   3.169   3.507  0.0702  0.0244  0.0283
19647W        W39181   3.172  12.644   2.356 -0.0464 -0.2854 -0.1469
19648W        W39182  10.291  12.158   2.767 -0.0041  0.3694 -0.1123
19649W        W39183  17.387   2.928  12.863  0.3696 -0.1885 -0.0813
19650W        W39184   8.558  15.340   2.465 -0.0935  0.1365 -0.0783
19651W        W39185   9.677   2.981  13.478  0.3939  0.1560 -0.1056
19652W        W39186  11.056  14.984  16.367 -0.1051 -0.2125 -0.0800
19653W        W39187   1.706   3.712  16.710  0.2971  0.0654 -0.0310
19654W        W39188   0.690   6.252   3.922 -0.1712 -0.1075 -0.0338
19655W        W39189   7.991   5.832   4.693  0.1416  0.0565  0.0497
19656W        W39190  11.639   8.719  12.581  0.2542  0.1934  0.0655
19657W        W39191   8.228   3.024   4.411  0.1351  0.1801  0.4838
19658W        W39192   7.459  13.023   3.453 -0.0653  0.0279  0.3275
19659W        W39193   8.363   1.907   5.040  0.0010  0.2206  0.1191
19660W        W39194  13.460  15.518   2.223  0.1900  0.2575 -0.1134
19661W        W39195   5.141   8.790  14.456  0.1333 -0.0127  0.0161
19662W        W39196   5.584   4.206   4.958  0.1414 -0.0189  0.0230
19663W        W39197   0.056   6.083  17.004 -0.0044  0.3407 -0.1470
19664W        W39198   1.044   0.986   1.811  0.1656  0.1494  0.1275
19665W        W39199  14.985  16.346  13.938  0.0958  0.0649 -0.1163
19666W        W39200   2.064   4.820   0.490 -0.0161 -0.0172  0.0317
19667W        W39201   5.328  15.011   1.096  0.2615  0.0608  0.1719
19668W        W39202   9.220   4.722  14.587 -0.0240  0.1521  0.4345
19669W        W39203  15.121   1.682   0.987  0.0660  0.1162  0.1403
19670W        W39204   0.334  14.656   2.523 -0.2043 -0.0500 -0.2191
19671W        W39205   0.916  16.884   3.268  0.2976  0.3331 -0.2093
19672W        W39206   0.043   0.730   3.099  0.0945 -0.1485  0.0355
19673W        W39207   0.021   1.581   4.270 -0.0810 -0.0069  0.0048
19674W        W39208   9.881   2.787   0.892 -0.1780 -0.2339 -0.0552
19675W        W39209  15.852   2.132   1.683 -0.0974  0.1129 -0.1916
19676W        W39210   3.417  14.464  15.592  0.2834 -0.0375  0.0591
19677W        W39211   4.187   8.876   1.451 -0.2491 -0.3234  0.3793
19678W        W39212   1.914   8.914   1.156 -0.1646  0.1046 -0.1910
19679W        W39213  13.810  12.047   4.806  0.2906 -0.0683  0.0085
19680W        W39214  15.761  16.324   2.351  0.3193  0.1387  0.2019
19681W        W39215   6.433   6.690   2.772  0.1247 -0.2502  0.3476
19682W        W39216  10.712   7.203   1.040  0.0976  0.0457 -0.0950
19683W        W39217  16.424   8.404  14.339 -0.1518  0.1156  0.0283
19684W        W39218   5.139   4.193   2.265  0.0773  0.2794 -0.0761
19685W        W39219   6.787   4.134   1.180 -0.0411  0.0068 -0.0324
19686W        W39220  11.462  10.529  13.604  0.0861 -0.0785 -0.2328
19687W        W39221   9.920  16.681   0.237  0.2724  0.1745  0.1363
19688W        W39222   1.646   6.533   4.083 -0.0873 -0.1564 -0.0763
19689W        W39223   2.513  10.714   3.909 -0.0048  0.2304  0.1165
19690W        W39224   3.161  17.090   2.750 -0.0255  0.3036  0.0656
19691W        W39225  14.168  14.424  14.633  0.1057  0.3339  0.0670
19692W        W39226  16.197  16.276   0.239  0.1131 -0.1145 -0.1372
19693W        W39227  15.419  11.613  15.445 -0.0202 -0.0218  0.0827
19694W        W39228  15.146   8.878  16.946  0.1361  0.1090  0.3153
19695W        W39229  13.991   1.904  15.714  0.0109  0.1410  0.0273
19696W        W39230   7.307   3.266   2.780  0.3237 -0.1901 -0.0791
19697W        W39231   9.164   6.486  17.270  0.0519 -0.1801  0.0748
19698W        W39232   2.866   2.462   0.682 -0.0732 -0.0113 -0.0413
19699W        W39233  16.709  12.606  16.673  0.2262 -0.1129 -0.1970
19700W        W39234   7.717  13.169   3.032 -0.0672 -0.0152 -0.1540
19701W        W39235   5.968   7.745  12.400  0.3770 -0.0834  0.1982
19702W        W39236  15.103   9.459   0.634 -0.1739  0.1831 -0.2410
19703W        W39237  17.050   9.798  12.007 -0.0122  0.0797 -0.1597
19704W        W39238   5.003  14.070  13.914  0.0461 -0.2726 -0.0377
19705W        W39239   6.922  10.234   0.639  0.0132 -0.3079 -0.2463
19706W        W39240   5.809   7.861   1.586 -0.1441 -0.0954  0.1890
19707W        W39241   7.854   9.817   3.956 -0.0544  0.0678  0.0244
19708W        W39242  11.916   7.387  12.689  0.1333  0.0526  0.3386
19709W        W39243  14.528  10.478   0.617 -0.2267 -0.1239 -0.1009
19710W        W39244   6.604  16.217  17.172  0.1928 -0.2309  0.4229
19711W        W39245   6.983  15.429   0.261 -0.2705 -0.3483  0.1365
19712W        W39246   3.336   9.120  16.873  0.1999 -0.1613  0.1023
19713W        W39247   8.413  10.195  13.347  0.0211 -0.1497 -0.2391
19714W        W39248  13.284  13.348   0.080  0.1890  0.0387  0.1020
19715W        W39249  13.917   8.478   0.007 -0.1962 -0.0796  0.1199
19716W        W39250   2.239  15.427   1.493  0.1009  0.0557  0.0203
19717W        W39251  16.430   1.167  15.706  0.1554 -0.1459  0.1426
19718W        W39252   5.166  14.311  15.696 -0.0004  0.1989  0.1300
19719W        W39253  11.413   1.855   3.909  0.0803  0.0035  0.0426
19720W        W39254  13.367   1.894  14.907 -0.1462  0.2230  0.0096
19721W        W39255   5.616   2.898   2.404  0.2355  0.0495 -0.1234
19722W        W39256  15.556   4.068   0.057 -0.2940 -0.1400 -0.0768
19723W        W39257   5.957  11.184  15.260  0.1544  0.2140  0.0473
19724W        W39258  17.329  16.669   0.371 -0.1259  0.0128  0.1948
19725W        W39259  13.002   5.885  14.118 -0.0363  0.0559  0.1261
19726W        W39260   8.617   5.353   5.130 -0.1329 -0.0113 -0.1381
19727W        W39261   0.547  12.595  12.903 -0.1556 -0.0660  0.0241
19728W        W39262   4.687  14.894   0.645  0.1080  0.0509 -0.1154
19729W        W39263   9.257   4.937   5.706  0.1796 -0.1509 -0.1793
19730W        W39264   7.214   9.211   1.138  0.1227  0.2197  0.0558
19731W        W39265   9.130  14.367  14.751  0.1333 -0.2208 -0.0635
19732W        W39266   1.170  14.672  12.781  0.0960  0.1384 -0.2297
19733W        W39267   1.709   4.894   1.055  0.0987 -0.0546  0.0365
19734W        W39268   2.319   2.984   2.434  0.0085  0.0571  0.2548
19735W        W39269   3.828   9.923   5.029  0.3701  0.3537 -0.1895
19736W        W39270   9.968   9.854  14.949 -0.1029  0.0225 -0.0761
19737W        W39271  10.962   0.259   1.216 -0.0841  0.0988  0.0112
19738W        W39272   1.078  13.317   2.806 -0.1309  0.1341 -0.0968
19739W        W39273   8.480   5.600  15.747 -0.1224  0.1149  0.3792
19740W        W39274   1.165   6.720   4.046 -0.2180  0.1256  0.2261
19741W        W39275   6.079   4.263  16.638  0.2722 -0.3395  0.2425
19742W        W39276  10.920  14.800  14.216 -0.1146 -0.2068 -0.0355
19743W        W39277   6.865   6.641  16.825 -0.1051 -0.1846  0.0385
19744W        W39278  14.070   6.457  13.397 -0.3589 -0.0752  0.0044
19745W        W39279   2.784  12.451   3.119  0.0021 -0.0762 -0.1949
19746W        W39280   4.549  10.643   2.824 -0.0540  0.0166 -0.0252
19747W        W39281  13.184   8.334  15.502  0.2222  0.2045 -0.1416
19748W        W39282  11.152   5.824  15.687 -0.1672 -0.1326 -0.1493
19749W        W39283  14.745  16.508   2.822  0.0389  0.0651  0.0916
19750W        W39284  11.630   0.291   2.452 -0.0117  0.1566 -0.5188
19751W        W39285  12.764   2.010   4.289 -0.2159  0.0451 -0.2646
19752W        W39286  10.436  11.705  14.865  0.1925  0.4650 -0.2700
19753W        W39287  15.729   4.497   0.555 -0.0456 -0.1182 -0.2958
19754W        W39288  12.411   7.128   1.521  0.3600 -0.1243 -0.0098
19755W        W39289  17.274   5.385  14.315  0.4894  0.2304 -0.1086
19756W        W39290  15.574   4.485  13.121  0.1421  0.0261  0.0638
19757W        W39291   9.421  12.428   5.430 -0.1864  0.4101  0.1430
19758W        W39292  13.933  15.404  12.792 -0.1518 -0.0287 -0.2453
19759W        W39293  15.885   2.489   4.899  0.0661 -0.0364  0.0837
19760W        W39294  14.337  13.663   4.064  0.0496 -0.1251  0.1664
19761W        W39295  13.168  16.858  15.149  0.1441 -0.0235 -0.2206
19762W        W39296  13.227   7.075  13.496 -0.0074 -0.1093  0.0719
19763W        W39297   1.526  10.205   1.878  0.0265 -0.1345  0.0096
19764W        W39298   9.732   0.706  14.681 -0.2670  0.0894 -0.0702
19765W        W39299   4.017   5.778   0.812  0.0317 -0.1520  0.1999
19766W        W39300   1.079  12.227   0.699  0.0397 -0.1882 -0.0554
19767W        W39301   7.062  16.066   3.032  0.1333  0.0444 -0.0074
19768W        W39302   9.755  11.844   1.547 -0.1180 -0.0061 -0.0584
19769W        W39303   3.982   9.456   0.664  0.1381  0.2060 -0.0037
19770W        W39304  16.183   7.073   2.394  0.2158 -0.1452  0.1850
19771W        W39305   7.378  10.167  13.103  0.0102  0.0008 -0.1087
19772W        W39306   5.116   0.193  13.382 -0.1214  0.0458 -0.1677
19773W        W39307  15.396   1.171   2.375  0.1383 -0.0696  0.2095
19774W        W39308  14.912   8.702   3.622 -0.0970  0.1367  0.0905
19775W        W39309   0.174  15.052   0.876 -0.1939  0.1207 -0.3690
19776W        W39310   2.381  15.976  14.815 -0.1803 -0.1950  0.0297
19777W        W39311   2.367   7.728  15.910 -0.3182  0.0258  0.0494
19778W        W39312  14.029  10.177  16.998 -0.3417 -0.0453 -0.5359
19779W        W39313   2.066  13.095   4.132 -0.0010  0.1984  0.1508
19780W        W39314   2.251  10.424  12.638 -0.1694  0.2061 -0.0007
19781W        W39315   2.845  15.479   3.077  0.1674 -0.0981 -0.3067
19782W        W39316   2.637   3.824   4.547  0.4920  0.0013  0.0266
19783W        W39317   4.852   7.541   2.113  0.2478  0.3536 -0.2817
19784W        W39318   4.565   2.699  13.812  0.0236 -0.0512  0.0374
19785W        W39319   4.906   3.784   3.085 -0.3493 -0.0787  0.0915
19786W        W39320  16.217   7.479  16.287  0.1208 -0.2988 -0.2171
19787W        W39321  12.057  11.106   5.223  0.1948  0.0978 -0.0996
19788W        W39322   9.208  15.608   3.001  0.0087  0.1116  0.1099
19789W        W39323   0.014   0.154   3.930  0.0582 -0.4633 -0.1142
19790W        W39324  10.254  13.005   0.068 -0.2905  0.2555 -0.0261
19791W        W39325  13.215   3.201  12.334  0.0186  0.4102 -0.0835
19792W        W39326  15.291   2.056   3.529  0.1422 -0.0981  0.2922
19793W        W39327  16.025   9.800  14.313 -0.1815  0.0452  0.1715
19794W        W39328  12.653  11.652   3.808  0.1614 -0.1592 -0.1979
19795W        W39329   8.632  15.869  15.641 -0.0671  0.1337 -0.0660
19796W        W39330   5.563  16.994  12.524 -0.0234 -0.2112  0.2677
19797W        W39331  15.314   3.943  14.924 -0.3098  0.0918  0.2128
19798W        W39332   3.518   5.494  13.190 -0.1731  0.0232  0.1991
19799W        W39333   6.702   1.638  12.371  0.2416 -0.1723 -0.1255
19800W        W39334   9.305  14.401   0.460  0.2120  0.1277 -0.0972
19801W        W39335   7.844  12.365  13.745 -0.1453  0.1804  0.2285
19802W        W39336  13.632  12.213  15.311 -0.0053 -0.3022  0.2384
19803W        W39337  10.021   5.154  12.707  0.1019 -0.2369  0.0105
19804W        W39338   5.262  16.837  15.335  0.0772 -0.4019 -0.2593
19805W        W39339   3.530  10.743   0.734 -0.0824 -0.2885  0.0850
19806W        W39340  13.138   3.797  15.746 -0.1511  0.1193 -0.0131
19807W        W39341  11.208  12.672  13.904 -0.2921 -0.0532  0.1322
19808W        W39342  15.816   7.608   5.174 -0.1381  0.0909  0.2004
19809W        W39343  10.546   2.560   2.427 -0.1397  0.0034 -0.0808
19810W        W39344   8.815  14.692   4.986  0.2135 -0.0787  0.1449
19811W        W39345  12.032   0.038  14.375 -0.0725  0.0017  0.1074
19812W        W39346  16.911   2.860   1.686 -0.0062  0.1612  0.0680
19813W        W39347   8.430  10.985   2.278  0.0634  0.1521  0.1641
19814W        W39348   0.624  14.844   1.620  0.1217 -0.0281  0.0107
19815W        W39349   7.522   7.333   0.801  0.1362  0.0505 -0.2320
19816W        W39350   5.431  10.429   1.621  0.3403 -0.2344  0.3068
19817W        W39351   1.517   0.093  13.931  0.0147  0.0839  0.3778
19818W        W39352   6.834   9.880   2.382  0.0423 -0.1666  0.0138
19819W        W39353  15.388   3.345   3.061 -0.0751  0.1676 -0.1880
19820W        W39354  13.565   8.846  16.916 -0.0727  0.0956 -0.0302
19821W        W39355  15.221  17.260  16.768 -0.4281 -0.2819  0.3072
19822W        W39356  17.180  12.404  15.922  0.2668  0.0347 -0.0970
19823W        W39357  13.223   1.335  15.588  0.0919  0.0797  0.1386
19824W        W39358  11.059  13.353   2.514 -0.0134  0.0022  0.0845
19825W        W39359   1.223  16.633  15.082 -0.1160 -0.1669  0.1316
19826W        W39360  16.126   4.502  13.849  0.0425 -0.1091 -0.0482
19827W        W39361  12.877   6.566  13.628 -0.3411 -0.2127 -0.1140
19828W        W39362  12.719   4.825  14.482 -0.1446 -0.0878 -0.1404
19829W        W39363   2.915  12.131   0.342 -0.2284 -0.0903 -0.0511
19830W        W39364   5.703   3.278  13.555 -0.2697  0.2199  0.2552
19831W        W39365  16.440   5.148   1.505 -0.2326  0.0404 -0.0255
19832W        W39366   6.762   1.935   3.644  0.0058  0.0480 -0.0551
19833W        W39367   9.453  11.105   1.629  0.0178  0.2353  0.2543
19834W        W39368   3.602  14.611   5.057  0.2228 -0.0335 -0.1339
19835W        W39369  12.662  16.610  16.117 -0.0900  0.2778  0.0271
19836W        W39370  13.859  16.710   4.285 -0.0111 -0.6245 -0.1416
19837W        W39371  10.972   5.484   1.814 -0.1415 -0.1698  0.1934
19838W        W39372   8.092  15.747  13.062 -0.0141 -0.1236  0.0323
19839W        W39373   6.792   6.308  12.907  0.1533 -0.1163  0.0821
19840W        W39374  13.199  15.540  13.398  0.0641  0.2529 -0.0629
19841W        W39375   9.609   6.284   3.439 -0.0754  0.1741 -0.1039
19842W        W39376   5.031  14.142  13.047 -0.0759 -0.3098 -0.1012
19843W        W39377   3.769   0.801   0.668  0.1774  0.0658 -0.0034
19844W        W39378   1.618   3.558   1.418  0.0703 -0.0046  0.2013
19845W        W39379  11.257   9.800   0.634  0.0908 -0.0206  0.2853
19846W        W39380  12.448  12.924  13.804  0.2137  0.0258 -0.1881
19847W        W39381  10.493   9.331   4.308 -0.0867 -0.3379  0.1039
19848W        W39382   5.575   5.458  12.656 -0.2405  0.0466  0.1076
19849W        W39383  15.019  10.285   2.068  0.0700 -0.1922 -0.0663
19850W        W39384   9.553  17.100   4.316  0.2533  0.2666  0.0594
19851W        W39385   7.914   1.865   1.722  0.0914 -0.0951 -0.0475
19852W        W39386   4.151   2.022  13.600  0.0246  0.0564  0.1064
19853W        W39387   1.329   0.770   4.377 -0.1112  0.1425 -0.1851
19854W        W39388  15.558   6.683   4.503 -0.0536 -0.0973  0.0000
19855W        W39389   3.650   4.315  15.357 -0.0554  0.0133 -0.1214
19856W        W39390   9.145  16.944  15.974  0.1468  0.1373  0.0262
19857W        W39391   7.277   3.821   0.490 -0.1003  0.2345 -0.4480
19858W        W39392  12.697  17.084   1.175  0.0131 -0.0746  0.2772
19859W        W39393   3.701  16.995   0.614  0.0839 -0.0810  0.0102
19860W        W39394   2.663   7.717   1.044 -0.1913  0.0123  0.4611
19861W        W39395  14.831   0.486   3.580 -0.1159 -0.1171  0.1704
19862W        W39396   7.563   0.158   2.438 -0.1917  0.1997 -0.0549
19863W        W39397  12.509   2.581  15.475  0.0548  0.0162 -0.0868
19864W        W39398  10.179  14.945   2.660 -0.0157  0.1726 -0.1239
19865W        W39399   0.724   4.882   4.491 -0.0096 -0.2326  0.2948
19866W        W39400  14.692  13.367   2.176  0.0830 -0.0096 -0.0922
19867W        W39401   7.991  16.981   3.029 -0.3844 -0.3273  0.3068
19868W        W39402   2.684   6.788   4.149 -0.0286 -0.2458  0.0938
19869W        W39403  12.269  14.539   4.330  0.0749 -0.1185  0.0539
19870W        W39404   4.624   8.897  16.220  0.2236  0.0557 -0.1100
19871W        W39405  14.497   7.175  14.296  0.1265 -0.2144 -0.0056
19872W        W39406  10.305   8.957   2.166 -0.1027  0.0073 -0.0531
19873W        W39407   3.196   9.486  17.230 -0.2806 -0.1837 -0.0692
19874W        W39408  12.831   5.641   1.997 -0.2079 -0.2041  0.1171
19875W        W39409   6.123  15.453  13.293  0.1129  0.0030 -0.2576
19876W        W39410   5.075   6.051   3.309 -0.1639  0.0426 -0.4188
19877W        W39411   4.236   3.426   2.926  0.2248 -0.0614 -0.0428
19878W        W39412   3.223   3.989   4.505 -0.0355 -0.0822 -0.1492
19879W        W39413   5.189  12.323   1.106  0.0433  0.0179  0.0139
19880W        W39414  11.319  17.041   3.496  0.3675 -0.0589  0.2254
19881W        W39415  15.642   9.702   1.763 -0.2545  0.2636 -0.5099
19882W        W39416  11.554  16.423  17.162 -0.0135 -0.0227  0.1180
19883W        W39417   3.716   6.906   1.350  0.0454 -0.0549 -0.0109
19884W        W39418   4.064  14.426  12.638 -0.0485  0.2144  0.1671
19885W        W39419   6.975   3.665  15.983 -0.1334  0.1921 -0.0585
19886W        W39420  12.678   3.527  15.861  0.3721 -0.1384  0.1998
19887W        W39421   6.314   0.026  15.891 -0.2302 -0.1426 -0.1593
19888W        W39422  13.691   8.640   1.614 -0.1261 -0.0243 -0.0720
19889W        W39423   2.201   6.927  13.413  0.5341  0.1268  0.2211
19890W        W39424  10.619  15.587   5.044 -0.0219  0.0615 -0.1668
19891W        W39425   4.842  13.673  12.932 -0.0824 -0.3274 -0.1703
19892W        W39426  13.452   5.051   0.392 -0.0268 -0.0368  0.1491
19893W        W39427  11.891   4.809  13.513  0.1282  0.1258 -0.0943
19894W        W39428  17.399  12.832  15.983 -0.2200  0.0833 -0.0683
19895W        W39429   6.459   4.674  16.933  0.2956  0.0073 -0.2215
19896W        W39430   3.348  11.660  15.820 -0.2810  0.1193  0.1818
19897W        W39431  14.916   6.596  13.087  0.1382 -0.0033 -0.0221
19898W        W39432  13.893   5.643   4.710 -0.0413  0.2161 -0.3216
19899W        W39433   3.103  12.673  14.538  0.0202  0.2575  0.0102
19900W        W39434  12.947   2.594   3.283 -0.3061 -0.0492  0.4104
19901W        W39435  16.278  14.429  14.114 -0.0049  0.0648  0.1775
19902W        W39436   9.465  12.469   3.935  0.1342 -0.3533 -0.1344
19903W        W39437  16.482   4.910   5.471  0.2031 -0.0843 -0.3606
19904W        W39438  10.558  12.564  13.143 -0.1300  0.1201  0.0706
19905W        W39439  15.148  16.792   4.797  0.1302 -0.0051  0.0350
19906W        W39440   6.607  16.404   0.347 -0.0547  0.0603 -0.1294
19907W        W39441  14.616  12.270   0.501 -0.1935  0.2382 -0.3369
19908W        W39442  12.359   3.627  17.009 -0.0681 -0.1942 -0.1315
19909W        W39443   4.709  15.045   4.024  0.4445  0.2689 -0.1843
19910W        W39444   7.332   6.379   5.131 -0.1524  0.0639  0.1157
19911W        W39445   7.756   5.847  13.814 -0.0824 -0.1004  0.0738
19912W        W39446   3.613   4.397  11.618 -0.0475 -0.0682 -0.2540
19913W        W39447  16.029   4.133  16.969  0.1066  0.0405 -0.5691
19914W        W39448   7.014  13.517  15.716  0.1271 -0.2458  0.1561
19915W        W39449   6.408   5.192  14.115 -0.0554 -0.3440 -0.1211
19916W        W39450   4.169   0.450   4.043 -0.1331 -0.0428  0.2749
19917W        W39451   7.828  15.864  13.693  0.0277 -0.0789  0.1148
19918W        W39452  16.876  10.407  15.981 -0.3051 -0.0119  0.1417
19919W        W39453   3.672   5.575   1.865 -0.2173  0.0937 -0.4338
19920W        W39454  16.606   9.665   2.737  0.1242 -0.1441  0.1757
19921W        W39455   4.440   3.183  13.977  0.2885 -0.1322  0.0656
19922W        W39456  14.551   5.657  16.723 -0.2371  0.0968 -0.0878
19923W        W39457  15.087   6.272   4.798 -0.1183  0.0013  0.0428
19924W        W39458  15.608   2.542  14.097  0.1469 -0.0456 -0.0862
19925W        W39459   1.486  11.986   0.518  0.4317  0.0002  0.1188
19926W        W39460   9.612   6.310  14.088  0.2956  0.6113  0.3167
19927W        W39461   0.849   9.135   3.383  0.2701  0.1188  0.1886
19928W        W39462  11.518  11.988   3.177  0.2541  0.0373  0.1403
19929W        W39463   6.047  15.055  15.891  0.0467  0.1961 -0.0444
19930W        W39464  14.094  16.742  12.929  0.1460  0.1772 -0.1041
19931W        W39465   5.015  13.551  15.222  0.0726 -0.5087  0.2264
19932W        W39466   9.175   7.516  15.065 -0.3260  0.0130  0.0251
19933W        W39467  15.735   7.043   2.672  0.1656  0.0761 -0.1863
19934W        W39468  15.118  16.369  15.077 -0.0160  0.0268 -0.0377
19935W        W39469  10.642   3.420  12.351 -0.0917  0.2335 -0.0084
19936W        W39470   8.061  17.281  15.926  0.1093  0.2286  0.1529
19937W        W39471   0.789   2.614  15.358  0.0373 -0.1237  0.0264
19938W        W39472  14.001  16.662  17.275 -0.2040 -0.1035  0.0428
19939W        W39473  12.583   8.459   1.806 -0.1997 -0.1291 -0.2749
19940W        W39474  10.557   5.809  16.613 -0.0413 -0.1212  0.1480
19941W        W39475  15.286  11.137   4.128  0.1288  0.1724 -0.2047
19942W        W39476   4.571  15.735  16.890  0.1390 -0.0544  0.1899
19943W        W39477  15.752  11.667   4.981  0.0746 -0.0232  0.2083
19944W        W39478   9.486  16.914   0.484 -0.0883 -0.2130 -0.0341
19945W        W39479  10.677   0.355   4.032 -0.0745  0.0484  0.2346
19946W        W39480   1.604  16.786  16.829  0.0074 -0.1047  0.1229
19947W        W39481   9.573  11.867   3.387 -0.0704  0.2719  0.0043
19948W        W39482   7.380  14.112   2.131 -0.1230 -0.0437 -0.2299
19949W        W39483   0.535   3.668   2.330 -0.2882 -0.0798 -0.4691
19950W        W39484  10.267  11.208  15.913 -0.1852 -0.0112 -0.0508
19951W        W39485  13.466  15.025   5.213  0.1437  0.2175  0.3558
19952W        W39486  11.691   6.511   1.370 -0.1716  0.1392 -0.2303
19953W        W39487  16.191   4.984   4.309 -0.1651 -0.1207  0.0937
19954W        W39488  13.760   0.729   0.534  0.1419 -0.1385  0.1238
19955W        W39489   7.194  17.293  14.890 -0.1320 -0.0241 -0.1514
19956W        W39490  12.596   4.007   1.420 -0.1733  0.1242 -0.1098
19957W        W39491  13.719  12.255   3.160  0.1110 -0.1234 -0.1820
19958W        W39492   0.787  15.827  13.131 -0.2195 -0.0400 -0.0787
19959W        W39493   7.351  15.375  11.379 -0.1779  0.0394  0.0733
19960W        W39494   7.512   6.537   3.480 -0.0394 -0.2676  0.1373
19961W        W39495  12.949   5.968   2.336  0.1313  0.1597 -0.0716
19962W        W39496  13.221   5.565  13.740 -0.2919  0.0967 -0.0122
19963W        W39497   0.329  13.964  16.229  0.0154  0.0830 -0.0224
19964W        W39498  12.144   7.448   5.714  0.2166 -0.1010 -0.1034
19965W        W39499   3.865  15.847   4.877 -0.1458  0.1090  0.0480
19966W        W39500   2.754  11.827  13.640  0.0169 -0.0586 -0.1142
19967W        W39501  13.409  17.358   4.534  0.1584 -0.1204 -0.1406
19968W        W39502   8.825  12.107  16.158 -0.0611  0.4115  0.2903
19969W        W39503   4.103   1.816  16.311  0.1622 -0.1936 -0.1117
19970W        W39504   7.219  11.616   4.176 -0.2369  0.1833 -0.0108
19971W        W39505   4.826   9.892   0.935 -0.1187  0.1001  0.1135
19972W        W39506   5.286   7.068  17.182  0.1731  0.0809 -0.2963
19973W        W39507  17.091   1.081   3.946 -0.0853 -0.0232 -0.0010
19974W        W39508   0.714  13.868  16.540 -0.1472  0.3436  0.0959
19975W        W39509   1.588   8.509   0.374  0.0933  0.0299 -0.1255
19976W        W39510   6.626  15.536   4.464  0.1034  0.3935 -0.1157
19977W        W39511   1.759  11.583   3.205  0.1067  0.0059 -0.1818
19978W        W39512   1.105   5.807   4.482  0.1786  0.0289 -0.0941
19979W        W39513  14.670  15.385   1.974 -0.3996  0.1797 -0.2509
19980W        W39514   2.177   8.125   4.527 -0.2573 -0.1200  0.1569
19981W        W39515   0.427   4.351  15.373  0.0334  0.0013  0.0106
19982W        W39516   8.162  15.177   2.706 -0.1114 -0.0725  0.1607
19983W        W39517   6.949   8.903  14.420  0.3311  0.1304  0.2388
19984W        W39518  15.905   3.686   0.041  0.1541  0.3212  0.3117
19985W        W39519   2.591   8.321   3.279  0.0557 -0.3015  0.1547
19986W        W39520  14.199   0.621  15.093  0.1043 -0.0634  0.1954
19987W        W39521  11.284   2.965  15.030  0.1392 -0.0450 -0.0522
19988W        W39522   0.118   8.191   0.428 -0.3477  0.0380 -0.0419
19989W        W39523  13.607   2.002   3.566 -0.0625  0.2692  0.1692
19990W        W39524   5.203  14.892  15.442 -0.1125 -0.0846 -0.2303
19991W        W39525  14.486   4.509  16.058 -0.1810 -0.1046  0.0165
19992W        W39526   6.070  14.936   4.591 -0.0106 -0.0074  0.0499
19993W        W39527  15.138  12.962   0.061 -0.3962  0.0055  0.3412
19994W        W39528   0.952   3.516  15.613 -0.0194 -0.0482  0.0768
19995W        W39529  10.752  16.967   0.748 -0.0928 -0.0516  0.0172
19996W        W39530  11.656  15.869  13.219 -0.3011 -0.1561  0.2706
19997W        W39531   5.945   9.618   0.542 -0.0587  0.0240 -0.0989
19998W        W39532  10.359  10.042  15.215  0.1145 -0.3299 -0.1917
19999W        W39533   8.063   2.294  13.935 -0.1162  0.2236  0.1276
20000W        W39534  14.900   3.342   0.099 -0.2104  0.0284  0.1083
20001W        W39535  14.187  13.954   0.487 -0.0456 -0.1496  0.4050
20002W        W39536   9.505   2.199  14.107 -0.0874 -0.2085  0.1023
20003W        W39537  12.307   1.436   4.097 -0.0025  0.1309 -0.2651
20004W        W39538  15.761  10.582  13.772  0.1472  0.2152 -0.2067
20005W        W39539  11.644  12.365  12.961 -0.1159  0.0874  0.0642
20006W        W39540   4.463   8.895   3.002 -0.0939 -0.0920 -0.0094
20007W        W39541   8.513   8.904   4.599  0.1069 -0.0020 -0.0174
20008W        W39542  10.383   2.568  17.283 -0.1842  0.2873  0.0580
20009W        W39543  10.854  11.833  13.039 -0.2476  0.1356 -0.1876
20010W        W39544  13.988   6.945  13.276  0.0607 -0.0745 -0.0268
20011W        W39545  10.323  14.720  12.588 -0.3121 -0.1422 -0.0863
20012W        W39546  12.785   5.924  12.384  0.0782  0.2980 -0.1713
20013W        W39547   0.975  13.541  16.842 -0.2249 -0.3658  0.3890
20014W        W39548  15.815  11.553  16.112  0.0055 -0.1090  0.0489
20015W        W39549   9.217  10.584  13.205 -0.1305  0.1638  0.1370
20016W        W39550   8.006   8.841   1.649  0.0341  0.0745 -0.1320
20017W        W39551   4.964   6.631   1.313 -0.1953  0.1573  0.3180
20018W        W39552   6.306  15.710  12.179  0.1066 -0.0324  0.0081
20019W        W39553   7.674   7.864  12.845 -0.1295 -0.0941 -0.0533
20020W        W39554   4.908  16.716  13.041 -0.1722  0.0466 -0.0686
20021W        W39555   8.799   1.503  16.062 -0.0794 -0.1507  0.1838
20022W        W39556   3.175   5.041   1.440 -0.2993 -0.1311 -0.0688
20023W        W39557   8.878   1.367  13.209  0.0785  0.0619 -0.1342
20024W        W39558   2.955   0.954  16.436 -0.1521 -0.1161 -0.5522
20025W        W39559   0.041   3.416  12.998  0.0449 -0.1571  0.1317
20026W        W39560   2.323   4.295  13.983  0.1062 -0.0794 -0.1423
20027W        W39561   5.338   4.279   1.670 -0.4247 -0.4593  0.0881
20028W        W39562  11.683  16.361  13.987  0.1983 -0.3544  0.0039
20029W        W39563   4.603   6.354   4.257  0.0596 -0.1895 -0.1619
20030W        W39564  16.094  11.099   3.631  0.2255  0.0393  0.2169
20031W        W39565  10.291  13.641  13.934 -0.1539 -0.1584  0.0711
20032W        W39566  10.340   3.900   3.140  0.2893 -0.1613  0.1017
20033W        W39567   0.902   2.548   3.500  0.1044 -0.1317 -0.0967
20034W        W39568  17.229   0.033  13.011  0.1116 -0.1935 -0.3289
20035W        W39569   4.536   4.879   2.752  0.0274 -0.0303 -0.2104
20036W        W39570  13.184  11.482  15.748  0.1500 -0.0131  0.2183
20037W        W39571   3.989  13.854   3.277  0.2048 -0.4603  0.1220
20038W        W39572  14.202  12.742  14.694 -0.3080  0.1295  0.1072
20039W        W39573  10.764   9.324   4.934 -0.0315  0.3174  0.0623
20040W        W39574   7.116   4.001  15.126  0.0125  0.0946 -0.0038
20041W        W39575   7.861   1.370  13.479  0.1050  0.2090 -0.0173
20042W        W39576  16.681  15.868   2.042 -0.0225 -0.0077 -0.2162
20043W        W39577  11.254  11.805   1.325  0.1512  0.0489  0.0313
20044W        W39578   8.325  16.771  17.182 -0.0449 -0.1266 -0.1892
20045W        W39579   2.700   9.181   3.744  0.0097  0.0047  0.0938
20046W        W39580   6.443   8.374  16.904 -0.0869  0.0823 -0.2165
20047W        W39581  16.135   8.260   1.328  0.1560 -0.1640  0.1126
20048W        W39582   1.024   2.232   2.268  0.2240 -0.1742  0.1182
20049W        W39583  10.900   1.002   1.483  0.2309 -0.1857  0.0811
20050W        W39584  14.033   4.420   2.993 -0.1846 -0.2522  0.0098
20051W        W39585   4.525   0.682   1.458  0.0921  0.1109  0.4612
20052W        W39586   7.411  16.640   0.028 -0.0483  0.1593  0.1152
20053W        W39587  14.784  14.841  13.789  0.0092 -0.1080  0.2619
20054W        W39588   9.014   7.781   4.657 -0.0116 -0.1730  0.0384
20055W        W39589   8.431  14.896  14.486 -0.0814  0.3148 -0.2023
20056W        W39590   8.425   7.116   0.190  0.1894  0.4853 -0.0272
20057W        W39591  15.807  15.108  13.975  0.0395 -0.0076 -0.1979
20058W        W39592   6.925  13.653  14.424 -0.3346  0.0689  0.0020
20059W        W39593  10.978  17.278  16.974  0.1543 -0.1534  0.0071
20060W        W39594  17.441  16.407   0.815  0.4653 -0.1098 -0.0485
20061W        W39595   9.351   1.235  15.520 -0.3458  0.2303  0.2769
20062W        W39596   4.906  12.546   3.719  0.1441  0.0747 -0.1886
20063W        W39597  12.962  10.375  14.589 -0.1117 -0.1373  0.0249
20064W        W39598   9.675   1.566   0.641 -0.1333 -0.0971 -0.1450
20065W        W39599  11.173   7.671   2.557 -0.2493  0.1268  0.0654
20066W        W39600  12.955  10.835   1.122 -0.0124  0.1514 -0.0364
20067W        W39601   7.730  10.013  14.013 -0.1026  0.2680  0.1341
20068W        W39602   9.539   2.424  16.570 -0.0456  0.1530  0.0038
20069W        W39603   5.388   4.872   0.068  0.2975  0.3887 -0.0752
20070W        W39604  15.268  15.107   1.693 -0.0412 -0.1302  0.0685
20071W        W39605   2.016   8.245   2.418  0.0011  0.2932 -0.0468
20072W        W39606   7.674  17.154  12.752 -0.2949 -0.1612  0.1105
20073W        W39607   4.368   9.710   0.800 -0.0592  0.0717 -0.0267
20074W        W39608   2.157  13.001   0.237 -0.1612  0.2668 -0.0815
20075W        W39609   8.607   0.015   0.785 -0.1123  0.0540 -0.4013
20076W        W39610  12.452   0.641   3.803  0.0608 -0.2218 -0.2068
20077W        W39611  12.024  13.646   2.644  0.1907 -0.3534  0.0343
20078W        W39612   6.565   2.752   4.815 -0.0663  0.2905  0.2296
20079W        W39613   4.066   4.446  14.075  0.1283 -0.1592 -0.0543
20080W        W39614  16.374  15.741  13.634  0.3186 -0.1336  0.1529
20081W        W39615  15.626   2.502   0.997  0.0381 -0.0407 -0.0138
20082W        W39616   3.440   6.337  15.620 -0.0201 -0.0384  0.4126
20083W        W39617  13.376   4.205   3.729 -0.0649 -0.1261  0.0124
20084W        W39618  11.559  13.795   3.150  0.0938 -0.0225  0.3007
20085W        W39619   1.924  11.891  15.552  0.1693 -0.1020  0.0599
20086W        W39620   6.706  16.673  16.931  0.4063  0.2580  0.2264
20087W        W39621   6.237  17.236   0.619  0.0178 -0.2341 -0.0293
20088W        W39622   4.805  12.840  16.723  0.0150  0.0712  0.0409
20089W        W39623  14.743   7.779   3.220 -0.1222 -0.3321 -0.1348
20090W        W39624   0.060  14.090  15.555  0.0459  0.3390  0.1266
20091W        W39625   3.783   4.432   2.985 -0.0059 -0.3319 -0.0464
20092W        W39626  17.467   1.035  16.040 -0.1226 -0.1014  0.0209
20093W        W39627   2.400   4.167  13.396  0.0095  0.2700 -0.0033
20094W        W39628  16.800  14.412  11.866  0.0289  0.0077  0.0919
20095W        W39629  14.577  15.132  16.134  0.1237  0.0507 -0.1163
20096W        W39630  14.248   7.895  13.087 -0.0936 -0.1688  0.0361
20097W        W39631   3.492  16.291  14.987  0.3216  0.2053  0.0545
20098W        W39632  11.189  14.559  16.078  0.1177 -0.2139 -0.1368
20099W        W39633  16.986   1.892   4.230 -0.2907  0.0684 -0.4459
20100W        W39634  10.738  12.789  14.114 -0.2116 -0.2166 -0.1045
20101W        W39635  13.441   8.050   1.649 -0.3533  0.0737 -0.1917
20102W        W39636   2.554   3.531  12.515 -0.0005  0.1206 -0.2726
20103W        W39637   8.847  16.544   3.858 -0.1523  0.0265 -0.3749
20104W        W39638   8.387   9.080  15.766  0.0689 -0.1238  0.1930
20105W        W39639   7.947   8.936   5.281 -0.0078  0.0361 -0.0110
20106W        W39640  10.937   9.863   1.336 -0.1236 -0.0622  0.1461
20107W        W39641  16.372   3.731   1.051  0.3381  0.2560  0.0360
20108W        W39642  15.488  12.846   1.640 -0.0455 -0.0336  0.0516
20109W        W39643  12.977  10.451   0.766 -0.2635 -0.2053 -0.0705
20110W        W39644  15.677   4.252  15.075 -0.2345  0.2157  0.2695
20111W        W39645   8.558   0.908   0.800 -0.3089 -0.1047 -0.1409
20112W        W39646   9.165  13.616   0.837  0.1681  0.0492  0.1486
20113W        W39647   1.889   8.150   2.945  0.0949 -0.2511 -0.1260
20114W        W39648  12.318  11.795   1.955 -0.1178 -0.1695 -0.3109
20115W        W39649  12.796   9.856  14.012  0.1506 -0.0461  0.0385
20116W        W39650   6.814  10.372   2.351  0.0493  0.0350 -0.1286
20117W        W39651   0.685  12.567  12.381  0.0448  0.2400 -0.2692
20118W        W39652   8.316   7.382  15.349 -0.0067  0.0776  0.1743
20119W        W39653  16.553   4.083   1.425  0.0984  0.0156 -0.0646
20120W        W39654   5.353  11.810  17.012  0.0905 -0.1069  0.5051
20121W        W39655   1.451   2.981   4.570  0.1034  0.2921 -0.3963
20122W        W39656   5.147   3.323  17.031 -0.0220  0.2238 -0.3698
20123W        W39657   5.333  12.698   3.407 -0.2169  0.3932  0.0912
20124W        W39658   0.076   0.089  17.230 -0.1842 -0.2182  0.0059
20125W        W39659   7.429   8.293   1.298 -0.4483 -0.1428  0.0656
20126W        W39660   3.657  10.475  14.455  0.0032  0.2392  0.1214
20127W        W39661  11.369  10.788  15.652  0.3879  0.1567  0.1043
20128W        W39662  14.345   2.693  13.993 -0.1711 -0.2338 -0.0917
20129W        W39663  15.777   8.478   5.058 -0.3176 -0.1876  0.0785
20130W        W39664   2.260   9.561  16.171 -0.0386  0.0805  0.2478
20131W        W39665  13.441  10.493  15.958  0.2640 -0.2315 -0.0071
20132W        W39666   9.556  13.366   0.472  0.3608 -0.0008 -0.0466
20133W        W39667  11.781   4.228   0.778 -0.0756 -0.0644 -0.2487
20134W        W39668  10.416   0.446   1.994 -0.3309 -0.0716 -0.1157
20135W        W39669   2.946   2.159   3.573  0.0006  0.1254  0.1432
20136W        W39670   7.725  14.857  13.062  0.1364  0.1634 -0.0873
20137W        W39671   8.170  12.754   3.322 -0.2796 -0.0209  0.0555
20138W        W39672  11.580   9.580  13.093 -0.0333 -0.1198  0.2228
20139W        W39673   7.163  15.271  13.894  0.1207  0.0875 -0.0037
20140W        W39674   9.799   0.055   4.100 -0.0411  0.0768 -0.0088
20141W        W39675  10.422   6.043   4.888 -0.1303 -0.3057 -0.0546
20142W        W39676   5.034   0.367   0.434 -0.1191 -0.2481 -0.0524
20143W        W39677   9.467   7.004   2.384  0.0213  0.1550 -0.3684
20144W        W39678   2.281  16.585  12.668 -0.3289  0.0978  0.2403
20145W        W39679   1.335   4.239  16.219 -0.0059 -0.0071 -0.1553
20146W        W39680  14.028   2.325   5.076  0.0259  0.2137 -0.2608
20147W        W39681  17.279  14.006   0.797  0.0619  0.1007 -0.1796
20148W        W39682  12.865   0.482  15.903  0.1485  0.3129  0.1645
20149W        W39683  13.021   3.549   2.144 -0.1883 -0.3044  0.1069
20150W        W39684   1.269   9.854  13.304  0.0163 -0.1308 -0.2518
20151W        W39685   1.353  14.052  15.377  0.3276 -0.2370  0.0403
20152W        W39686   3.334   1.364  12.565  0.1027  0.0351  0.0515
20153W        W39687   6.225   2.967   5.119 -0.1969  0.0401  0.2055
20154W        W39688  13.165  13.444   2.388 -0.0369 -0.2523 -0.1369
20155W        W39689  12.681  17.155  13.612  0.3586  0.1163 -0.3513
20156W        W39690  14.971   4.180   2.887 -0.0151  0.1879 -0.0050
20157W        W39691   5.125   4.811   0.657 -0.0944 -0.1721  0.3595
20158W        W39692   1.141   7.198   3.703  0.0111 -0.1082 -0.0363
20159W        W39693   9.984  10.337  13.461 -0.2269 -0.0416 -0.1510
20160W        W39694  11.179   6.689  14.722  0.2396 -0.1026  0.1193
20161W        W39695  15.100  11.660  14.563  0.1109  0.0858 -0.1540
20162W        W39696  10.678   1.378  13.560 -0.0969 -0.0826  0.0397
20163W        W39697   6.830   8.166  12.556 -0.0190 -0.1312  0.1719
20164W        W39698   8.475  16.450  16.512  0.0688  0.0932 -0.3272
20165W        W39699   0.462   4.603   4.084  0.0557 -0.5222 -0.0862
20166W        W39700  13.261   2.022  12.031 -0.0525 -0.1378  0.0054
20167W        W39701   1.043   7.475   2.979  0.1416  0.1530  0.2259
20168W        W39702   3.804   5.712   1.335  0.3019 -0.0613  0.2965
20169W        W39703   7.807  16.926  13.366 -0.1415  0.1636 -0.0410
20170W        W39704   4.256   6.355  15.487  0.0441 -0.0920  0.2626
20171W        W39705   6.738  10.623   0.417 -0.0980 -0.1234 -0.1182
20172W        W39706   3.685  11.279  14.294 -0.3134  0.1240  0.2480
20173W        W39707   8.768  13.579  14.947  0.3061 -0.0921  0.0122
20174W        W39708  14.806  15.251   4.670 -0.1978  0.3902 -0.0666
20175W        W39709   9.475   9.563   1.253 -0.2384 -0.0535  0.1766
20176W        W39710   7.028   2.507  15.547 -0.1371 -0.0081  0.1826
20177W        W39711   2.705  15.755   4.804 -0.2191  0.2304  0.1772
20178W        W39712  16.017   3.638   0.664  0.2261 -0.0335  0.0983
20179W        W39713  16.008  10.238  14.502  0.3271  0.1289 -0.0492
20180W        W39714  11.379  14.081   1.144  0.3763 -0.0848  0.2446
20181W        W39715  13.537   7.905  14.313 -0.3140 -0.0118  0.0351
20182W        W39716  11.316   7.281   0.143  0.1788 -0.2179  0.3294
20183W        W39717  14.325   8.197   4.119 -0.1454  0.1630  0.0903
20184W        W39718  15.688   0.139   2.537  0.1159  0.0095 -0.0180
20185W        W39719  16.929   6.288   0.625  0.1815  0.3371  0.1930
20186W        W39720  15.548  10.060  14.489 -0.0024  0.3486 -0.3184
20187W        W39721   3.226  17.289  17.000 -0.2177 -0.2600  0.0696
20188W        W39722   2.632  13.670   3.743 -0.2084 -0.0345  0.0451
20189W        W39723  13.596  17.107  15.198  0.4328 -0.1054  0.3040
20190W        W39724   8.565  13.058   3.132 -0.2952  0.1851 -0.1722
20191W        W39725  10.623  13.976  15.605  0.0988 -0.2080 -0.0457
20192W        W39726  15.054   1.079   1.931 -0.0101 -0.1571 -0.0879
20193W        W39727   4.241   1.514  14.834 -0.2475  0.2372 -0.1641
20194W        W39728  14.182   9.762   2.969 -0.0007 -0.1215  0.0487
20195W        W39729   7.078  12.091   1.580 -0.1908 -0.0976 -0.1891
20196W        W39730   4.302   9.929   0.275 -0.1030  0.2704  0.0031
20197W        W39731   1.823   3.209  16.154  0.1323  0.1519 -0.0558
20198W        W39732  17.466  13.214  12.563  0.0409  0.0936  0.0442
20199W        W39733   9.331  10.631   3.513  0.0833  0.0367 -0.0242
20200W        W39734   4.783  17.354  13.186  0.0429 -0.0676 -0.0960
20201W        W39735  11.924  12.604   2.521  0.0426  0.1112 -0.3895
20202W        W39736   2.175  17.277  15.469  0.0056  0.1462  0.2059
20203W        W39737  14.609   9.423  16.631  0.0322 -0.0834  0.1831
20204W        W39738   0.421   0.163   2.632  0.0556  0.3413  0.0368
20205W        W39739  14.561   6.255   2.437  0.0659  0.0945 -0.1301
20206W        W39740  10.335   3.009  16.060  0.1719 -0.1429  0.3904
20207W        W39741  12.224  13.588   4.126  0.1131 -0.0970 -0.1623
20208W        W39742   9.587  14.845   1.870 -0.1468  0.1522 -0.0966
20209W        W39743   7.087   7.748   3.929 -0.0510 -0.2201 -0.1254
20210W        W39744   4.655   8.515  12.842  0.1361  0.2340  0.0202
20211W        W39745   2.670   8.543  14.299 -0.4650 -0.3950  0.0030
20212W        W39746   4.995  12.576  15.876 -0.3288  0.1733  0.0497
20213W        W39747  17.422   5.284  15.453  0.3557 -0.0396 -0.3332
20214W        W39748  13.329  16.356   0.626 -0.1935 -0.1131 -0.0375
20215W        W39749  17.199  15.702  15.977  0.0197 -0.0884 -0.0514
20216W        W39750   9.842   3.133   1.638  0.2032  0.0666  0.1884
20217W        W39751  17.362  10.569  15.864  0.1180 -0.1028  0.0107
20218W        W39752   1.271   5.426   0.382 -0.0688  0.0088  0.3746
20219W        W39753   1.275  16.631   4.319  0.2173 -0.1406 -0.0080
20220W        W39754   5.920   5.058  13.840  0.1139  0.0348  0.1743
20221W        W39755   0.068  17.422   0.651  0.0317  0.0023 -0.1283
20222W        W39756   0.486  12.674   1.044  0.0410  0.2594 -0.1556
20223W        W39757  13.521   8.667   2.173  0.2952  0.0661  0.2910
20224W        W39758   4.924   2.026  13.543 -0.0973  0.1569 -0.3018
20225W        W39759  15.362  16.306  16.814  0.0500 -0.1841  0.1294
20226W        W39760  10.124   0.125   2.217  0.3693  0.2138 -0.0115
20227W        W39761   1.546   4.171   0.723  0.3088  0.3035 -0.0090
20228W        W39762  14.078  15.018   3.250 -0.2828 -0.2005  0.0680
20229W        W39763  17.095   1.253  15.307 -0.0098  0.2306 -0.3649
20230W        W39764  13.064   0.076   1.059 -0.1919  0.4909 -0.0001
20231W        W39765   9.903   8.187   5.337  0.1362  0.2779 -0.0458
20232W        W39766   6.919   0.382   3.713  0.2704  0.0620  0.3993
20233W        W39767   5.755   2.196  15.254  0.0227 -0.0785 -0.0234
20234W        W39768  13.596  10.547   1.791 -0.3659  0.3220  0.2596
20235W        W39769   3.743   8.801  13.277 -0.3391 -0.0555  0.0098
20236W        W39770   0.019  15.117  14.741  0.1205 -0.1215  0.0176
20237W        W39771   4.849  11.580  16.282 -0.0114  0.0541 -0.0007
20238W        W39772   6.329   6.664  13.158  0.2105 -0.1160  0.2615
20239W        W39773   5.794  11.147  17.024  0.0153 -0.1184 -0.3094
20240W        W39774   3.473  14.652   3.306 -0.1614 -0.0869  0.1607
20241W        W39775  12.643  12.695   5.366  0.0230  0.1893  0.0929
20242W        W39776   2.975  16.094   3.678  0.3795  0.1601 -0.1119
20243W        W39777   1.591  14.802   1.657 -0.1409 -0.2557  0.1465
20244W        W39778   9.821   9.659  15.431  0.0861 -0.0132 -0.0481
20245W        W39779   6.389   0.659  16.507 -0.0793  0.1162 -0.2069
20246W        W39780   8.430   0.518  12.986 -0.3266 -0.0723 -0.2857
20247W        W39781   1.637   9.360   1.965 -0.0509  0.1408 -0.2907
20248W        W39782   9.329  15.836  14.945  0.1397  0.0488  0.1310
20249W        W39783  16.590  16.697   1.401 -0.0370  0.0255  0.0210
20250W        W39784   9.657  12.203  12.742  0.3173  0.2462  0.0010
20251W        W39785  12.163  15.551   2.734  0.0703 -0.0786  0.3582
20252W        W39786  16.699   1.957  13.776  0.1417  0.1195 -0.2594
20253W        W39787  13.206  13.517  16.541  0.0261  0.0267 -0.3492
20254W        W39788   0.812   1.304   1.499  0.0827  0.1365 -0.1316
20255W        W39789  14.415  12.375  17.313  0.0094 -0.1179 -0.1710
20256W        W39790   2.751   3.042   3.372 -0.3030 -0.1100  0.2214
20257W        W39791   5.974  10.702  12.462  0.2046  0.1553 -0.1272
20258W        W39792  10.401   9.840   3.832 -0.0844  0.2010  0.0012
20259W        W39793  14.438   6.250  16.564  0.2427  0.2311 -0.0704
20260W        W39794   9.251   2.489   4.035  0.1119 -0.3777 -0.0178
20261W        W39795   2.382  17.301   1.324 -0.0848  0.0893 -0.2360
20262W        W39796   6.682   8.268  14.293 -0.2238  0.1646 -0.1617
20263W        W39797  11.082   4.811  14.702  0.1007  0.0671 -0.0594
20264W        W39798   4.158   5.728  14.673 -0.1171 -0.0540 -0.0779
20265W        W39799  14.880  15.842  13.830 -0.1559  0.4669 -0.0922
20266W        W39800   2.582   9.897  15.408 -0.3793  0.0596  0.1357
20267W        W39801   6.777   2.895  16.346  0.0778 -0.1528 -0.2255
20268W        W39802   7.681   6.506  12.944  0.1752 -0.0433 -0.1083
20269W        W39803  14.910   4.043   4.716 -0.1068 -0.3354 -0.2506
20270W        W39804   0.324   6.738  13.225 -0.1845 -0.0772 -0.4809
20271W        W39805   1.951   4.468   0.814  0.0326  0.0459  0.1450
20272W        W39806  15.127   9.402  15.243 -0.2983  0.0614  0.0379
20273W        W39807   0.531  12.890   1.960  0.0462 -0.0409 -0.1406
20274W        W39808   8.688  14.620   4.487 -0.0897 -0.2447 -0.0660
20275W        W39809   5.208   0.600  14.124  0.0491  0.1748  0.0780
20276W        W39810   2.037   3.732   1.583  0.0238  0.4081  0.1136
20277W        W39811   6.592   9.249  14.588 -0.1042  0.1679  0.1140
20278W        W39812  12.519   7.573   0.666  0.0271 -0.4232  0.1330
20279W        W39813  10.489   1.363  14.008 -0.3276 -0.0779  0.0782
20280W        W39814  14.186   0.467   2.735 -0.0218 -0.0405  0.2543
20281W        W39815   1.082  15.060   1.559  0.0097 -0.1317 -0.0464
20282W        W39816   6.053   7.820  14.227  0.0235  0.0078 -0.0719
20283W        W39817   8.811   2.214   3.374  0.0522 -0.1805 -0.3199
20284W        W39818  12.442   0.213  16.116 -0.3367  0.0821  0.0016
20285W        W39819   0.266   8.870  15.805 -0.1601 -0.0703 -0.2836
20286W        W39820   7.099   5.073   0.829  0.1045  0.2575 -0.1422
20287W        W39821   0.022   2.514  16.380 -0.0629  0.0761  0.0491
20288W        W39822   6.316   3.221   0.458 -0.1249  0.0830  0.1235
20289W        W39823   8.313   2.084   0.004 -0.1026  0.0456  0.1869
20290W        W39824  13.231  12.833  16.008 -0.1474 -0.1323 -0.0165
20291W        W39825  11.745   5.072   3.679  0.0463  0.0818 -0.1215
20292W        W39826  13.293  11.386   4.328 -0.0502  0.1607 -0.2282
20293W        W39827   5.573   3.398   3.237 -0.3067  0.1934 -0.0792
20294W        W39828  13.877   4.204  17.271  0.0572  0.2183  0.3046
20295W        W39829  12.731   9.651  15.934 -0.0962  0.0731  0.1092
20296W        W39830  12.068   1.581  14.859  0.0937  0.0412 -0.0070
20297W        W39831  11.650   8.101   4.548  0.1067 -0.1174 -0.0562
20298W        W39832   4.905  10.727  16.124 -0.1186 -0.1236 -0.1007
20299W        W39833   1.610   5.857   1.300 -0.1221 -0.2495 -0.0842
20300W        W39834   6.838   4.157  12.660  0.0004 -0.2817  0.0559
20301W        W39835  10.046  15.061  16.778  0.2103 -0.0638  0.1114
20302W        W39836   2.952   6.807   3.341  0.1300 -0.0245  0.0471
20303W        W39837   3.496  13.582  17.102  0.0207 -0.2094 -0.0183
20304W        W39838  11.297  15.404  16.526 -0.2555 -0.1113  0.0245
20305W        W39839  14.188   9.018  16.177 -0.0076  0.1869 -0.1340
20306W        W39840  13.723   8.945  15.366  0.3056 -0.2301 -0.4491
20307W        W39841  14.410  11.090   2.850  0.5644 -0.3511 -0.1057
20308W        W39842  16.687   3.555  15.269 -0.1281 -0.0687  0.0478
20309W        W39843   8.163   5.976   3.177  0.0793  0.2200  0.2169
20310W        W39844  12.244   7.166   3.822 -0.4453  0.1450 -0.1000
20311W        W39845   1.115  11.466  12.485 -0.1725  0.1484 -0.1225
20312W        W39846   9.853  10.834  14.816  0.1069  0.0931 -0.0738
20313W        W39847   8.093   3.959  15.008 -0.0439 -0.0501 -0.0405
20314W        W39848   9.647  16.734   4.730  0.1212 -0.1649 -0.0557
20315W        W39849   4.184  17.393  14.316  0.1478 -0.4543  0.1828
20316W        W39850   4.012   8.040  14.462  0.1097 -0.4056 -0.0920
20317W        W39851   3.175   7.908  16.317  0.1473 -0.1769 -0.1891
20318W        W39852   2.179   6.460  15.548 -0.1452 -0.0261 -0.0867
20319W        W39853  12.419  16.308   0.370  0.0333  0.0634 -0.1225
20320W        W39854  14.912  14.895  15.118 -0.2097  0.0311 -0.0508
20321W        W39855   9.737   9.700  12.829 -0.0744 -0.0390  0.1061
20322W        W39856  15.939  12.598  14.395 -0.0575  0.1601 -0.0018
20323W        W39857   3.557  16.147   3.129  0.0751  0.1443 -0.0037
20324W        W39858   3.560   8.247  14.310  0.1222 -0.3312 -0.0515
20325W        W39859  15.383   2.765   4.144 -0.0461 -0.1720 -0.1879
20326W        W39860  15.537   7.389  13.087  0.1920 -0.0129  0.3146
20327W        W39861  17.104   0.183  16.143  0.2952  0.1879 -0.2946
20328W        W39862  11.031   0.169   5.050  0.0746  0.1608 -0.0402
20329W        W39863   5.458  13.403  15.458 -0.1517  0.0929  0.0708
20330W        W39864  14.615   5.598   1.226 -0.1568  0.1623  0.1441
20331W        W39865   4.305  11.166  13.196 -0.3047 -0.4255  0.0458
20332W        W39866   6.883   9.259  17.099 -0.1158 -0.0607  0.0132
20333W        W39867  13.215   7.858  13.964  0.1087  0.1206  0.0606
20334W        W39868   4.406   0.466   3.033  0.0567 -0.0358 -0.0120
20335W        W39869   1.957   8.163  14.629  0.3219 -0.0625  0.0689
20336W        W39870   4.210  12.744  17.010 -0.0320 -0.1470  0.2781
20337W        W39871   2.477  13.355   5.430 -0.0908 -0.0354 -0.3006
20338W        W39872  11.932  10.433  16.459  0.0785 -0.2278 -0.1919
20339W        W39873   1.443   8.506  13.493  0.0015 -0.1943  0.0303
20340W        W39874  10.442   0.966  12.539 -0.4692  0.2706 -0.2669
20341W        W39875  10.040   7.904   1.293  0.2284 -0.2015  0.0712
20342W        W39876   3.104  14.385  12.813  0.1066  0.2800 -0.2639
20343W        W39877  14.258  10.642  15.615 -0.0581  0.0492 -0.3780
20344W        W39878   8.343  16.820  14.425 -0.0871 -0.2021  0.3429
20345W        W39879   4.976  14.377  14.643 -0.1728 -0.0376 -0.2306
20346W        W39880  10.547   8.134   1.914  0.0593 -0.1749  0.0463
20347W        W39881  10.079   2.496   2.912  0.0973 -0.2031  0.0761
20348W        W39882   9.820   8.428   1.677  0.2137 -0.3479 -0.1175
20349W        W39883  10.922   6.828   4.685 -0.0182 -0.1691  0.2048
20350W        W39884   4.006  12.060   4.030  0.6048 -0.0172  0.2247
20351W        W39885  17.086  11.441  13.918 -0.2788 -0.1644 -0.1132
20352W        W39886   9.816   8.976  12.280  0.2270  0.1322 -0.0976
20353W        W39887  12.146  13.843   3.100 -0.0574 -0.1527 -0.1121
20354W        W39888  14.183  10.692  14.881  0.1276 -0.1608  0.2887
20355W        W39889  14.542   7.004   4.530 -0.1151 -0.2710 -0.1695
20356W        W39890   1.917  17.080   4.980 -0.0179 -0.3028  0.1813
20357W        W39891  14.134  16.784  16.042 -0.1671  0.1568  0.0872
20358W        W39892  12.370   2.459   2.470  0.0596 -0.0341 -0.0001
20359W        W39893   1.725   4.939   4.280  0.0878 -0.0542  0.1205
20360W        W39894   3.657  15.474  13.725  0.0853 -0.1240  0.2218
20361W        W39895   6.156   2.320  16.151  0.2197 -0.1664  0.1330
20362W        W39896  17.249   5.725  17.289 -0.0100  0.2486  0.1764
20363W        W39897   4.631   1.417  16.816  0.1037  0.0372 -0.2358
20364W        W39898  11.758  17.323   1.128 -0.0468 -0.0992  0.1025
20365W        W39899   8.486  16.392  14.187 -0.0630  0.0673  0.1111
20366W        W39900   9.575  14.154  14.540  0.0708 -0.0587 -0.0222
20367W        W39901   6.076   2.327  15.588  0.0655  0.1375  0.0269
20368W        W39902   8.110  10.188  12.069 -0.2490 -0.0296 -0.2630
20369W        W39903  10.435  10.562  13.338  0.4115 -0.0972  0.2275
20370W        W39904  14.704  15.570  14.368  0.2476 -0.0994  0.3033
20371W        W39905   1.417  13.190   1.653  0.0587  0.0205 -0.0723
20372W        W39906  12.044  15.505   2.236 -0.1844  0.1548  0.1643
20373W        W39907   1.305   0.657   0.947  0.3700  0.2505 -0.2020
20374W        W39908   2.882   5.292   1.715 -0.1981  0.0496  0.1311
20375W        W39909   9.770  11.393   1.353 -0.2769 -0.0746  0.0926
20376W        W39910  16.425   1.264  14.232 -0.2872  0.1320  0.1415
20377W        W39911  16.537   2.070   0.055  0.1831 -0.5141  0.3982
20378W        W39912   4.760  11.505   4.603 -0.0002  0.3246  0.2241
20379W        W39913  13.553   5.004   6.032 -0.3560  0.0894 -0.1588
20380W        W39914   3.730  11.606  13.944 -0.2170  0.1546  0.1779
20381W        W39915   5.407   0.000   1.243  0.2173 -0.0043  0.1849
20382W        W39916   6.167  10.242  14.865 -0.1470  0.1013  0.0535
20383W        W39917  16.206  15.829  17.280 -0.1222 -0.1199  0.1141
20384W        W39918  15.266  15.352   4.890  0.3812  0.1491 -0.1054
20385W        W39919  15.162  14.175  14.396 -0.2257  0.1881  0.0083
20386W        W39920   1.940  13.841   4.798  0.1716  0.0989 -0.0156
20387W        W39921   5.084   1.291   0.261  0.2606 -0.0388  0.1506
20388W        W39922   4.144   2.239  16.569  0.2272 -0.3905  0.2550
20389W        W39923  15.183  12.484  11.775 -0.1177  0.2370  0.0487
20390W        W39924   9.886  16.447   2.418  0.0834 -0.3449  0.1127
20391W        W39925   9.694  10.617   0.160  0.1335  0.0264 -0.0498
20392W        W39926   0.233   0.553   0.045  0.0790  0.0729 -0.2426
20393W        W39927  10.705  12.803   0.249  0.1257  0.1543 -0.2478
20394W        W39928  14.514   6.234  13.781 -0.0483  0.0415  0.0279
20395W        W39929   4.510  10.102   3.259  0.1708 -0.2345 -0.0944
20396W        W39930   5.442   7.913  16.691 -0.0853 -0.1096 -0.3162
20397W        W39931  10.210  11.246   2.235  0.4260 -0.1494  0.1337
20398W        W39932   6.927   3.155  13.158 -0.1221 -0.1556  0.3731
20399W        W39933   0.464  13.396  12.408 -0.0205 -0.0236  0.0848
20400W        W39934   4.399   9.319  12.103 -0.0627 -0.0056 -0.2732
20401W        W39935   8.653   0.923  13.332 -0.1020 -0.1664 -0.3456
20402W        W39936  15.810   7.724  13.965 -0.1997  0.1631 -0.0050
20403W        W39937   5.942   0.158  16.648 -0.2190 -0.1878  0.0476
20404W        W39938   6.173   6.278   2.699 -0.0810  0.1451 -0.1105
20405W        W39939   9.436   3.442  13.543 -0.2905  0.0788  0.3773
20406W        W39940   7.048   4.316  12.185  0.3984  0.2291 -0.3040
20407W        W39941  13.641  16.879  16.130 -0.0131 -0.0500 -0.1437
20408W        W39942   2.703  11.743   4.396 -0.3403  0.0240  0.2234
20409W        W39943   7.322   0.627   5.483 -0.1483 -0.0582  0.0176
20410W        W39944   7.630   5.567   3.592  0.0023 -0.3057 -0.0070
20411W        W39945  11.150  10.762  15.024 -0.1077 -0.1180 -0.0566
20412W        W39946  11.060   8.358  16.883 -0.0845 -0.3750  0.2914
20413W        W39947  13.238   1.832  15.439 -0.0299 -0.3436  0.1644
20414W        W39948   4.054  11.187  14.602 -0.0672 -0.2187  0.0479
20415W        W39949   5.373   8.534   0.559  0.1099 -0.0472 -0.0805
20416W        W39950   4.862   3.064   1.587 -0.0888 -0.0241  0.0505
20417W        W39951   5.969  11.520  13.904  0.3952  0.0630 -0.0155
20418W        W39952  17.168   5.845  16.696  0.0072 -0.0334  0.3402
20419W        W39953   0.999   7.406   1.993 -0.2683 -0.0808 -0.1410
20420W        W39954  13.171  15.467   0.965 -0.0283 -0.1065  0.5464
20421W        W39955  12.205  13.195  15.828  0.0533 -0.3132 -0.1166
20422W        W39956   8.886   5.707   4.656  0.0155 -0.1653  0.1861
20423W        W39957   9.817   0.033  11.662 -0.0874 -0.0061  0.4356
20424W        W39958   7.242   7.230  16.841  0.2653 -0.0074  0.1836
20425W        W39959   6.698  14.717   2.409  0.1581  0.0994 -0.2233
20426W        W39960  15.404   8.957  15.328  0.0024 -0.0640 -0.0534
20427W        W39961   4.044   0.185  13.463  0.0368 -0.2119  0.1080
20428W        W39962  11.573   8.609  14.138 -0.1647 -0.2741  0.4865
20429W        W39963   6.891   2.994   0.613 -0.1565  0.0755  0.1252
20430W        W39964  10.195   5.498   3.494  0.1946  0.0250 -0.2496
20431W        W39965   3.606   2.722  12.649 -0.3011 -0.1973  0.1842
20432W        W39966   6.714   3.246  12.548 -0.1549 -0.0008  0.0997
20433W        W39967  11.317   4.079  12.409  0.1174 -0.2311  0.1315
20434W        W39968  10.425  10.120  13.189  0.3026 -0.0630 -0.2616
20435W        W39969  14.656   9.236  15.359  0.0311  0.1442 -0.0218
20436W        W39970   3.496   3.842  17.032  0.1998 -0.1063 -0.2281
20437W        W39971   0.093   7.307   3.429  0.1413 -0.0857 -0.2192
20438W        W39972  14.889  14.751  16.228  0.2370  0.0464  0.0001
20439W        W39973   0.300   2.861   2.192  0.0053  0.1842 -0.1064
20440W        W39974  12.415  17.338  13.256  0.0708  0.0473  0.2447
20441W        W39975  16.934   2.271  15.124  0.0244  0.3985  0.0521
20442W        W39976   3.285   0.764   0.956 -0.0970  0.1588  0.3144
20443W        W39977   5.960  10.380   4.578  0.1001  0.4326 -0.1263
20444W        W39978  14.052   4.664  13.934  0.2354 -0.0874  0.0703
20445W        W39979   4.224   2.032   0.477  0.0610 -0.1726  0.0050
20446W        W39980  11.957   0.960   1.900  0.1515 -0.2018 -0.0907
20447W        W39981   8.143   5.487   2.365  0.0159  0.0950  0.3125
20448W        W39982   0.183   1.161  12.213 -0.0084  0.1555  0.1943
20449W        W39983   9.708   9.971  13.673 -0.0198  0.0732  0.1538
20450W        W39984   7.475  14.795  16.124  0.0704 -0.2748  0.0913
20451W        W39985   5.425   1.175  12.507 -0.0671 -0.1326 -0.0182
20452W        W39986   4.019   4.551  15.055  0.1738 -0.0278  0.2695
20453W        W39987   6.037  16.956   0.233  0.1091  0.1754 -0.3945
20454W        W39988   4.558   4.449  12.328  0.1191  0.0247 -0.0359
20455W        W39989  14.565  13.026   5.173 -0.0766 -0.0967  0.1016
20456W        W39990   4.380  17.042   4.505  0.1216  0.1648  0.3970
20457W        W39991  16.315   5.877  12.416  0.0628 -0.1788  0.1469
20458W        W39992  11.970   7.506  16.137  0.3839 -0.2053  0.1052
20459W        W39993   1.959   4.215  16.644 -0.5454  0.1001 -0.1714
20460W        W39994  16.277  15.187  14.484  0.2804 -0.2503  0.3611
20461W        W39995  11.024  16.296  17.002  0.2741 -0.0063 -0.4396
20462W        W39996   5.217   6.943  15.739  0.0712 -0.0237  0.1812
20463W        W39997   9.785   9.339  13.275 -0.1818 -0.0903 -0.4357
20464W        W39998  14.455   8.961   0.241 -0.2191 -0.1723  0.1248
20465W        W39999   2.881  12.742   0.313  0.3091  0.3671  0.2527
20466W        W40000   4.531   3.083  11.723 -0.1361  0.3595  0.3154
20467W        W40001  12.499  12.061  13.641 -0.1057 -0.0525 -0.0560
20468W        W40002  10.293  17.370  13.581 -0.0652  0.1458 -0.0462
20469W        W40003   9.346   5.601  15.904  0.4075  0.2399 -0.2522
20470W        W40004   7.065   7.058   0.410  0.3002  0.4773  0.2419
20471W        W40005   3.045  10.512  16.414  0.0752 -0.2659 -0.0913
20472W        W40006  15.014   6.900  15.054 -0.4930  0.2561 -0.3417
20473W        W40007  16.463   2.138   0.523 -0.1971  0.0115 -0.2891
20474W        W40008  17.248  13.693  15.778  0.2086  0.0290  0.0152
20475W        W40009  16.552  13.275  12.285  0.1353  0.2197 -0.1123
20476W        W40010  10.820   3.909  12.502  0.0403 -0.1803 -0.2144
20477W        W40011   0.195  11.220   1.462 -0.0379  0.2781  0.1862
20478W        W40012   0.002   2.050   3.916 -0.1569 -0.1320 -0.3199
20479W        W40013   6.329   0.415   3.330  0.0588 -0.1539  0.1750
20480W        W40014  14.031  14.085  16.966 -0.0638  0.1545 -0.0957
20481W        W40015  10.818  13.831   5.504 -0.0909 -0.1773 -0.2907
20482W        W40016  14.694  14.474   3.096 -0.0709  0.2229  0.1466
20483W        W40017  14.046   5.543  16.916 -0.3769 -0.0765 -0.0026
20484W        W40018  12.530   9.798  16.594  0.0940  0.1550 -0.1870
20485W        W40019   3.391   7.288   0.429  0.0349 -0.2102 -0.1279
20486W        W40020   4.503  12.328   2.355 -0.3455 -0.0187 -0.1074
20487W        W40021   2.302   2.868   1.909  0.0806  0.2983  0.0782
20488W        W40022   6.312   6.689   1.493  0.0165  0.2192 -0.0670
20489W        W40023   3.246   2.552  13.468  0.1677  0.2151  0.0327
20490W        W40024  15.610   6.287  16.676 -0.0483 -0.2927 -0.0856
20491W        W40025  10.372   5.410  17.051  0.3298  0.0495 -0.0808
20492W        W40026  11.808  14.816   4.894 -0.0385 -0.0682 -0.1797
20493W        W40027  16.185   4.856   2.274  0.2092  0.2431  0.2840
20494W        W40028  15.171   8.348  13.759  0.1186  0.3678 -0.1550
20495W        W40029  16.169   9.955   1.324  0.0824 -0.0609 -0.2179
20496W        W40030   4.557   0.037  12.449  0.0929  0.3224 -0.1821
20497W        W40031   8.676  15.625  13.121  0.1148 -0.0384  0.1842
20498W        W40032  12.202   4.562   3.120  0.0788  0.1510  0.1303
20499W        W40033   4.821   0.874   0.537 -0.2028  0.2750  0.3559
20500W        W40034  17.273  13.933   3.678 -0.1348 -0.3134  0.0384
20501W        W40035  10.019  11.761  16.904  0.0323  0.0405  0.1608
20502W        W40036   3.520  11.984   3.437 -0.0021 -0.2475 -0.0854
20503W        W40037  12.544   2.778   4.585  0.0998 -0.0917 -0.4451
20504W        W40038   5.473  11.213   1.467  0.0341 -0.1332 -0.0098
20505W        W40039   2.343  12.510  14.850 -0.1040 -0.0325  0.1609
20506W        W40040   7.976  12.769   4.753 -0.2557 -0.0657 -0.1163
20507W        W40041  16.767  11.259  12.985  0.0604 -0.1356 -0.0792
20508W        W40042  11.387   6.335  15.664  0.2139 -0.0560 -0.2682
20509W        W40043  13.750   0.845   2.557  0.0137 -0.0174 -0.0281
20510W        W40044  11.090  13.614   1.398  0.1457 -0.0562 -0.2328
20511W        W40045  16.349  11.718   1.900  0.2807 -0.1563 -0.2337
20512W        W40046   6.083  11.937  13.645  0.0056 -0.2281 -0.0911
20513W        W40047   9.027   9.937   2.664  0.0881  0.0025 -0.1289
20514W        W40048   7.447   6.242  13.653 -0.0400  0.2202 -0.0452
20515W        W40049  10.611  14.474   3.436  0.0568  0.1191  0.1039
20516W        W40050  15.361   6.596   1.345 -0.2145  0.1574 -0.1262
20517W        W40051   5.544  12.826  14.266 -0.0835  0.0598 -0.1663
20518W        W40052  17.168   4.347  16.240  0.0042  0.0416 -0.1444
20519W        W40053  15.940   0.610  13.158 -0.2253  0.0411 -0.0272
20520W        W40054   3.352  16.359  16.015  0.0938  0.0914  0.0948
20521W        W40055   6.296  16.581  17.163  0.1440  0.0462  0.2849
20522W        W40056   0.466   3.178  16.332  0.0032 -0.0717  0.1090
20523W        W40057  12.496   0.136   1.284 -0.0552 -0.0874 -0.0389
20524W        W40058   4.283   8.565   1.038 -0.1367 -0.3336  0.1246
20525W        W40059  16.796  11.038   0.298  0.0902  0.2617 -0.3324
20526W        W40060   0.174  13.006   3.189 -0.2547 -0.0575 -0.1858
20527W        W40061   0.854   4.695   1.761 -0.1083  0.4048 -0.2010
20528W        W40062   6.530   2.925  12.981 -0.2326  0.1783  0.1863
20529W        W40063   5.469   1.896   2.006  0.0365 -0.4874 -0.2424
20530W        W40064   8.435  16.232   2.939  0.0496 -0.0268 -0.0995
20531W        W40065   3.715  10.511   1.708  0.1621 -0.1336  0.0544
20532W        W40066   3.587   2.956   1.157 -0.0724 -0.2770  0.1087
20533W        W40067   9.618  10.610   1.713  0.1354 -0.1782  0.0251
20534W        W40068   3.285   6.717  15.209 -0.0558  0.1024  0.1771
20535W        W40069   9.557  13.376  12.106 -0.0659  0.0940 -0.0734
20536W        W40070  14.923  10.637  16.072 -0.1856  0.1336 -0.1485
20537W        W40071   1.595   4.450  12.819  0.1628 -0.1538  0.0185
20538W        W40072  17.189  12.157  17.230 -0.0318 -0.0937 -0.2475
20539W        W40073   3.799  13.290   2.652  0.0044  0.1664 -0.1009
20540W        W40074   6.335   4.044   2.157 -0.2597  0.1458 -0.2764
20541W        W40075   5.505  16.537   1.588  0.0868 -0.2797  0.0383
20542W        W40076  13.477  11.851   3.363 -0.2996 -0.0217 -0.0560
20543W        W40077  15.613   5.541  17.173 -0.0928 -0.1703 -0.4022
20544W        W40078   5.856  12.755  13.489  0.1132  0.0774 -0.0195
20545W        W40079   8.250  17.227  16.980  0.2605  0.3254 -0.2892
20546W        W40080   1.166  16.289  12.575 -0.1781 -0.1785 -0.0998
20547W        W40081  12.319  14.489  16.191 -0.1085 -0.1241  0.1532
20548W        W40082   1.449   4.162  16.716  0.1326 -0.2264  0.3444
20549W        W40083   4.121   8.597   0.554 -0.0483 -0.2998  0.4298
20550W        W40084   5.099   0.460   3.128  0.0554 -0.5294 -0.1072
20551W        W40085  11.599  11.427   1.351  0.0781  0.1335 -0.1225
20552W        W40086   4.048   5.391  14.998 -0.0658 -0.0793  0.0166
20553W        W40087  11.583   5.998  15.324 -0.2238  0.0660 -0.4128
20554W        W40088  10.889   5.322   2.883 -0.1991 -0.0305 -0.1767
20555W        W40089   7.886  17.254   3.425  0.3757 -0.0159  0.0336
20556W        W40090  11.088   9.177  15.083 -0.2841 -0.0739  0.1016
20557W        W40091  13.761   6.842  14.835 -0.0326  0.2375  0.2855
20558W        W40092   6.017   9.031  12.003  0.1780  0.1602 -0.2120
20559W        W40093   0.499  10.613   0.041  0.1191 -0.1483 -0.1677
20560W        W40094   2.932  10.038   5.265  0.0972 -0.0590  0.0629
20561W        W40095   4.934  10.416  14.096 -0.0831  0.1798  0.1211
20562W        W40096   9.237  13.866  16.904  0.0797 -0.1055  0.0193
20563W        W40097  15.247  15.829  12.654 -0.0739  0.2195 -0.1131
20564W        W40098  13.790   1.866   4.327  0.1069  0.1128  0.1288
20565W        W40099   7.071   1.277   1.455 -0.0008 -0.1647 -0.0074
20566W        W40100   1.700  14.541   2.857 -0.0038  0.0828 -0.4042
20567W        W40101  10.359   9.850  16.983 -0.4696 -0.3969 -0.2741
20568W        W40102   6.737  17.082  15.154  0.0832 -0.3099  0.1847
20569W        W40103  11.196  11.563  16.392 -0.3147 -0.2026  0.0368
20570W        W40104   6.242   6.736   2.308  0.1601 -0.3720  0.2065
20571W        W40105   3.032   8.395  13.848 -0.1914  0.0759  0.1220
20572W        W40106   3.178   8.653   4.054  0.0930 -0.2731 -0.0491
20573W        W40107   7.932   7.413   2.196 -0.2563  0.0300 -0.1729
20574W        W40108   5.269   5.610   3.837  0.0207  0.2971  0.2360
20575W        W40109  13.846  14.901  12.572  0.0109  0.1436 -0.2519
20576W        W40110   6.010   1.241  15.349  0.3907  0.0364 -0.0290
20577W        W40111   8.737   5.215   2.166  0.1236  0.0021  0.1577
20578W        W40112   8.529   8.972  15.264 -0.2769 -0.1946 -0.0649
20579W        W40113   5.268   4.983   4.618 -0.0595 -0.2425  0.3077
20580W        W40114   6.974   0.255  13.165  0.0966 -0.0712  0.2085
20581W        W40115   6.755  12.390   1.265  0.0124  0.0362  0.0450
20582W        W40116   3.549   8.070   2.998 -0.2058 -0.0348 -0.0948
20583W        W40117   1.359  17.393  14.334 -0.0035 -0.2626  0.3942
20584W        W40118  13.653   5.204   1.383  0.1240 -0.1718  0.0375
20585W        W40119  14.445   0.972   1.220 -0.1525  0.0161  0.0061
20586W        W40120   8.340   1.712   1.357  0.2222 -0.1808  0.0285
20587W        W40121   1.358  13.031  15.233 -0.0061  0.0773  0.1204
20588W        W40122   8.105  13.160  13.836 -0.1028 -0.0627  0.0373
20589W        W40123   8.924  12.574   2.968  0.0051  0.1331 -0.1733
20590W        W40124   5.034   1.334   5.025  0.2595 -0.0608 -0.0077
20591W        W40125   2.977   9.420  13.403  0.1682 -0.0613  0.0617
20592W        W40126   0.568  12.955  14.148 -0.2861  0.1815  0.0314
20593W        W40127  17.401  15.642  14.837 -0.2943  0.0702  0.2567
20594W        W40128   3.539  10.991   1.902 -0.0041  0.1221  0.1906
20595W        W40129  10.271  10.331   4.928  0.1556 -0.0154  0.2320
20596W        W40130  11.470  13.527   4.922 -0.1940 -0.0265 -0.0206
20597W        W40131   8.100   6.767  14.213 -0.0388  0.0233 -0.2901
20598W        W40132   0.070   7.326   1.098  0.1713 -0.0794  0.0657
20599W        W40133   6.411   3.814  13.577  0.0718 -0.1712 -0.0785
20600W        W40134   4.722   5.703   3.639  0.0812  0.3892  0.3647
20601W        W40135   5.837   1.161   1.949  0.1147 -0.0720  0.1811
20602W        W40136  11.200  15.932  14.764 -0.0844 -0.1620  0.1909
20603W        W40137   8.344  14.486  14.145  0.1232 -0.1878  0.0189
20604W        W40138   3.082  10.151  15.401  0.0684 -0.0114  0.0029
20605W        W40139  13.227   7.086   3.735 -0.1158 -0.3358  0.0939
20606W        W40140   0.728   8.074  13.982  0.0562  0.2325  0.1876
20607W        W40141  13.469   2.210   3.996  0.0935 -0.1078  0.1972
20608W        W40142   7.346   1.591   1.099  0.0296  0.1434  0.1318
20609W        W40143  14.297  13.029  13.580  0.5654 -0.0844 -0.0049
20610W        W40144   2.900   8.991  17.207  0.1880 -0.1419  0.1278
20611W        W40145  12.776   5.498  16.653 -0.1036  0.1416 -0.1170
20612W        W40146  11.768  14.971  15.716 -0.1105 -0.0263  0.0040
20613W        W40147   6.499  12.073  15.698 -0.1249 -0.2159 -0.1437
20614W        W40148   4.244  16.823   0.427 -0.1045  0.1015 -0.0366
20615W        W40149  11.997   0.005   3.411  0.1780 -0.2010  0.2192
20616W        W40150   1.986   0.921  13.843 -0.1035 -0.1938 -0.1991
20617W        W40151  15.108   2.037  14.855  0.0188  0.1136  0.1198
20618W        W40152  14.365   4.728  13.130  0.0565 -0.1649  0.0602
20619W        W40153   3.129   1.062   4.055 -0.1298  0.1296 -0.4026
20620W        W40154  10.939   5.428  14.230 -0.2898 -0.0016 -0.0811
20621W        W40155   4.258  14.787  14.055 -0.0152 -0.2129  0.2201
20622W        W40156  16.145   9.646  15.899 -0.2439 -0.0006  0.1927
20623W        W40157   4.006  11.057   4.249 -0.0034 -0.3537 -0.2748
20624W        W40158  10.013   2.285  13.901  0.1425  0.0393 -0.3018
20625W        W40159  10.794  11.307  15.964 -0.1592 -0.2231 -0.0092
20626W        W40160  13.488  11.472   4.871  0.0763 -0.1474 -0.0555
20627W        W40161  10.593   0.737  14.347  0.1548  0.0768  0.1266
20628W        W40162   2.421  12.942  12.289 -0.2401 -0.5648 -0.0228
20629W        W40163   4.969  11.349  13.781  0.0750 -0.0200 -0.0425
20630W        W40164   8.872  12.923  12.614 -0.0862 -0.0596  0.1816
20631W        W40165   0.792   2.167   3.137  0.2589 -0.2609 -0.0094
20632W        W40166   9.630   5.719   2.800  0.1029 -0.0959  0.2094
20633W        W40167   0.853   3.278  12.589 -0.2493 -0.1674 -0.1823
20634W        W40168  14.527  10.742   1.010  0.1620  0.1762 -0.1914
20635W        W40169  12.865  16.046  16.862 -0.1681 -0.1416 -0.3971
20636W        W40170   7.155   4.943   3.377  0.0295 -0.0073 -0.1456
20637W        W40171   8.003  17.026   4.338  0.0912  0.0094 -0.1233
20638W        W40172  15.970   9.153  16.912 -0.0907  0.1216 -0.3856
20639W        W40173   7.379   6.940  12.968 -0.0496  0.1760 -0.3114
20640W        W40174   6.478   8.549  14.739  0.0706 -0.0208  0.1953
20641W        W40175   3.945  12.521   3.967 -0.0600  0.0428 -0.0222
20642W        W40176   4.049  15.613  16.951  0.0576 -0.3377 -0.1883
20643W        W40177  10.610   5.635  12.893 -0.1939 -0.1027 -0.0391
20644W        W40178   7.159   0.566  15.642  0.0565 -0.0019  0.2185
20645W        W40179  11.427   1.851   1.754 -0.0226  0.0588 -0.4519
20646W        W40180   9.116  14.247   1.686  0.0880  0.3416  0.0990
20647W        W40181   6.253  15.111   0.268  0.0775 -0.1369  0.0271
20648W        W40182   4.040   1.014  13.446 -0.2143 -0.1503 -0.0856
20649W        W40183  13.829   4.519  16.896  0.1521  0.0017 -0.1569
20650W        W40184  15.608   5.493   4.637 -0.1889  0.1771  0.1601
20651W        W40185   9.759  15.066   3.848 -0.1655  0.0983 -0.1246
20652W        W40186  14.553   9.134  17.125 -0.2441 -0.0091  0.4634
20653W        W40187  12.640   2.949  14.345 -0.0148 -0.1426 -0.2413
20654W        W40188   1.904  10.490   0.620  0.2080 -0.0994 -0.1354
20655W        W40189  10.232   9.142  16.327 -0.3032 -0.2575 -0.0226
20656W        W40190   1.081  12.088  15.454  0.2471  0.0683 -0.1612
20657W        W40191  10.173   3.817   0.971  0.1349 -0.1146  0.0782
20658W        W40192   9.085  11.097   0.796  0.1199  0.0795 -0.0256
20659W        W40193  17.344   8.692  15.526  0.0870 -0.3438 -0.2927
20660W        W40194  16.215   1.214  14.672 -0.0682 -0.3223  0.0032
20661W        W40195   2.082   0.298  12.037  0.0812 -0.1467 -0.3633
20662W        W40196   6.139   4.593  14.678 -0.1158  0.1845 -0.0919
20663W        W40197  10.441   0.147  14.101 -0.0756 -0.2750  0.0458
20664W        W40198   8.316  14.079  14.444 -0.1540  0.4424 -0.1452
20665W        W40199   9.518   8.799   3.676 -0.1784 -0.2804  0.1686
20666W        W40200  15.409   7.744   0.897 -0.2280 -0.0254  0.0610
20667W        W40201   9.508  11.800   2.047 -0.2202 -0.1665 -0.1521
20668W        W40202   5.123   7.679   2.559  0.0375 -0.3370 -0.2671
20669W        W40203   2.121   5.173  13.562 -0.0223  0.0905  0.2414
20670W        W40204   1.195  10.204   3.466  0.0189  0.1227  0.2326
20671W        W40205   5.030   8.895   0.614 -0.1477 -0.1596  0.2800
20672W        W40206   3.405   5.951  13.318 -0.0243  0.1802  0.2950
20673W        W40207   3.864  14.001  13.031  0.0572 -0.0921  0.4288
20674W        W40208  10.529   4.043   1.231  0.2912 -0.1025  0.0080
20675W        W40209   7.744   1.314  14.786  0.0644  0.0071 -0.1754
20676W        W40210   4.926   4.386  13.612 -0.1083  0.2343 -0.3012
20677W        W40211   7.037   9.082  13.968  0.1514 -0.1411  0.0718
20678W        W40212   1.561  12.784  14.425 -0.1457 -0.2968  0.1493
20679W        W40213   5.658   9.671  15.944  0.2208  0.2939  0.2007
20680W        W40214   1.032  10.853  16.973 -0.1265 -0.0531  0.0860
20681W        W40215   6.795   6.180  16.882  0.2333 -0.3150  0.2118
20682W        W40216  16.902   4.380  15.323  0.2272 -0.4702 -0.0540
20683W        W40217   6.000   5.617  12.371 -0.2154  0.1274 -0.2203
20684W        W40218   6.783   1.350   2.126  0.3121 -0.2301  0.0234
20685W        W40219   7.564   9.258   4.777 -0.0183 -0.2548 -0.1097
20686W        W40220  12.398   0.416  15.655  0.1903 -0.1071  0.1565
20687W        W40221   9.369  13.028   1.910  0.0856 -0.0355  0.2611
20688W        W40222  17.389   0.293  13.419 -0.2192  0.0917  0.0328
20689W        W40223   6.398   0.838   4.438 -0.0287 -0.0066  0.0535
20690W        W40224   0.701   4.126  13.636 -0.1084 -0.3143  0.1602
20691W        W40225  14.811   7.248   2.755 -0.0252 -0.2384  0.0982
20692W        W40226  16.494  17.270   4.808 -0.0341 -0.0344  0.0075
20693W        W40227   9.249  10.990   0.298 -0.0495  0.0982 -0.1123
20694W        W40228  16.179   4.186   4.028 -0.0464 -0.2134 -0.0422
20695W        W40229   2.799  17.043   1.476 -0.1029  0.0906  0.0635
20696W        W40230   8.167   7.244   4.791  0.0989 -0.1511 -0.0387
20697W        W40231  14.352   4.627   0.489  0.2135  0.5437  0.0340
20698W        W40232  11.108   4.907  16.220 -0.0041  0.0918 -0.0310
20699W        W40233   3.548  12.650   3.627  0.0576  0.0891 -0.0593
20700W        W40234   8.793   6.603   5.253  0.0493  0.0672 -0.3004
20701W        W40235  13.976  16.062   1.464  0.0930 -0.1728 -0.3886
20702W        W40236   0.598   8.530  15.999  0.0830 -0.2385 -0.0855
20703W        W40237   9.459   2.972   3.457 -0.1817 -0.1138 -0.1002
20704W        W40238  12.441   2.042  12.147  0.0961 -0.1052 -0.2533
20705W        W40239  16.499  13.333   1.943 -0.4527  0.0263  0.2962
20706W        W40240  14.959  16.914   2.820 -0.4476  0.1686  0.2488
20707W        W40241  10.092  13.757  16.622 -0.1604 -0.1791  0.0787
20708W        W40242   7.479   8.157   5.058  0.0391  0.0730  0.1381
20709W        W40243  11.998  14.202   0.977  0.0180 -0.0875  0.0450
20710W        W40244  16.169   8.147  16.052 -0.2640  0.2812 -0.0043
20711W        W40245  10.621   3.802   5.065  0.0293 -0.0762 -0.1995
20712W        W40246   4.997   2.991   5.201  0.0198  0.1673 -0.0596
20713W        W40247  15.711   2.872  13.169 -0.0842  0.0128 -0.0083
20714W        W40248  16.830  12.847  16.279 -0.0898  0.0525 -0.1026
20715W        W40249  16.368   5.383  14.146  0.2590  0.0339 -0.0645
20716W        W40250  14.439  15.699  13.945  0.1307 -0.0093  0.0294
20717W        W40251   3.204   0.803  14.523 -0.2572  0.0035  0.2534
20718W        W40252  12.292  15.957   1.946  0.0475  0.1345 -0.1423
20719W        W40253  16.500  10.616   4.554 -0.1528  0.1555  0.1253
20720W        W40254   5.887   7.189  12.412  0.1305 -0.2345  0.1493
20721W        W40255  11.185   7.544  16.584 -0.0643  0.0920  0.0982
20722W        W40256   4.173   8.895   0.156  0.1391  0.1979 -0.1494
20723W        W40257   6.130  10.709   1.101  0.0080  0.0049  0.1561
20724W        W40258   4.615   8.638   0.705  0.3111 -0.2784 -0.0092
20725W        W40259   1.499   4.056   2.249  0.0113 -0.3098 -0.4562
20726W        W40260  12.478   1.109   5.753 -0.1896  0.0694 -0.2631
20727W        W40261  14.515   6.714  16.372  0.1239 -0.1500 -0.1234
20728W        W40262   5.384  13.444   1.934  0.2122 -0.2030 -0.1320
20729W        W40263  12.966   0.335  16.799  0.1866 -0.0897  0.0934
20730W        W40264  11.884   0.849   3.425  0.3780 -0.0487 -0.1667
20731W        W40265   3.756   3.098  15.194 -0.1785 -0.5646 -0.1104
20732W        W40266  12.500   8.507   3.486  0.0942 -0.1771  0.0263
20733W        W40267  14.247   0.757   0.355 -0.2316 -0.2118  0.0043
20734W        W40268  11.744  10.760   1.487 -0.0374 -0.1491  0.2434
20735W        W40269   5.944   8.946   3.502 -0.3244 -0.0844 -0.5190
20736W        W40270   3.899  14.541  13.103 -0.0992  0.1355 -0.1815
20737W        W40271   8.651  15.081   2.065  0.1905  0.2460 -0.0441
20738W        W40272   7.465  14.874  14.114 -0.0056 -0.0855 -0.1107
20739W        W40273  10.464   5.812  13.362  0.2727 -0.1023 -0.4323
20740W        W40274   4.421   2.068   4.221 -0.0590 -0.1063  0.1310
20741W        W40275  16.413  15.052   2.611 -0.1160 -0.1094 -0.0142
20742W        W40276  16.821   8.173   1.105  0.1113 -0.0819 -0.0243
20743W        W40277   3.787   4.847   2.068 -0.0836  0.2734 -0.5181
20744W        W40278   5.553   2.238  15.769 -0.0042  0.0147 -0.2006
20745W        W40279   6.625  12.888   1.257 -0.3510 -0.1265  0.1172
20746W        W40280  17.320   8.935  11.649 -0.1180 -0.0251  0.0427
20747W        W40281  11.142  10.009  12.482  0.0729  0.2564 -0.0286
20748W        W40282   9.098  14.084  13.683  0.0672  0.2524 -0.0281
20749W        W40283   3.911   4.387   4.908 -0.2727  0.1397 -0.3426
20750W        W40284   9.354  10.034  15.614  0.0211 -0.2162  0.0896
20751W        W40285   8.820   1.686  15.037  0.1143  0.0717  0.3646
20752W        W40286   2.861  13.664   3.274 -0.0301  0.1423  0.0318
20753W        W40287  11.240  12.582  16.774 -0.0430 -0.1499  0.1077
20754W        W40288   6.957   3.188   3.129  0.2068 -0.2211 -0.3320
20755W        W40289  14.550   1.560  12.608 -0.4030  0.1393 -0.1197
20756W        W40290   8.255   1.839  13.026 -0.2099  0.0079 -0.4508
20757W        W40291   3.355   3.272   0.428 -0.0868  0.0822 -0.0632
20758W        W40292  12.608   3.243   4.617  0.3157 -0.0742 -0.2270
20759W        W40293   6.590   4.450   2.905 -0.2048 -0.1996 -0.0361
20760W        W40294   4.154   2.339   0.857  0.1720 -0.1684  0.0328
20761W        W40295  17.306  13.995  17.085  0.1343 -0.0997 -0.0869
20762W        W40296  11.419   4.917  13.762 -0.1445 -0.3527 -0.0598
20763W        W40297  10.280   8.082   4.432 -0.2465  0.1229  0.1223
20764W        W40298  14.143   8.545  12.612 -0.0524  0.2465 -0.0416
20765W        W40299   9.119   6.025  13.196  0.1507 -0.0749 -0.1907
20766W        W40300  11.615   7.867   2.299 -0.0688 -0.0223 -0.3188
20767W        W40301   5.588   1.560   3.548  0.0414  0.1550  0.2323
20768W        W40302   0.468   7.600   4.522 -0.1235  0.1016  0.1883
20769W        W40303   3.635   4.973   2.826  0.0857 -0.0914  0.2315
20770W        W40304   6.030   9.451  16.402  0.0253 -0.0451 -0.2268
20771W        W40305   4.278  14.695  15.361  0.0589  0.1539  0.0633
20772W        W40306   9.338   5.942   3.221  0.0656  0.0045  0.1944
20773W        W40307  17.137   7.369  15.282  0.2539 -0.1523  0.0408
20774W        W40308   4.646  10.309   1.187 -0.2743  0.1834 -0.1185
20775W        W40309  10.957  12.499  16.056  0.3033  0.2367 -0.0533
20776W        W40310   9.321   1.062  16.680 -0.1683 -0.1045  0.1990
20777W        W40311  14.660   3.359   2.558  0.0484 -0.0551  0.1046
20778W        W40312   8.651   5.125   4.137  0.0715 -0.2281 -0.3728
20779W        W40313   6.376   6.617  12.373  0.0273 -0.0399  0.2077
20780W        W40314  14.453  10.511  17.031 -0.2117  0.2215 -0.0652
20781W        W40315  12.086   5.254   1.296  0.1524  0.0412 -0.2471
20782W        W40316  13.043   5.400  12.310  0.1678 -0.0233 -0.3619
20783W        W40317   0.167   3.442   2.598 -0.0478  0.0719  0.1023
20784W        W40318   9.145  15.801  16.113 -0.0147  0.1303  0.0563
20785W        W40319  17.285  15.083   3.212  0.0669 -0.1279  0.2430
20786W        W40320   8.990  10.446   2.630 -0.2815  0.1368  0.2575
20787W        W40321   9.527  13.553   4.641  0.2798  0.0126  0.2575
20788W        W40322   7.638   1.785   3.084  0.1165 -0.0527  0.2585
20789W        W40323   1.932  14.449  16.881  0.0399 -0.0529 -0.3974
20790W        W40324   4.690   5.816  12.421  0.1025 -0.2229  0.0209
20791W        W40325   3.319   7.237   3.758 -0.1652  0.0418 -0.1956
20792W        W40326   2.544   6.989  14.752  0.1507 -0.0908 -0.0302
20793W        W40327   4.957   7.578  13.983  0.0076 -0.0891 -0.1888
20794W        W40328  16.137  10.597   3.743  0.1264 -0.3534 -0.2112
20795W        W40329  14.307  11.570  15.658  0.1049 -0.0798 -0.0590
20796W        W40330   9.314  14.471   3.242  0.1736 -0.1328 -0.1910
20797W        W40331   8.487   8.164   1.130  0.0651  0.1857  0.0360
20798W        W40332  16.878   1.167  15.904 -0.1378 -0.1751  0.3683
20799W        W40333   1.618  16.948  16.127  0.0455 -0.1919  0.1052
20800W        W40334   1.020  15.141  15.251 -0.2292  0.2019  0.2049
20801W        W40335  12.668   6.901  12.449 -0.1312  0.1708 -0.2080
20802W        W40336  15.881   2.845  12.692  0.2995 -0.3119  0.1445
20803W        W40337   0.942  11.203   3.316 -0.4138 -0.1633  0.1910
20804W        W40338  10.513  16.733  15.223 -0.1076  0.0422 -0.1338
20805W        W40339   2.744   5.592   2.360  0.2501 -0.2687  0.0490
20806W        W40340   5.006   0.978  15.291  0.3323 -0.3238  0.0634
20807W        W40341  11.519  14.363   4.977  0.1604  0.2202 -0.2223
20808W        W40342   6.234  15.000   2.577  0.0413  0.0109  0.0017
20809W        W40343   4.765   6.078  16.068 -0.0934 -0.0372  0.0921
20810W        W40344   7.021  11.371  17.005  0.0301  0.1230 -0.1144
20811W        W40345   5.863  11.100   0.832 -0.0786  0.0879  0.2680
20812W        W40346  13.637   6.191   0.004 -0.0523 -0.2242 -0.4443
20813W        W40347   4.046   1.109   2.004  0.4387 -0.2193  0.3070
20814W        W40348  10.562  16.058  13.396 -0.0437  0.0854  0.1605
20815W        W40349   8.594  10.638  13.285 -0.0453 -0.1425 -0.1886
20816W        W40350   1.260  11.432   4.729 -0.2333 -0.1318  0.1967
20817W        W40351   1.292   8.344   2.134  0.1684 -0.0225 -0.0107
20818W        W40352   7.734   2.627  17.041  0.0349 -0.2242 -0.3217
20819W        W40353  10.777  12.090  14.426  0.1719 -0.1087  0.2695
20820W        W40354  15.525   9.328   3.540  0.0319 -0.1133  0.2185
20821W        W40355   4.007  14.880  14.453  0.1790  0.0674  0.0569
20822W        W40356   4.141   3.986   3.635 -0.1698  0.3450 -0.1519
20823W        W40357   2.993  16.496   5.063 -0.1585  0.1469  0.2657
20824W        W40358  10.627   0.197   3.559  0.0066  0.3498 -0.0655
20825W        W40359  16.379   4.353  16.017 -0.0049 -0.0364  0.3624
20826W        W40360   8.935  11.588  15.964  0.1861  0.1387  0.2601
20827W        W40361   0.285   0.719  15.138 -0.1163 -0.1088  0.1706
20828W        W40362   0.320  10.260  14.709  0.1090 -0.2925 -0.1059
20829W        W40363  10.256  15.769  16.101 -0.1112  0.0402  0.1802
20830W        W40364   4.962   3.758   4.771 -0.2342  0.2581  0.3903
20831W        W40365   9.156  14.961   0.328 -0.0548 -0.0012 -0.2453
20832W        W40366   6.363  15.176  12.281  0.0355  0.2764  0.0887
20833W        W40367  17.192   7.420  13.730 -0.0883  0.2511  0.3242
20834W        W40368  11.931  17.113  15.067  0.2061  0.1781 -0.2204
20835W        W40369   8.802   8.563   4.296 -0.1300  0.1726  0.1196
20836W        W40370   0.944   0.042  11.136 -0.2408  0.2517  0.3531
20837W        W40371   8.420  13.623  15.305 -0.2477  0.2002  0.3248
20838W        W40372  14.025  10.479   1.475  0.1626 -0.1498 -0.1249
20839W        W40373  15.801   6.461   1.084  0.0838 -0.1497 -0.0148
20840W        W40374  13.558   2.486  16.023  0.0754 -0.0031  0.0957
20841W        W40375  12.652  11.674  14.365  0.1825  0.0997  0.0968
20842W        W40376  14.999   2.044   1.569 -0.1608  0.1569  0.2816
20843W        W40377  16.106  14.246   0.735 -0.0412 -0.1401  0.0369
20844W        W40378   7.839   0.525  13.239  0.1298 -0.1438 -0.0012
20845W        W40379  11.664  13.676  16.943  0.1430 -0.0179 -0.2494
20846W        W40380   0.159   3.969  14.364 -0.2004  0.0695 -0.0671
20847W        W40381  12.813   7.386   4.151  0.2787  0.0025 -0.0378
20848W        W40382  11.442  10.158   3.065  0.2765  0.1548 -0.0327
20849W        W40383   6.978   0.759  13.938 -0.2609  0.4699 -0.1321
20850W        W40384  11.495   5.444  15.487 -0.1729 -0.3764  0.3514
20851W        W40385   3.718  11.774  14.616  0.2305  0.2183 -0.0667
20852W        W40386   0.707  15.828   0.724  0.3329  0.0167  0.1058
20853W        W40387   3.784   4.503  12.941 -0.1429  0.1398 -0.2633
20854W        W40388  11.063  16.314  12.515 -0.0074  0.2048  0.1821
20855W        W40389   0.731   1.916  14.536 -0.2669  0.0652  0.0850
20856W        W40390  12.326  15.578  16.413  0.2152  0.0644  0.0457
20857W        W40391  14.044  10.538   2.549  0.0754  0.1480 -0.1277
20858W        W40392   5.787   2.432  14.677 -0.1018  0.3250  0.2680
20859W        W40393  12.772  17.427   1.656 -0.2566  0.2576 -0.3088
20860W        W40394  12.693   8.759   4.477  0.3673  0.0645  0.2192
20861W        W40395   4.479   5.197   1.167 -0.0487  0.1959 -0.1330
20862W        W40396  14.145   4.363  14.666 -0.2558 -0.1261  0.0641
20863W        W40397   3.247   0.637   0.067 -0.1885 -0.1483 -0.1609
20864W        W40398   6.673  13.280  14.671 -0.3810  0.3727  0.1380
20865W        W40399   0.645  16.287  16.693  0.0366 -0.2430 -0.0113
20866W        W40400   9.376   4.931   0.518 -0.4779 -0.1806 -0.2669
20867W        W40401  10.912   2.435  16.547  0.0801  0.4500 -0.0120
20868W        W40402   7.149  14.695   3.019 -0.2698 -0.1899 -0.2440
20869W        W40403   0.403   1.138   1.862  0.1465 -0.0002 -0.0849
20870W        W40404  17.187  14.445  14.290 -0.0973  0.0417  0.1889
20871W        W40405  13.243  16.166  14.698  0.2572  0.0631 -0.0302
20872W        W40406   6.166  15.828  15.434 -0.2625  0.1708 -0.0195
20873W        W40407  17.300  14.874   4.696  0.1087  0.1151 -0.0336
20874W        W40408  10.043   8.730   3.676  0.0705  0.0369  0.3861
20875W        W40409   7.306  11.593   1.585  0.1169 -0.1253  0.2233
20876W        W40410  13.907  16.027  12.730  0.0949  0.3362  0.1309
20877W        W40411  12.416   5.514   1.034  0.4178 -0.0791 -0.2177
20878W        W40412  13.132   3.083   1.427 -0.2137  0.2375  0.0209
20879W        W40413   8.355   4.862  15.052  0.3527  0.3828 -0.0526
20880W        W40414  12.545  15.398   1.926 -0.2697  0.1259  0.3267
20881W        W40415  15.325  11.116   3.252 -0.0567 -0.0530  0.2212
20882W        W40416  12.088  12.252   1.112  0.2343  0.0214  0.2967
20883W        W40417   7.896   7.031   0.969  0.0736  0.1804  0.2640
20884W        W40418   7.421   9.246  13.545 -0.3179 -0.1032 -0.1210
20885W        W40419   9.115   2.068  15.116  0.5051  0.4056  0.0900
20886W        W40420  12.914   8.744  17.307  0.0838  0.2179  0.0083
20887W        W40421   4.620  10.052  16.479  0.2045  0.0930  0.2765
20888W        W40422  17.391   1.060   3.432 -0.0426  0.0159 -0.0334
20889W        W40423   6.500   1.467   0.068  0.3064 -0.1259  0.1548
20890W        W40424  11.383  14.960  14.333 -0.2807  0.0901 -0.0335
20891W        W40425   1.912   8.050  12.809  0.0464 -0.1070 -0.0198
20892W        W40426   8.798  15.893   3.122  0.1543 -0.3764 -0.0993
20893W        W40427   5.725   0.747   0.226 -0.1373  0.0920  0.0597
20894W        W40428   4.956   6.342   4.947  0.1172  0.0857 -0.0466
20895W        W40429   7.086  15.192   0.672  0.2041 -0.0560  0.1296
20896W        W40430   5.905  15.604   4.888 -0.0479 -0.3119 -0.0706
20897W        W40431   4.671  15.778   0.897 -0.3792 -0.0810 -0.2619
20898W        W40432   1.228   1.249   0.633 -0.1407  0.0928  0.3234
20899W        W40433   4.439   7.833   3.067 -0.1295  0.2889  0.0539
20900W        W40434   9.563  17.149  16.921  0.1599  0.1628  0.1256
20901W        W40435  11.122   8.131   2.997  0.1271  0.1905  0.0537
20902W        W40436   4.442  12.320   3.726  0.1731 -0.0045 -0.0795
20903W        W40437   5.200   4.815  14.911  0.3675  0.1104 -0.0429
20904W        W40438  16.672  12.232   3.516  0.2920 -0.0257 -0.0100
20905W        W40439  11.118   4.449   0.617 -0.2745  0.2802 -0.0419
20906W        W40440   0.620   0.169  14.482  0.2195 -0.1791  0.0998
20907W        W40441   6.119   2.997   4.614  0.2819  0.1010 -0.0127
20908W        W40442   9.449  13.301  15.706 -0.1017 -0.2384  0.2887
20909W        W40443  16.866  12.051   0.256  0.2796  0.0156  0.0654
20910W        W40444   9.242  10.437   1.464 -0.1571  0.0556 -0.1789
20911W        W40445  14.090   0.133   4.352 -0.1621 -0.2398 -0.1417
20912W        W40446  10.663  14.056   0.946  0.1907 -0.0052  0.1166
20913W        W40447  15.727  14.578   3.184 -0.1917  0.0987  0.1458
20914W        W40448   3.270  15.033   0.763 -0.0798 -0.2495  0.1463
20915W        W40449   6.801   5.517   1.678  0.1063 -0.0317  0.0164
20916W        W40450  16.666   8.456  14.799 -0.0847  0.2417  0.0609
20917W        W40451   3.739  10.220   4.639  0.0360 -0.3151  0.0224
20918W        W40452   6.611   8.669   1.022 -0.1920  0.3553  0.0156
20919W        W40453  13.126   1.314   1.847  0.3031 -0.1796  0.1033
20920W        W40454   4.089   7.795   1.217 -0.0447  0.0644  0.0696
20921W        W40455  12.536  11.340   1.650  0.0969  0.0137 -0.1383
20922W        W40456  15.522   9.456  16.186  0.1106  0.0023 -0.2786
20923W        W40457   0.924   5.421  14.657  0.3005  0.0367 -0.0794
20924W        W40458   4.049  12.365  12.174 -0.0534  0.1322 -0.2473
20925W        W40459   0.623   5.349  16.797 -0.0874 -0.0882 -0.2435
20926W        W40460  13.448   9.094  14.957 -0.1421  0.1327 -0.0541
20927W        W40461  16.302  15.045   3.906  0.4234  0.2462 -0.1955
20928W        W40462   3.269   8.846   2.475  0.0184 -0.0127 -0.0769
20929W        W40463   9.894   0.307   0.309  0.0978  0.0569  0.0158
20930W        W40464   0.833   0.620   3.618 -0.1427 -0.0700  0.0605
20931W        W40465   9.405  17.468  12.935 -0.1533 -0.1089  0.1056
20932W        W40466   9.291   3.906   3.244 -0.1954 -0.3511 -0.0210
20933W        W40467  15.278   5.112   0.544  0.0982 -0.0043 -0.3754
20934W        W40468  10.939   8.335   5.108  0.2455 -0.0427 -0.2185
20935W        W40469  11.271   7.846   0.762 -0.0041  0.1193 -0.0517
20936W        W40470   5.007  12.618   3.009  0.0296 -0.1746 -0.1164
20937W        W40471   8.856  11.741   3.774 -0.1376  0.0355  0.0172
20938W        W40472   7.593  13.430  16.762  0.0634 -0.1846 -0.0434
20939W        W40473   5.941   5.463   4.846 -0.1309  0.0262  0.1951
20940W        W40474   4.905   6.975   1.989  0.3108  0.1748  0.0197
20941W        W40475   4.626  13.349  16.560 -0.3199 -0.0874 -0.1710
20942W        W40476   0.065   3.506   4.877 -0.2005  0.0275  0.2009
20943W        W40477   8.748   3.703  15.134 -0.1581  0.0137  0.0412
20944W        W40478  14.197   1.751  15.299  0.0959  0.1531  0.1384
20945W        W40479  15.506  13.251  16.125 -0.1105  0.0574  0.0152
20946W        W40480  11.008   8.901  16.932  0.3119 -0.2294 -0.2110
20947W        W40481   3.628  16.309   2.131  0.3176  0.2399 -0.0140
20948W        W40482   2.713   4.643   0.440 -0.1218 -0.1250 -0.3880
20949W        W40483   8.366  10.492  16.936  0.1103 -0.0563 -0.1753
20950W        W40484  14.866   4.975  13.148  0.2789  0.0836 -0.1077
20951W        W40485   4.337   1.498   1.121 -0.0654 -0.1270 -0.1031
20952W        W40486  17.415  11.851  13.323  0.4357 -0.2315 -0.0417
20953W        W40487   2.130   9.388  17.168 -0.4906  0.0711  0.0809
20954W        W40488   0.425   0.769   0.572 -0.3150  0.1004  0.0381
20955W        W40489   6.305  17.027  13.293  0.0970 -0.2768  0.3721
20956W        W40490   3.566   6.156   0.751 -0.0316 -0.1407 -0.0167
20957W        W40491  14.114  16.761  12.361  0.0696  0.0870  0.1490
20958W        W40492   9.898   2.239   0.877 -0.3589 -0.0792 -0.1631
20959W        W40493  10.249   0.675   2.452  0.1880 -0.0271 -0.1171
20960W        W40494   5.905   8.308  12.601 -0.0625 -0.0701  0.1658
20961W        W40495  16.772  17.198   1.319  0.1341  0.2300  0.1392
20962W        W40496   1.820  16.819   1.925  0.2268  0.0550  0.3239
20963W        W40497   5.742   6.532  16.871 -0.1718 -0.0169  0.2546
20964W        W40498   6.207  16.692   4.108 -0.0370  0.1300  0.0795
20965W        W40499   2.588   7.520  16.946 -0.3808 -0.2990 -0.1844
20966W        W40500   2.001   8.871   3.969 -0.1056 -0.1065 -0.0611
20967W        W40501   8.510   3.778   2.076 -0.1411 -0.1897 -0.3917
20968W        W40502   2.300   3.428  16.040 -0.2860  0.1157 -0.3679
20969W        W40503  16.846   4.927   2.348  0.1902  0.0556  0.2317
20970W        W40504   8.102   4.332   0.411  0.0809  0.1016 -0.0539
20971W        W40505  11.658   7.492  15.678  0.0610 -0.0808 -0.0340
20972W        W40506   7.812  14.383  14.011  0.0529  0.1360  0.1283
20973W        W40507  10.574   6.993   5.224  0.1430 -0.0567  0.0037
20974W        W40508  14.169   3.191  15.327  0.0076  0.2407 -0.1509
20975W        W40509  15.601  12.960  14.697  0.2757 -0.1217  0.3426
20976W        W40510   2.268   7.309   1.173  0.3121 -0.1141 -0.0136
20977W        W40511  13.160   6.626  16.103  0.0374 -0.0701  0.1858
20978W        W40512   5.460   1.874   1.157  0.2739 -0.0156 -0.0721
20979W        W40513   1.992   3.096  15.369 -0.2135  0.1826  0.1335
20980W        W40514   2.118   3.033   5.111  0.1179 -0.0396  0.1333
20981W        W40515  13.277  16.995  17.025 -0.2568  0.3281  0.3187
20982W        W40516   2.746  10.975  14.030  0.2362  0.0812  0.1552
20983W        W40517  14.691  16.178  13.543 -0.2100  0.2118  0.1353
20984W        W40518   2.624   8.717   0.512  0.1071  0.0605 -0.0942
20985W        W40519   6.707   5.716  15.408 -0.0807 -0.0828 -0.0207
20986W        W40520  16.281   6.478   2.024  0.1032  0.1724 -0.0208
20987W        W40521   5.318  14.005  14.567  0.0716  0.1391  0.2183
20988W        W40522  13.188  10.030   0.479  0.1526  0.1787 -0.0723
20989W        W40523   6.322   4.213  16.067 -0.1626 -0.1890 -0.1076
20990W        W40524   8.869   7.309  13.693  0.1810  0.0463  0.0522
20991W        W40525   4.409  12.923  12.757  0.0803 -0.1035  0.0350
20992W        W40526   2.819  12.508  12.908 -0.1746  0.1720  0.0466
20993W        W40527   3.399  15.361   1.119 -0.1014  0.1379 -0.1651
20994W        W40528  15.980  16.212  17.034  0.0139 -0.0376 -0.0974
20995W        W40529   2.546  12.616  11.940  0.1762  0.3836  0.1440
20996W        W40530   0.168   7.114   2.968  0.0340 -0.3398  0.1025
20997W        W40531  17.404  11.117  12.275  0.1443 -0.1207  0.1010
20998W        W40532   4.959   3.716  14.216  0.0434  0.0882 -0.0722
20999W        W40533   4.698   9.917  15.924 -0.1187 -0.1417 -0.0849
21000W        W40534  11.318   9.483  16.109 -0.0426  0.0036 -0.0342
21001W        W40535  11.859   9.162   4.597  0.0405 -0.0265  0.1021
21002W        W40536  12.127  11.283  13.281  0.2967 -0.1428 -0.2958
21003W        W40537   5.484   1.103   3.851  0.1810  0.3215 -0.2370
21004W        W40538   4.886   5.390   4.747  0.0595 -0.0619 -0.0370
21005W        W40539  15.004   7.286   4.697 -0.1358  0.0464 -0.0875
21006W        W40540  10.330   7.671   1.750 -0.0547 -0.0437  0.1245
21007W        W40541   0.772  10.972  14.388  0.0351  0.0341 -0.2996
21008W        W40542   1.509   6.280   5.153  0.0298 -0.1756 -0.1911
21009W        W40543   9.010   7.788  16.181 -0.4675  0.2472 -0.1691
21010W        W40544   6.548   7.177  16.774 -0.0466  0.3402 -0.0330
21011W        W40545   1.177   3.280   2.154  0.0130  0.0636  0.0121
21012W        W40546  17.238   6.919  13.913  0.0042 -0.1168  0.3811
21013W        W40547   9.959   5.834   4.983  0.0761 -0.0380 -0.0052
21014W        W40548   6.330   7.252   2.231 -0.1112 -0.0077  0.0074
21015W        W40549  12.841   6.528   4.332  0.0899  0.0159 -0.1821
21016W        W40550   8.845  10.918  16.558  0.1636 -0.0629 -0.3823
21017W        W40551   9.190   0.008  17.057  0.2212 -0.2857 -0.2772
21018W        W40552  15.400   2.219  15.236 -0.0408 -0.2202 -0.0223
21019W        W40553   5.264  10.854  14.779  0.3531  0.2255 -0.1727
21020W        W40554   9.591  10.960   1.168  0.1741 -0.0130  0.0278
21021W        W40555  14.540   0.121   3.404  0.0350 -0.2845  0.2662
21022W        W40556  15.040  14.433  13.693 -0.2014 -0.1571  0.1292
21023W        W40557   3.418   5.306  13.653 -0.0394 -0.1317 -0.1909
21024W        W40558   8.786  15.309   3.064  0.3576  0.2449 -0.0891
21025W        W40559  13.825   8.112  12.905 -0.0597 -0.1707 -0.1032
21026W        W40560   2.460  12.815  14.004  0.1141 -0.0686  0.0155
21027W        W40561  10.862   2.664  15.062  0.3174  0.1575  0.0363
21028W        W40562   2.798  14.664   4.489 -0.0501 -0.1292  0.0288
21029W        W40563   2.400   8.697   5.404  0.0742  0.0244  0.0017
21030W        W40564   8.824  15.452  13.751  0.0973 -0.1314  0.0206
21031W        W40565  10.737  12.226  12.672  0.1475  0.1274 -0.0604
21032W        W40566  11.819  14.062   1.443  0.0329 -0.1625 -0.2828
21033W        W40567  16.761  10.024   1.234 -0.2849  0.3733 -0.1240
21034W        W40568   6.084   8.234  17.245  0.1366  0.3298  0.0436
21035W        W40569   8.710   5.149   1.693  0.3278 -0.1507  0.0958
21036W        W40570   3.894   7.074  13.148  0.2196 -0.0421 -0.4345
21037W        W40571  16.171   5.428   2.435 -0.0268  0.0813 -0.1367
21038W        W40572   6.315  11.216  14.785 -0.0968 -0.3199 -0.1108
21039W        W40573   7.538   0.713   2.316 -0.0615 -0.2768  0.0421
21040W        W40574   7.077  14.085  14.145 -0.2569 -0.0185 -0.0949
21041W        W40575   6.748   7.353  14.060  0.0606  0.0171 -0.3346
21042W        W40576  13.830  14.720  13.099 -0.0630  0.2469  0.0165
21043W        W40577   9.758  12.862  14.959 -0.1780 -0.0765  0.4387
21044W        W40578   8.345   7.557   0.388  0.0209  0.0371  0.1078
21045W        W40579  13.986   5.749   0.089  0.0507 -0.3762  0.0403
21046W        W40580   8.149  14.404  13.644 -0.0256 -0.1994 -0.5194
21047W        W40581   0.383  11.407  16.947  0.2236 -0.1377 -0.0827
21048W        W40582  12.660  13.446   3.798 -0.1279  0.3156  0.2339
21049W        W40583  12.245   2.812  16.554 -0.0252  0.1929 -0.0966
21050W        W40584  14.673   0.925  16.182  0.0210  0.0248  0.1599
21051W        W40585   5.724   0.038  14.723  0.0438  0.2053 -0.0668
21052W        W40586   5.539   4.854   2.893 -0.2404  0.1793 -0.0138
21053W        W40587   9.730  14.215   4.646  0.0779  0.0821  0.0839
21054W        W40588   7.447  12.171   5.062 -0.0901  0.1749  0.1172
21055W        W40589   0.180  13.781  12.527 -0.0074  0.3048 -0.2471
21056W        W40590  13.685  15.438  13.503  0.1391  0.1358 -0.0095
21057W        W40591   5.555   4.221  12.854  0.0782 -0.2234 -0.1069
21058W        W40592   2.623  14.590  16.748 -0.3096 -0.0096 -0.2150
21059W        W40593  14.110   8.273  15.874  0.1216 -0.0150 -0.0726
21060W        W40594   6.232  12.967  16.388  0.1217  0.2668 -0.2685
21061W        W40595   4.673  15.306  17.044  0.1834  0.2603 -0.1282
21062W        W40596  10.671   7.334   4.238  0.0074  0.2003 -0.2330
21063W        W40597  10.305   7.888  17.162  0.0609 -0.1718 -0.0517
21064W        W40598   5.789   8.565   3.172  0.1445 -0.1082 -0.0309
21065W        W40599   8.844   9.832  14.213  0.0829 -0.2354  0.0344
21066W        W40600  17.068   4.651   4.305  0.0085 -0.0178 -0.1239
21067W        W40601   4.205  17.341  17.016  0.2320  0.1721  0.2458
21068W        W40602  12.653   0.642  12.119  0.1650  0.0583  0.2176
21069W        W40603  12.135   0.168   2.522  0.3540  0.0990 -0.3585
21070W        W40604  10.845   9.513  15.353 -0.1189  0.0923 -0.1063
21071W        W40605   5.075   7.403  13.005  0.2057  0.1162  0.3054
21072W        W40606  13.902   6.038  15.315  0.0611  0.4509 -0.3694
21073W        W40607   9.181   3.479  14.041  0.0024  0.0828 -0.0860
21074W        W40608  17.172  15.630   3.181 -0.0700 -0.0628 -0.0395
21075W        W40609   2.306   1.925  15.644 -0.3051 -0.0920 -0.2350
21076W        W40610   5.104  16.938   0.998  0.1825 -0.0191 -0.3491
21077W        W40611  12.202   4.078   0.985  0.0090  0.2064  0.1749
21078W        W40612   3.387  13.083   4.532 -0.0633  0.3749  0.0520
21079W        W40613  11.041   9.142   0.051 -0.1811  0.2278 -0.3350
21080W        W40614  14.431   2.629  16.480 -0.0818 -0.0215 -0.1321
21081W        W40615  10.833  16.246  15.771 -0.0762 -0.1325  0.0620
21082W        W40616   1.111   3.036   2.649  0.0421  0.0662  0.1887
21083W        W40617   0.652  15.623   3.382  0.0050  0.0883 -0.1669
21084W        W40618   9.887  11.837   4.337  0.0864 -0.2372  0.3555
21085W        W40619  14.553   1.802  17.000 -0.0734  0.1065  0.0758
21086W        W40620   6.195   9.746  15.156  0.2635 -0.1939 -0.0931
21087W        W40621  13.514  11.436  14.111 -0.1030  0.1287  0.1540
21088W        W40622   6.360   0.145  16.382  0.1841  0.1460  0.1866
21089W        W40623   4.352   3.503  11.932  0.0614  0.2265  0.0873
21090W        W40624   1.235   7.647  15.123  0.1202 -0.2024  0.3152
21091W        W40625   2.511  15.952  15.822  0.1794  0.0545 -0.1609
21092W        W40626   0.492  17.272  14.777 -0.1411  0.1425 -0.0070
21093W        W40627   1.652  15.189  13.885 -0.2298  0.0445  0.0638
21094W        W40628   1.168  11.268   1.149 -0.3043  0.1673 -0.1055
21095W        W40629   9.382  12.493  14.987 -0.2007  0.0479 -0.2541
21096W        W40630   7.370  10.589   4.754  0.2805  0.1250 -0.0587
21097W        W40631  10.869  13.245   0.637  0.2570 -0.2230 -0.3693
21098W        W40632   8.009   8.415  12.169  0.0431  0.0036  0.1011
21099W        W40633   1.297  14.079   3.354 -0.0136  0.0907  0.5781
21100W        W40634  16.683   3.811  13.484 -0.0259 -0.0594  0.2838
21101W        W40635   3.204  16.106   2.277 -0.3256  0.0467  0.1765
21102W        W40636  14.898  13.706   2.507 -0.2175  0.1227  0.2287
21103W        W40637   8.436  17.331  15.596  0.0839 -0.1025 -0.1093
21104W        W40638   4.723  13.134   0.272 -0.0676  0.0650 -0.3337
21105W        W40639  14.646  12.036  16.344 -0.1508 -0.1468 -0.2422
21106W        W40640   5.903   7.411  12.855 -0.2216 -0.2942 -0.1821
21107W        W40641   7.634   6.711  15.719 -0.1529 -0.3249 -0.3772
21108W        W40642   0.083   4.246   1.796  0.0287  0.3166  0.2226
21109W        W40643  10.352   9.339  17.042 -0.1940  0.2969  0.1370
21110W        W40644   8.084  14.265   3.552 -0.1190 -0.0928  0.2234
21111W        W40645   4.727   0.492   0.822 -0.1022 -0.1427 -0.1175
21112W        W40646   7.839  12.550  14.857 -0.2143 -0.1971  0.2120
21113W        W40647   2.731  15.083  13.531 -0.1903 -0.1915 -0.2654
21114W        W40648   4.881  11.362   1.943 -0.0554  0.2557 -0.1353
21115W        W40649   8.324  11.920  17.082 -0.0506 -0.3134  0.0753
21116W        W40650   5.873  11.996  15.113 -0.0044  0.1309 -0.3597
21117W        W40651   5.831   1.919  12.153 -0.1947 -0.1148 -0.2559
21118W        W40652   7.137  14.781  16.774 -0.0088 -0.1679  0.1667
21119W        W40653   5.416   6.939  14.496  0.0594 -0.0426 -0.3187
21120W        W40654   6.008   2.676   2.226 -0.1726  0.0701 -0.0263
21121W        W40655   3.028   6.152   4.662  0.1010  0.2626  0.1468
21122W        W40656  12.525  13.655   3.329  0.0546 -0.1610  0.1315
21123W        W40657   2.708  14.297   4.864 -0.0261 -0.0644  0.3857
21124W        W40658   2.138   4.410  12.987 -0.1655 -0.3076  0.1442
21125W        W40659  17.107  15.611   1.958  0.0791  0.1583 -0.3103
21126W        W40660  11.330  16.456   4.751  0.0636 -0.2128 -0.0055
21127W        W40661   2.336  16.499  12.061  0.2297 -0.0206 -0.3372
21128W        W40662  12.811   9.506  16.915 -0.0169 -0.0872  0.1359
21129W        W40663  16.199   7.794   3.126  0.0104  0.3328  0.1415
21130W        W40664  10.008   5.455  14.475 -0.2035  0.0817 -0.1733
21131W        W40665   7.579  12.120   3.865  0.2744 -0.1092  0.4363
21132W        W40666   2.692   7.333   1.456 -0.2406 -0.0356  0.0556
21133W        W40667   1.541   5.457   5.184  0.3107  0.0895  0.0557
21134W        W40668   7.473   8.529  16.608 -0.1226 -0.0705 -0.1587
21135W        W40669   2.171   7.613   2.187  0.1090 -0.2284 -0.1118
21136W        W40670  15.100  13.307   4.387 -0.0223  0.2070 -0.4962
21137W        W40671   6.828  10.927  13.038 -0.0987  0.0491  0.3939
21138W        W40672   0.357   1.697  13.639 -0.1474 -0.2336  0.0264
21139W        W40673   5.347   0.790   0.661 -0.0936  0.1893  0.3547
21140W        W40674  14.301  14.679   3.949  0.1406 -0.1357 -0.1183
21141W        W40675  10.284   1.037  13.536 -0.4303  0.1052 -0.1600
21142W        W40676  17.028   6.942   3.984  0.3050  0.1606  0.0025
21143W        W40677  14.909   3.243   1.387 -0.2878  0.0194 -0.0453
21144W        W40678  12.658   5.686  17.128  0.0579 -0.0840  0.2892
21145W        W40679  13.137  16.760   3.773  0.1162  0.3150  0.5247
21146W        W40680  13.740   0.996  17.023  0.0653 -0.3340  0.0649
21147W        W40681  14.044   2.167   3.315 -0.0627  0.1301  0.0852
21148W        W40682   9.619   3.447   0.283 -0.1900 -0.2387 -0.0343
21149W        W40683   2.019   3.311   3.120  0.1132  0.0200 -0.3077
21150W        W40684   1.151   9.248  14.485 -0.1284 -0.0824 -0.0125
21151W        W40685   3.828   1.548   1.153  0.0848 -0.3467 -0.0336
21152W        W40686   6.202   8.956   1.073 -0.0846  0.0109  0.1059
21153W        W40687   7.783   3.262   4.170 -0.3685  0.1709 -0.0699
21154W        W40688   6.146   7.482   3.790  0.0521  0.1494 -0.1430
21155W        W40689   4.378  16.493  15.377 -0.1205 -0.0860 -0.0773
21156W        W40690   3.935  12.214  14.467  0.1912  0.4821  0.0316
21157W        W40691   3.565   2.202   2.330 -0.1591  0.1066  0.0283
21158W        W40692   8.098   5.757  14.913 -0.0096  0.1596 -0.0084
21159W        W40693   7.176   9.028   2.079  0.0707 -0.0849 -0.2283
21160W        W40694   0.060   9.040   4.923  0.2626 -0.1921  0.0905
21161W        W40695   6.889   3.565   4.656  0.0696  0.0500  0.0433
21162W        W40696   1.142   9.532   5.007 -0.2912  0.0577 -0.0585
21163W        W40697   8.195   0.253   2.529 -0.2844 -0.1323  0.2781
21164W        W40698  11.171   1.181  13.542 -0.1366 -0.3139  0.0627
21165W        W40699  13.170  14.516   1.364  0.0885 -0.2558 -0.1414
21166W        W40700  11.712   3.684   2.225  0.0108 -0.1444  0.1226
21167W        W40701  16.653  16.949  17.205  0.0480 -0.1541 -0.3240
21168W        W40702   3.796   5.341  14.529 -0.1291  0.1240 -0.0750
21169W        W40703  13.332  12.775   4.483 -0.0274  0.0277  0.0705
21170W        W40704   1.965   7.236   3.074  0.3875 -0.1806  0.3212
21171W        W40705  11.725   2.395  16.044 -0.1150 -0.4731 -0.1702
21172W        W40706  13.747  16.983   4.698 -0.2590 -0.0460 -0.0615
21173W        W40707   1.327  14.113  16.158 -0.1895 -0.2448  0.1372
21174W        W40708  16.953   0.852   0.130  0.1726  0.1762 -0.0350
21175W        W40709   3.103  10.384  15.928  0.1870  0.2024  0.0580
21176W        W40710   4.949  17.276   1.301  0.0649  0.1162  0.0428
21177W        W40711   6.141  14.074   3.541 -0.1404 -0.1090 -0.1618
21178W        W40712   1.929  17.212  17.006  0.1245  0.3941 -0.1466
21179W        W40713  12.228  13.435   4.866  0.2083 -0.1201 -0.1758
21180W        W40714   5.848  13.662  15.931 -0.0028  0.2329 -0.2113
21181W        W40715   4.811   4.353   5.117 -0.0610 -0.0762  0.0208
21182W        W40716   9.752   8.164  14.332  0.2804 -0.1791 -0.3297
21183W        W40717   6.089  10.438   3.129  0.0866 -0.0716 -0.1407
21184W        W40718  11.968  14.102   0.477 -0.1497 -0.0471 -0.1545
21185W        W40719  12.908   5.357  13.228 -0.1800 -0.1363 -0.0076
21186W        W40720  16.409  11.194  13.435 -0.1398 -0.0160  0.2204
21187W        W40721   1.965  12.177   0.752 -0.0270 -0.1532 -0.0856
21188W        W40722   5.306   9.327   2.024  0.2903  0.0307 -0.1499
21189W        W40723  15.253   7.570  16.642 -0.2497  0.0515 -0.1305
21190W        W40724  14.564   7.444  11.882 -0.2263 -0.0056 -0.0696
21191W        W40725   9.655  12.080  13.658  0.1257 -0.3158  0.0134
21192W        W40726   1.313   6.373  14.048  0.0157  0.2916 -0.0835
21193W        W40727  15.278   7.827  16.172  0.0844  0.0383  0.0673
21194W        W40728   1.742   6.928  15.710  0.0269  0.0600 -0.2018
21195W        W40729   9.031  14.989   1.218 -0.1612  0.2574  0.0139
21196W        W40730   6.698   0.623  14.323  0.1114  0.2558  0.0349
21197W        W40731   3.216  15.322   1.941 -0.1095  0.0757 -0.3637
21198W        W40732  12.935   1.585  15.111 -0.0840  0.1664  0.0677
21199W        W40733   2.765  13.006   5.186  0.2560 -0.1640  0.0220
21200W        W40734   2.345  11.719  16.763 -0.0039 -0.0628  0.0845
21201W        W40735  10.405  13.084   0.592  0.1930  0.1667 -0.1640
21202W        W40736   4.313   4.782   2.103  0.0106 -0.0078 -0.3117
21203W        W40737   8.898   7.566  15.503 -0.0225 -0.0765 -0.1607
21204W        W40738  12.735  14.655   4.187 -0.0891 -0.1021 -0.0040
21205W        W40739   9.062  14.340   4.299  0.4307 -0.2808  0.0005
21206W        W40740  15.233  16.984  13.537  0.0667 -0.0727 -0.0669
21207W        W40741   5.022  11.774  14.175  0.0464 -0.2548 -0.0996
21208W        W40742   2.876  16.863  14.671  0.1506 -0.0095  0.0879
21209W        W40743   3.178  17.469   4.774 -0.1600 -0.2043  0.1604
21210W        W40744   5.716   1.895  13.198  0.0228 -0.3748  0.2963
21211W        W40745  15.733   9.788  15.539 -0.2677 -0.0527 -0.2257
21212W        W40746  14.163   7.961   4.634  0.3349  0.1596 -0.0416
21213W        W40747   6.237   5.435   3.207 -0.2818  0.4233  0.1089
21214W        W40748  11.142   3.198   0.135  0.3845  0.2750  0.3217
21215W        W40749  14.558  13.361  13.361  0.0457  0.0434  0.1904
21216W        W40750  14.183  11.703   1.015  0.1662 -0.2800 -0.1649
21217W        W40751   9.330  12.180   3.090 -0.0676  0.1155 -0.0987
21218W        W40752   8.874  10.386  15.609 -0.1893 -0.0155  0.0202
21219W        W40753   7.588  10.377   5.170 -0.0176  0.1871  0.0219
21220W        W40754   9.729   8.697   3.243 -0.0980  0.2896 -0.0925
21221W        W40755   6.221  15.201   4.218  0.0870 -0.4151  0.0245
21222W        W40756   4.545   5.763  14.347 -0.2623 -0.1503 -0.0609
21223W        W40757   7.185   7.235   4.605 -0.3240  0.0176 -0.0471
21224W        W40758  15.341  12.667   2.175 -0.4148  0.3133 -0.4982
21225W        W40759  11.830   4.785  12.364 -0.1562  0.2138 -0.0436
21226W        W40760   8.496   8.666  13.113  0.0950 -0.3440 -0.3496
21227W        W40761   8.467   5.644  13.631 -0.0269 -0.1177 -0.1775
21228W        W40762  10.276   0.363  17.241 -0.0405  0.0956  0.1580
21229W        W40763   4.834   5.460   4.240 -0.0667  0.0056 -0.1438
21230W        W40764   0.322   5.028   0.328 -0.0507 -0.1915  0.1682
21231W        W40765   4.957  13.698   2.155 -0.2261 -0.5104  0.1516
21232W        W40766   3.056   5.510   4.545  0.0162  0.0551 -0.2235
21233W        W40767   8.428  12.626   4.650 -0.1266  0.2542 -0.2976
21234W        W40768   1.108   2.954   4.210 -0.0517 -0.1255  0.3791
21235W        W40769  15.592  11.043   3.733 -0.3704 -0.1606  0.2028
21236W        W40770  15.669   8.958  12.388 -0.1445 -0.4405 -0.1005
21237W        W40771  16.576   1.027   4.694 -0.0493  0.0735 -0.1347
21238W        W40772   5.325   8.370   2.086 -0.1562  0.0040  0.0497
21239W        W40773  15.437   4.732   2.300  0.0009  0.0362 -0.0663
21240W        W40774   4.085  11.229  16.778 -0.1062 -0.1567  0.0356
21241W        W40775  17.092   8.289   1.691  0.0124  0.2138 -0.1714
21242W        W40776  16.114  17.377   2.999 -0.0973 -0.0107 -0.0505
21243W        W40777  16.167   2.850   0.512 -0.1033  0.0014 -0.0009
21244W        W40778   0.844  10.296  13.978 -0.3801  0.0039 -0.2332
21245W        W40779  16.022  15.149   1.275  0.1367 -0.1931  0.1821
21246W        W40780   5.070   7.323  15.476 -0.1395  0.1290 -0.1601
21247W        W40781   3.854  10.922   0.240 -0.0948 -0.1104 -0.1742
21248W        W40782   2.576  15.883  16.823  0.1413  0.0772 -0.0208
21249W        W40783  16.320   2.012   3.642  0.1269 -0.1913  0.3279
21250W        W40784  16.343   6.235  14.154  0.1890 -0.2324  0.0849
21251W        W40785  11.948   7.004   1.574  0.1435  0.0581  0.2706
21252W        W40786  11.342   4.578   1.209 -0.1030 -0.0242 -0.0421
21253W        W40787  15.084  11.880   1.823  0.1124  0.5513 -0.0036
21254W        W40788  13.609   9.925   0.218  0.2721 -0.1066 -0.0484
21255W        W40789   0.244   6.735  13.800 -0.0685 -0.0425 -0.2480
21256W        W40790  16.461   6.946   4.003 -0.2986 -0.0152 -0.1741
21257W        W40791  11.129  14.818   0.595 -0.2648 -0.1531  0.0239
21258W        W40792   7.812  12.746  13.392  0.1600 -0.0418  0.1919
21259W        W40793  16.508   0.374  14.744 -0.0238  0.1612 -0.2130
21260W        W40794   1.369   1.865   3.845  0.2529 -0.1121  0.0722
21261W        W40795   7.636  10.511  15.012  0.1856 -0.2806  0.3163
21262W        W40796   9.448   2.560   1.142 -0.0944 -0.0979 -0.2543
21263W        W40797  15.900   3.510   2.977 -0.1519 -0.1699  0.0449
21264W        W40798  16.984  12.653  14.709 -0.0835  0.2423  0.0940
21265W        W40799   2.895   7.113  15.699  0.0737 -0.1653  0.0219
21266W        W40800   5.328  12.515   1.585 -0.2542 -0.0190  0.1863
21267W        W40801   4.995  11.511  16.808  0.0911 -0.0414  0.2756
21268W        W40802  16.431  12.299  13.586 -0.0127  0.2445 -0.0457
21269W        W40803  16.030   9.496  16.429 -0.1810  0.1266 -0.0340
21270W        W40804   8.558   7.916   4.797  0.0171 -0.1911 -0.1766
21271W        W40805   6.877  12.300   5.420 -0.3520  0.0715  0.1686
21272W        W40806  12.805   8.691   5.345  0.3066  0.0413 -0.1098
21273W        W40807  15.041  16.911  16.226  0.0793  0.0540  0.1703
21274W        W40808  13.752  16.818  14.800  0.0224 -0.2870  0.2785
21275W        W40809  11.602   7.101   0.556 -0.1742  0.5948 -0.1459
21276W        W40810   8.164   0.949  13.191  0.1516  0.0055 -0.0289
21277W        W40811  14.348   7.588   4.903 -0.2020  0.1755  0.1622
21278W        W40812   9.596  12.268   4.387  0.1414 -0.1185 -0.1142
21279W        W40813   8.289  11.052  12.726 -0.0345  0.0278  0.2230
21280W        W40814  14.702   7.209   1.390  0.1379 -0.0202 -0.1212
21281W        W40815   4.275   6.668   4.427 -0.0095  0.0281 -0.3647
21282W        W40816  11.075   2.664   3.337  0.5000  0.1088  0.1640
21283W        W40817   9.556  12.755   4.606  0.2078 -0.1595 -0.2522
21284W        W40818   9.801  13.084   0.123 -0.0258  0.2254 -0.1677
21285W        W40819   1.422   2.531  12.803 -0.1777 -0.0820  0.0299
21286W        W40820  15.919  15.483  12.882  0.0664 -0.2631  0.2814
21287W        W40821   3.182   3.192   0.935 -0.1236 -0.1351 -0.4289
21288W        W40822   7.569   4.130  16.941 -0.0592  0.2391  0.1246
21289W        W40823  15.790   5.538  13.257  0.1059 -0.1605  0.0128
21290W        W40824  10.968  11.035   4.299  0.4290 -0.1119 -0.1705
21291W        W40825   4.033  10.672   2.635  0.1883 -0.2074 -0.1708
21292W        W40826  10.693  14.887  13.412 -0.1312  0.4206  0.3008
21293W        W40827  10.514   8.633   1.833 -0.2961  0.1860 -0.1354
21294W        W40828   1.185   4.463   2.092  0.1772  0.0884  0.1432
21295W        W40829  16.349   7.114  15.208 -0.0961 -0.1728  0.0803
21296W        W40830   3.513  13.446   1.208  0.2219 -0.3179 -0.3864
21297W        W40831   9.164   7.144  15.388 -0.1291  0.0433 -0.1808
21298W        W40832   0.731  10.928  15.481  0.2443 -0.1725  0.2508
21299W        W40833  11.684  12.227   4.899 -0.0884  0.2157  0.1934
21300W        W40834  16.391   3.141  14.875  0.1111 -0.1577  0.3257
21301W        W40835  15.418   6.992  15.874  0.1994  0.1657 -0.2261
21302W        W40836  10.832  16.152   0.951 -0.1767 -0.1256 -0.0380
21303W        W40837   7.992   2.519   0.180 -0.1184 -0.0099 -0.1139
21304W        W40838   3.831  16.606   3.868 -0.0774  0.0958  0.2924
21305W        W40839   1.711   0.624   2.195 -0.1246  0.2017  0.1715
21306W        W40840  10.520  15.189   5.311 -0.0650 -0.0865  0.1474
21307W        W40841   4.033  14.690   1.903 -0.0736 -0.2509 -0.1092
21308W        W40842  10.804  14.545  15.689 -0.2414 -0.3345  0.2003
21309W        W40843  13.213  10.574   1.530 -0.0763 -0.0807  0.0453
21310W        W40844  14.255  11.421  16.676  0.1869 -0.2829  0.0600
21311W        W40845  16.791   4.274  12.755 -0.0385 -0.3893  0.1275
21312W        W40846   2.245  17.074   2.229 -0.1439  0.0218 -0.1699
21313W        W40847  17.236   9.668   4.041 -0.0077 -0.0581 -0.0726
21314W        W40848   5.351   1.039   1.567  0.1658  0.1017  0.1348
21315W        W40849  10.326   1.783  16.791 -0.0658  0.2149 -0.0591
21316W        W40850   5.271   8.584   1.524  0.0127  0.1104 -0.1629
21317W        W40851  11.508  13.791  13.334  0.0729  0.1159 -0.0881
21318W        W40852   7.041   9.380   2.744 -0.0993 -0.3600 -0.0351
21319W        W40853   0.823   4.867  16.613  0.3983 -0.4420 -0.1182
21320W        W40854  13.069  11.221  16.213 -0.3435  0.5151  0.1243
21321W        W40855   8.992  11.389  16.422 -0.0279  0.1630 -0.0516
21322W        W40856   5.430  15.745  14.177 -0.0128 -0.1620  0.1392
21323W        W40857   0.885  13.172   0.405  0.0407  0.0911  0.0056
21324W        W40858   0.880   0.135  16.469 -0.1667  0.0716 -0.1170
21325W        W40859   6.148  15.925   1.152 -0.3634 -0.0223 -0.3565
21326W        W40860   4.706   3.316  13.186 -0.0803 -0.1402  0.2517
21327W        W40861   8.974  14.508  13.386 -0.3627 -0.0568  0.1197
21328W        W40862  15.999  17.427   0.635  0.2062  0.1913 -0.0508
21329W        W40863   3.187  14.955   4.747  0.1153 -0.2197 -0.2049
21330W        W40864  15.497   1.190  15.254 -0.1033 -0.1794  0.1589
21331W        W40865  16.858   9.728   1.646  0.0756 -0.0768 -0.0793
21332W        W40866   5.101   3.862  13.728 -0.3501 -0.2058  0.0385
21333W        W40867  13.113   3.245   3.748  0.1927  0.3943  0.0425
21334W        W40868   5.748  16.505   4.000  0.0112 -0.2743 -0.0192
21335W        W40869  10.510  10.434  16.900  0.0600  0.1026  0.1873
21336W        W40870   4.126  16.621   4.285 -0.1156 -0.1739 -0.1225
21337W        W40871   8.776   1.776   2.101  0.0961  0.0245  0.4288
21338W        W40872   6.255   2.149  13.260  0.0945 -0.0278  0.0402
21339W        W40873  13.867   1.603  13.193  0.1851  0.3755 -0.0291
21340W        W40874   8.868   5.043  11.381  0.0643 -0.0492 -0.2287
21341W        W40875  16.841   2.852  12.852  0.2527 -0.2494 -0.0692
21342W        W40876  15.246  17.313  15.310  0.1712  0.0656 -0.2569
21343W        W40877   5.522  13.865   2.689 -0.1344 -0.0478 -0.0005
21344W        W40878  14.306  15.479   2.817  0.0379 -0.0915 -0.0099
21345W        W40879   4.515  14.137  17.084  0.0072 -0.2039  0.0947
21346W        W40880  15.712  13.124  13.690  0.2376 -0.0122 -0.0483
21347W        W40881   7.887   2.742   3.272 -0.2466 -0.0172 -0.1439
21348W        W40882  12.480  15.300   5.255  0.1329 -0.0945 -0.0187
21349W        W40883  17.403  14.811   5.377  0.1567  0.1434  0.3874
21350W        W40884  13.355  13.762   1.512 -0.2449  0.0411 -0.0638
21351W        W40885  14.387   2.909  16.058  0.2603 -0.0588 -0.1837
21352W        W40886  17.370   3.902  16.455  0.0488 -0.1315 -0.0673
21353W        W40887  12.597   9.964  15.449  0.1636  0.2413  0.1761
21354W        W40888  13.257   2.625   0.627 -0.0559 -0.0018 -0.2511
21355W        W40889   2.514  11.144   2.179 -0.1717 -0.2354  0.2188
21356W        W40890  16.722  11.548   5.056  0.0471 -0.0592  0.2763
21357W        W40891  15.702  15.272  15.233  0.3506 -0.4543 -0.0641
21358W        W40892  14.427   3.028   4.383 -0.1366 -0.2202 -0.1083
21359W        W40893  13.135  17.324  13.806 -0.1886 -0.0050 -0.1365
21360W        W40894  11.281   8.568   3.880 -0.1287 -0.1146 -0.0056
21361W        W40895   4.436   5.521  13.864  0.0181 -0.1695  0.1416
21362W        W40896   6.543   9.196  14.040 -0.0410 -0.2220  0.0459
21363W        W40897  17.205  15.984   0.787  0.2372  0.2728  0.0984
21364W        W40898  11.295  14.873   0.054  0.1963 -0.1603 -0.1379
21365W        W40899   4.671   6.653  15.580 -0.1527 -0.0211 -0.2094
21366W        W40900  11.156   5.571   0.381 -0.2185 -0.1775 -0.3574
21367W        W40901  14.919   7.652  14.832  0.1542  0.0143  0.0137
21368W        W40902  11.670   1.390   1.493  0.2903 -0.0260 -0.0891
21369W        W40903  16.639  11.833  13.655 -0.2113  0.0169  0.2370
21370W        W40904  13.795   7.148  15.249 -0.0902  0.2668 -0.0209
21371W        W40905  10.326  15.314  16.457  0.1157  0.0525 -0.1121
21372W        W40906   4.941   8.772  14.004  0.4134 -0.1681  0.0783
21373W        W40907  11.771   1.295  13.739  0.2156 -0.3398  0.2534
21374W        W40908   2.809   1.301  12.780  0.0738 -0.1277 -0.0822
21375W        W40909   4.636   6.682   5.086  0.1377  0.1263  0.0029
21376W        W40910   6.017   7.624   2.866 -0.1927  0.2018  0.2463
21377W        W40911  16.143  12.770   0.742  0.0574 -0.0867 -0.2083
21378W        W40912  14.164  11.440   0.590 -0.2706  0.3481 -0.4052
21379W        W40913  12.930   7.143   4.752 -0.2306 -0.1349  0.0955
21380W        W40914  10.261   5.963   4.441  0.4417 -0.1651  0.3822
21381W        W40915   8.718  12.247  13.173 -0.4730 -0.2499 -0.2468
21382W        W40916   7.094  14.889   0.271 -0.2180  0.0948 -0.1576
21383W        W40917  11.560  13.982  16.158 -0.1429 -0.0736 -0.0020
21384W        W40918  11.699  14.886   1.704 -0.0126  0.1158 -0.1133
21385W        W40919   1.496   4.629  14.580  0.1478 -0.1503  0.0660
21386W        W40920   1.813   4.419   0.312 -0.0442 -0.0242 -0.2399
21387W        W40921   5.777  13.179   0.027 -0.3720 -0.1868  0.1589
21388W        W40922   4.633   3.887   3.526  0.2190  0.2790  0.1199
21389W        W40923   0.999  15.653   2.139 -0.0856 -0.0098  0.0243
21390W        W40924   2.152   3.397   0.034 -0.0941 -0.1264 -0.1496
21391W        W40925   4.558   8.412   4.680 -0.0667 -0.0669 -0.1618
21392W        W40926   9.929  12.962   0.618  0.1666 -0.0119 -0.2390
21393W        W40927   3.179   5.936  14.646 -0.1948  0.1793  0.0930
21394W        W40928  12.143  12.211   1.633 -0.1837 -0.1568 -0.0226
21395W        W40929   4.448   1.966   0.921 -0.0422 -0.1067 -0.0707
21396W        W40930   2.832   7.525  16.506 -0.1808  0.0902  0.1601
21397W        W40931   1.182  11.848  17.217  0.2952  0.1539 -0.2604
21398W        W40932   9.884  13.228   3.750 -0.1193 -0.1422  0.1821
21399W        W40933   9.245   6.825  15.010 -0.1494 -0.0380 -0.1353
21400W        W40934   3.377  17.442   3.600 -0.0994  0.0598  0.1088
21401W        W40935  16.680   0.018  12.426 -0.0798 -0.3967 -0.1622
21402W        W40936   4.268   4.366  13.052  0.1359  0.1547  0.2386
21403W        W40937   5.536   5.914   4.706 -0.3825 -0.0419  0.0228
21404W        W40938   6.561   6.958   0.340 -0.0468 -0.0721  0.0163
21405W        W40939   8.593  12.725  15.279 -0.0587 -0.0579 -0.2142
21406W        W40940  13.708   9.177  16.186 -0.0106 -0.1371  0.0711
21407W        W40941  14.080  10.204   1.919  0.1504 -0.0923 -0.0539
21408W        W40942   7.892   9.782  16.385  0.3076  0.0298  0.0382
21409W        W40943  11.425   2.828  13.659  0.1393 -0.0860 -0.2868
21410W        W40944  10.436   1.587   2.021 -0.1557 -0.3641 -0.1559
21411W        W40945   3.994   0.725   1.693  0.3455  0.2321 -0.0348
21412W        W40946   0.662   8.121   1.215  0.1117  0.0090  0.0338
21413W        W40947  12.306   1.163  14.904  0.0037  0.0987 -0.1470
21414W        W40948  10.233  11.225   4.739  0.0309 -0.0987 -0.0895
21415W        W40949   6.713  11.555   0.771 -0.1513 -0.1442  0.1096
21416W        W40950   1.434   3.262  16.982 -0.0284 -0.0033  0.4383
21417W        W40951   7.900   3.879   4.157 -0.2356  0.4324 -0.0740
21418W        W40952  16.415  12.944   1.495  0.0963 -0.3351  0.0444
21419W        W40953   1.889   1.217  12.918  0.0916 -0.2738  0.1375
21420W        W40954  12.658  15.253  15.039  0.1693 -0.2100 -0.1958
21421W        W40955  15.557  13.635  16.925  0.0600  0.1302  0.1588
21422W        W40956   2.746  15.045  14.507 -0.2611  0.3450  0.0645
21423W        W40957   4.419  13.384  13.082  0.1649 -0.1727 -0.0242
21424W        W40958   1.698  16.237   0.832  0.0714 -0.3362 -0.3402
21425W        W40959   2.962   9.426   1.665  0.0361 -0.1918  0.0196
21426W        W40960   9.120  12.371  16.678 -0.0556 -0.1572  0.0306
21427W        W40961   3.414   9.857   0.979  0.3572  0.1690 -0.0425
21428W        W40962  16.892  17.414   5.104  0.0421 -0.0307 -0.0159
21429W        W40963   3.723  12.335   1.663  0.0458  0.2531 -0.0652
21430W        W40964   2.277  15.761  15.363 -0.0582  0.1369 -0.0120
21431W        W40965  15.029   2.939   3.790  0.2598  0.2472 -0.0293
21432W        W40966   2.591  11.914  12.574 -0.2564 -0.1960  0.0882
21433W        W40967  16.581  15.833   1.024  0.0442 -0.1599  0.2370
21434W        W40968   5.531   6.572  15.876 -0.2584 -0.0323 -0.1093
21435W        W40969   9.021  13.903   1.342 -0.1355  0.2553  0.2031
21436W        W40970  15.193   8.981   0.469 -0.1292  0.1299  0.1499
21437W        W40971   4.186   4.131  15.274  0.2504 -0.3864 -0.4435
21438W        W40972  16.734   5.401  14.632 -0.0340 -0.2691 -0.0754
21439W        W40973   2.475   6.066   3.744 -0.3642 -0.3249  0.0618
21440W        W40974   5.394   8.717  16.165  0.2523 -0.1325 -0.0471
21441W        W40975  11.598  10.022   3.551 -0.1488  0.0839  0.1162
21442W        W40976  13.440   6.817  17.082 -0.0690 -0.1112 -0.1117
21443W        W40977   4.035  17.177   1.761  0.2629 -0.3162  0.3316
21444W        W40978   0.811   2.131   1.017  0.2032  0.0425  0.1308
21445W        W40979   0.523   9.175   2.893  0.3840 -0.1490 -0.1210
21446W        W40980  10.979  15.055   5.193 -0.4629 -0.0098 -0.1799
21447W        W40981   4.220  13.917   4.865 -0.0598  0.0512  0.1182
21448W        W40982   0.623   1.971   2.091  0.3297 -0.1486  0.1484
21449W        W40983  17.375   2.540   1.030 -0.0712  0.0150  0.3064
21450W        W40984  16.348  14.573  12.516 -0.1313  0.1260 -0.1489
21451W        W40985   2.246  11.575  12.295 -0.1387 -0.1055 -0.2955
21452W        W40986   6.818  13.508   0.111 -0.1132  0.2114  0.2787
21453W        W40987   0.201  11.151  13.200  0.0024 -0.2976  0.2777
21454W        W40988   1.671   6.379   3.514  0.1009  0.0003  0.2171
21455W        W40989  13.000   4.695   5.456 -0.0240 -0.1834 -0.2498
21456W        W40990   0.735   5.318   5.900 -0.0646 -0.0719  0.0078
21457W        W40991   9.980   1.285  15.441  0.1594 -0.1092 -0.0782
21458W        W40992   0.724  15.386  12.810 -0.0042  0.1599  0.0208
21459W        W40993   1.296   2.199  15.859 -0.0467  0.2627  0.2202
21460W        W40994   4.719   1.742  14.890 -0.2614 -0.2386 -0.4465
21461W        W40995  12.522  14.811  15.402  0.0205 -0.2303  0.2535
21462W        W40996  13.874  11.165  16.943  0.2282 -0.3222 -0.1001
21463W        W40997  12.778  10.459  12.379  0.1459  0.1035  0.1081
21464W        W40998   2.623   5.581   3.424  0.1081 -0.0369 -0.0490
21465W        W40999   5.437   5.425   4.688  0.0770  0.0856 -0.1115
21466W        W41000   3.450   4.435   2.002 -0.1333 -0.2783  0.1291
21467W        W41001   0.377  17.289   2.138  0.0103 -0.1060  0.2114
21468W        W41002  16.103   6.623   4.427  0.1582  0.3871  0.0534
21469W        W41003  12.393   8.172  12.977  0.0755 -0.1339 -0.1720
21470W        W41004   6.758  17.446  16.083  0.1489 -0.1031 -0.0965
21471W        W41005  11.970   3.178   4.264  0.1471 -0.0068  0.0397
21472W        W41006   7.144   4.772   1.873 -0.2613 -0.1734 -0.2416
21473W        W41007   1.038   4.512   4.098  0.0315 -0.0599  0.0501
21474W        W41008   3.741  16.613   0.235 -0.0017  0.1654 -0.2829
21475W        W41009   2.949   5.460   5.293 -0.0489 -0.2359  0.3148
21476W        W41010  10.709  14.041  14.828 -0.0521  0.4575  0.0924
21477W        W41011  16.797   2.972   5.006 -0.0503 -0.1235 -0.3734
21478W        W41012   1.336  13.747  12.231 -0.1242 -0.0196 -0.1190
21479W        W41013  10.229  10.702   2.532  0.0425  0.2340  0.1560
21480W        W41014   1.137   5.256   4.645  0.1787 -0.0814 -0.0411
21481W        W41015  15.702   9.484  13.639  0.1462  0.2520 -0.0337
21482W        W41016   6.035  16.205  16.222 -0.1171  0.0643 -0.1503
21483W        W41017  10.097   6.958  13.156  0.1750 -0.1448  0.1962
21484W        W41018  13.056   7.956   2.569 -0.2379 -0.0263 -0.2293
21485W        W41019  14.989  11.557   4.017 -0.1608  0.0928  0.0498
21486W        W41020   4.503  10.047   2.723  0.0274  0.3096 -0.2472
21487W        W41021   8.786  13.533  15.752  0.3791 -0.0255 -0.0078
21488W        W41022  11.872  15.306  14.464  0.0365  0.1583 -0.3111
21489W        W41023   8.004  14.998  15.347 -0.0975 -0.0295  0.0560
21490W        W41024   3.492   6.234   4.458 -0.0054 -0.0274  0.0816
21491W        W41025  13.931  10.062   1.076  0.0619 -0.0616 -0.0521
21492W        W41026   4.017   5.514  15.502  0.0024 -0.0908  0.0604
21493W        W41027  13.102   6.184   3.133  0.2228 -0.0695  0.0914
21494W        W41028  10.601  11.794  13.558 -0.1524  0.0478  0.1889
21495W        W41029  15.848   6.890   3.670 -0.0831 -0.0004 -0.1549
21496W        W41030  15.129   3.370   0.975  0.0525 -0.1321 -0.2285
21497W        W41031   4.175  13.431  14.128  0.0013 -0.1006  0.0003
21498W        W41032  14.904   5.112  15.544 -0.0650 -0.2325 -0.1352
21499W        W41033  16.899  16.485   5.052 -0.1503  0.1178  0.0266
21500W        W41034  10.834  10.532   1.936 -0.1771 -0.0325  0.1272
21501W        W41035  15.546   8.784  17.311 -0.0970 -0.4006  0.0687
21502W        W41036   8.921   4.983  14.887  0.2995  0.1906 -0.1400
21503W        W41037  16.341   1.677   0.393 -0.0834 -0.2022  0.0285
21504W        W41038   8.453  12.197   3.611 -0.1139  0.1200  0.1422
21505W        W41039  11.321   7.404   4.130  0.3529 -0.0023 -0.1281
21506W        W41040   1.793   3.212  12.105 -0.2091  0.2643  0.1475
21507W        W41041   1.659  12.364   1.094 -0.0358 -0.2727 -0.1259
21508W        W41042  15.302   4.099  12.732  0.0234 -0.1699 -0.1218
21509W        W41043   8.966  14.663  16.014  0.2538 -0.0029 -0.0204
21510W        W41044   6.444   7.945   3.724  0.0874 -0.0546  0.1074
21511W        W41045   7.395   8.311  14.026 -0.0106  0.1697 -0.0577
21512W        W41046   7.084   8.158   3.639 -0.2773 -0.2173 -0.0224
21513W        W41047  15.654  11.953  15.787  0.2508  0.1582  0.1818
21514W        W41048   9.440  14.081   0.976 -0.3144 -0.2910 -0.1194
21515W        W41049   0.537  11.164  13.636  0.1893  0.0612  0.2557
21516W        W41050   8.404  16.159   3.444  0.1425 -0.1981 -0.0649
21517W        W41051  11.549   1.997  13.218 -0.1825  0.0458  0.0408
21518W        W41052   5.381  13.960   2.175  0.0201 -0.1642 -0.0912
21519W        W41053  14.446   0.560  16.423 -0.3095  0.0572  0.3495
21520W        W41054   2.186   0.559  14.270 -0.1439  0.0839 -0.0390
21521W        W41055   3.460  14.363   1.672  0.0579  0.0708  0.2349
21522W        W41056   1.922  17.069   0.609 -0.3968 -0.0776  0.0106
21523W        W41057  10.340  10.254   0.684 -0.0283  0.1128 -0.4113
21524W        W41058  10.507  14.524   3.902 -0.1632 -0.1272  0.0079
21525W        W41059   6.368  16.184   4.099  0.1069 -0.0121  0.2664
21526W        W41060   6.499  10.232  13.343  0.2321 -0.0364 -0.0385
21527W        W41061   7.000   3.648   2.781 -0.1321  0.0447  0.1137
21528W        W41062   9.065   1.212  15.060 -0.0963 -0.0935 -0.0186
21529W        W41063   3.712  11.376   0.486  0.0309 -0.0199 -0.2263
21530W        W41064   5.931   9.441   2.329 -0.1789  0.0668  0.0792
21531W        W41065   3.302   5.062  12.682 -0.1300 -0.0852  0.1905
21532W        W41066   3.671  12.923   0.348 -0.0862 -0.0843 -0.0545
21533W        W41067   7.874   3.178   3.649 -0.0049 -0.0314  0.0565
21534W        W41068  14.252   1.687  16.564  0.2320  0.0765  0.0616
21535W        W41069   0.265   5.039   4.932  0.0791 -0.2159 -0.4597
21536W        W41070  10.469   0.967   2.917  0.1231  0.3411  0.3016
21537W        W41071   2.845   4.685   2.369  0.1100  0.1806  0.1128
21538W        W41072  15.938   8.229  16.542 -0.0456  0.0718  0.2455
21539W        W41073   0.669  15.942   4.585  0.2436  0.0227 -0.0619
21540W        W41074   1.567   3.295   2.870  0.1401  0.3774 -0.0009
21541W        W41075   4.157  13.409  14.886 -0.2458  0.0370  0.1841
21542W        W41076  13.736   1.921  15.239  0.1893 -0.0183  0.2240
21543W        W41077   8.116  13.076   0.167  0.2108 -0.2544 -0.3811
21544W        W41078  15.687  15.457   2.127  0.0643  0.0488 -0.2040
21545W        W41079   8.244   9.367   3.875  0.1237  0.0791  0.1489
21546W        W41080  15.581  12.287   0.481 -0.1092 -0.3045 -0.0929
21547W        W41081   0.148   2.229   1.809  0.0394  0.1050  0.1229
21548W        W41082  10.190  11.423  12.652 -0.1826  0.4403 -0.1431
21549W        W41083  14.676   0.020  12.561  0.1024  0.0645  0.1662
21550W        W41084   1.619   5.193   4.730  0.1957 -0.2982  0.2671
21551W        W41085   3.379   5.353   3.086 -0.0823 -0.2371  0.2286
21552W        W41086  17.199   0.668  13.767 -0.1859  0.0655  0.0916
21553W        W41087  14.118  14.109  15.126 -0.1056  0.3596  0.1375
21554W        W41088  11.681  14.733  12.183  0.0142  0.0997 -0.4300
21555W        W41089  11.035  14.283  12.998  0.0593  0.1986  0.0872
21556W        W41090   6.863   7.510  13.156  0.0037 -0.1535 -0.0438
21557W        W41091   0.774  11.805  16.833 -0.0898  0.2278 -0.2576
21558W        W41092   2.187  11.492   5.006 -0.1435 -0.2136  0.1092
21559W        W41093  16.057   3.238   2.547  0.1267 -0.1083 -0.0685
21560W        W41094   5.357  15.243  14.269  0.1650  0.2734 -0.0084
21561W        W41095  11.643   9.679   3.193 -0.0915 -0.0898  0.3828
21562W        W41096  10.328   4.509  14.196 -0.2662  0.0563 -0.1506
21563W        W41097   7.251  10.123   4.540 -0.3600 -0.1359 -0.0350
21564W        W41098   2.369   5.983  14.218  0.0030 -0.0337  0.2794
21565W        W41099   0.515   9.475   3.347 -0.0751  0.0861 -0.0162
21566W        W41100   5.368   2.078   2.533  0.2415  0.1238 -0.0252
21567W        W41101   9.922   2.490  15.300 -0.4676  0.1307 -0.0498
21568W        W41102   2.426  10.473  13.109  0.0481  0.1827  0.0893
21569W        W41103  15.671  10.773  11.172  0.1449 -0.2311 -0.2086
21570W        W41104  13.867  14.185   2.957 -0.0375 -0.2479 -0.4137
21571W        W41105  11.022   4.284  12.760 -0.0433  0.1161  0.0744
21572W        W41106  14.375   0.639   4.759 -0.1182 -0.2351  0.0270
21573W        W41107   3.602  11.135   4.543 -0.1417  0.3359  0.2494
21574W        W41108   8.230  17.114  13.531  0.1677 -0.0610 -0.0368
21575W        W41109   8.691   7.026   1.179 -0.2853  0.2244 -0.1104
21576W        W41110   0.962   7.132  14.581 -0.1230 -0.2887 -0.1540
21577W        W41111   3.936   7.031  17.137 -0.3884 -0.2773  0.1398
21578W        W41112   7.320   3.683  12.707 -0.4442  0.0686  0.0458
21579W        W41113   8.020   0.742  15.503 -0.1452 -0.1194 -0.0795
21580W        W41114   6.200   2.420  13.828  0.0548 -0.0587 -0.0756
21581W        W41115   8.004   2.026   2.814 -0.2326 -0.1781  0.1698
21582W        W41116  10.345  13.233  16.697 -0.5682 -0.3807  0.0275
21583W        W41117   3.442  11.795   3.894 -0.0127 -0.0502  0.1203
21584W        W41118  12.633   6.331   3.277 -0.0285  0.0578 -0.1412
21585W        W41119  13.444   2.688   1.096  0.1458  0.4593  0.0713
21586W        W41120   8.280   9.367  13.205  0.0618 -0.0241  0.1261
21587W        W41121   6.610   6.705   5.254 -0.0149 -0.3520  0.0415
21588W        W41122  11.545  10.157  14.619  0.1131 -0.2198 -0.1772
21589W        W41123   9.204   7.449   2.596 -0.0669  0.1179  0.1291
21590W        W41124   5.251  13.011   3.857 -0.1103 -0.1591  0.5950
21591W        W41125   0.836   6.571  12.256  0.0954 -0.1753 -0.1437
21592W        W41126   6.811   4.924  13.305  0.0366  0.1153 -0.2852
21593W        W41127  12.524  16.443   5.002 -0.4306 -0.1111  0.1649
21594W        W41128  12.290  12.333   2.680  0.0446  0.2026  0.0852
21595W        W41129   1.483   2.541  16.899 -0.1233 -0.0913  0.0726
21596W        W41130  17.090   8.540   3.497  0.0507  0.2270 -0.0367
21597W        W41131   9.240   1.627   2.294 -0.1011  0.0151 -0.1096
21598W        W41132   7.787   6.332  14.083 -0.1091  0.0344  0.1396
21599W        W41133   3.313  10.746  12.480  0.2297  0.2557 -0.0760
21600W        W41134   8.455  11.963  15.258 -0.1795  0.2536  0.1221
21601W        W41135  11.106   0.327   0.388  0.0981  0.0602 -0.0884
21602W        W41136  16.518   0.831  14.486 -0.0541 -0.2333 -0.1647
21603W        W41137  15.153  17.164   0.764  0.1280  0.1201 -0.2720
21604W        W41138   5.444  11.649   2.756 -0.1535 -0.0983  0.1501
21605W        W41139   5.305   7.764  12.191 -0.1489  0.0003 -0.1477
21606W        W41140   5.664   8.149  12.130 -0.2833 -0.1515  0.0377
21607W        W41141   2.144  15.824   0.702 -0.1792 -0.2431 -0.1550
21608W        W41142   8.533   4.183   0.180  0.0834  0.0746  0.1370
21609W        W41143   2.488   4.823   4.350  0.4776  0.2139 -0.0183
21610W        W41144  11.008  16.770  15.050 -0.0291  0.1626 -0.0252
21611W        W41145  16.429  14.618   0.848 -0.0587  0.3604  0.0590
21612W        W41146   1.339   6.577   2.714 -0.2034  0.2846 -0.0637
21613W        W41147   3.631  15.391  15.238 -0.3911 -0.1124 -0.0836
21614W        W41148  13.819  15.252   2.542  0.4068 -0.1421  0.3588
21615W        W41149  10.090   8.557   4.326 -0.0292 -0.1295 -0.1754
21616W        W41150   3.099  14.734  13.728  0.3409 -0.0633  0.0676
21617W        W41151  14.728  15.286  15.458  0.1225  0.0017  0.1080
21618W        W41152   3.792  10.426   0.412 -0.0103 -0.0247  0.1751
21619W        W41153   6.051   5.817   3.476  0.0497 -0.0270  0.2907
21620W        W41154   1.523  15.645  14.953  0.2035  0.0015 -0.1085
21621W        W41155   8.949   5.327   0.413 -0.0102 -0.2005 -0.0333
21622W        W41156   8.790   2.791  14.542  0.0831 -0.2561 -0.0636
21623W        W41157  10.668   1.849  13.745 -0.0267  0.2421  0.1995
21624W        W41158  10.206  13.455   2.310  0.2187  0.0352 -0.1042
21625W        W41159   9.515   5.137  14.445 -0.2159  0.2076  0.3040
21626W        W41160   8.116  15.697   1.893 -0.0143 -0.0827 -0.2498
21627W        W41161  14.799   8.875   1.106  0.0488  0.1117  0.0717
21628W        W41162  14.542   1.203   0.249 -0.1102 -0.0592 -0.1258
21629W        W41163  12.669   1.708  12.770  0.1090  0.1306 -0.2681
21630W        W41164  13.877   4.413   0.430 -0.1230  0.1932 -0.0030
21631W        W41165   4.689  11.770   3.326 -0.0340 -0.1321  0.0719
21632W        W41166   9.862  15.560  12.377 -0.1929 -0.1955 -0.0439
21633W        W41167  13.935  12.277  14.710 -0.1812  0.1419  0.0722
21634W        W41168  14.952   8.092   1.922 -0.0050  0.2257  0.0361
21635W        W41169  17.353   1.797   0.433  0.0709 -0.1905 -0.2514
21636W        W41170  13.997  14.495  13.944 -0.2023 -0.2247 -0.0694
21637W        W41171   9.867  11.975   3.015 -0.0611 -0.1776  0.0234
21638W        W41172  16.139   4.274   2.428 -0.0543  0.0436  0.0454
21639W        W41173  14.436   1.235   4.024 -0.0389  0.2720 -0.0698
21640W        W41174  15.274  17.432   1.241  0.1185  0.1591  0.0107
21641W        W41175   0.625   0.805   1.539 -0.0023  0.1687 -0.0362
21642W        W41176  10.332  10.296   1.200  0.0142  0.2793  0.0180
21643W        W41177  13.099   8.452   1.887  0.1202 -0.0526  0.0244
21644W        W41178   4.438  11.046  14.966 -0.0191  0.2255  0.0282
21645W        W41179  11.782   5.267  13.822 -0.1803  0.0315  0.0277
21646W        W41180  15.535  14.034   3.293  0.1790 -0.0328  0.0925
21647W        W41181   5.510  13.641   3.123 -0.0196  0.0709  0.1447
21648W        W41182  12.716   1.672   2.116 -0.1453 -0.1752  0.1077
21649W        W41183   3.176   6.881   2.909  0.1629 -0.1840 -0.3231
21650W        W41184  13.065  15.622   1.857  0.0955  0.1212  0.0881
21651W        W41185  10.702   6.004   0.765  0.2802 -0.0006 -0.0089
21652W        W41186  16.908  16.082   2.959  0.0752 -0.0386  0.3891
21653W        W41187   8.682  15.294  14.749  0.1234  0.0436 -0.2405
21654W        W41188  14.185   4.789  12.585  0.2156  0.1519 -0.2354
21655W        W41189  13.270   7.309   5.091  0.1087 -0.0282  0.1968
21656W        W41190   5.077   3.532   1.832 -0.2532  0.1078 -0.2948
21657W        W41191  12.749   2.587   5.097  0.0793 -0.1029  0.1372
21658W        W41192   2.850   2.316   4.089 -0.3045  0.2790 -0.3196
21659W        W41193   3.351  11.072   4.940 -0.1356 -0.0412 -0.0848
21660W        W41194   6.388  12.666  13.432  0.0158 -0.4038  0.1042
21661W        W41195   6.513   9.915   4.031  0.2683 -0.2155  0.0937
21662W        W41196   2.110  16.972   3.174 -0.0496  0.2319  0.2178
21663W        W41197   0.249  13.942  16.772  0.0425  0.1222 -0.2162
21664W        W41198   3.589   5.147  15.638  0.2444 -0.0669 -0.1960
21665W        W41199  15.916  10.578   2.859 -0.0628 -0.0169  0.0928
21666W        W41200   2.410  12.835   3.209  0.1144  0.0851  0.3125
21667W        W41201   6.402   5.883  14.015 -0.2719 -0.0225 -0.1058
21668W        W41202   3.614   3.758  14.090  0.0524  0.0641  0.1222
21669W        W41203  12.236  16.675   3.485  0.0935 -0.2924  0.1512
21670W        W41204  15.749   7.855  15.654 -0.0563 -0.2977  0.2882
21671W        W41205   4.695  16.739  14.144 -0.0804 -0.2739 -0.0211
21672W        W41206  11.432   5.788   0.795  0.1459 -0.0220 -0.1376
21673W        W41207   1.898  12.132   4.504  0.2172 -0.2501 -0.0467
21674W        W41208   9.058   8.062  16.628 -0.0575  0.0277  0.4295
21675W        W41209   7.996   2.420   3.703  0.1118  0.0211  0.0926
21676W        W41210   0.173  15.441  15.781 -0.4394  0.3442  0.0805
21677W        W41211   8.259   0.200  14.267  0.1397 -0.1977  0.0925
21678W        W41212  15.042   8.938   4.612 -0.3283 -0.2757  0.1114
21679W        W41213   3.208   5.866   4.242  0.3628 -0.1539  0.0467
21680W        W41214  11.251  17.195  15.738 -0.2207 -0.1822 -0.0196
21681W        W41215   1.691   4.590  16.364  0.0392  0.3241  0.0593
21682W        W41216  10.197   6.277  15.716 -0.2768  0.0880  0.3257
21683W        W41217   9.437   4.861   3.960  0.2513  0.1684 -0.1523
21684W        W41218  14.057   8.350  13.830  0.2309  0.1217  0.2101
21685W        W41219   7.170   2.081   1.837  0.1133  0.0796  0.1065
21686W        W41220   0.641   9.375   1.625  0.0744 -0.3917  0.0274
21687W        W41221  11.263  11.420   2.595  0.0039  0.0728  0.2025
21688W        W41222   5.044  17.387  16.922  0.0177  0.3176  0.0272
21689W        W41223  11.135   1.521  12.570  0.2215 -0.1787 -0.2649
21690W        W41224   6.328  15.709   0.064 -0.0491 -0.0605 -0.0306
21691W        W41225  12.011  14.596   0.593  0.0219 -0.1356  0.2351
21692W        W41226  11.109  13.747   0.836 -0.0894 -0.1098 -0.0468
21693W        W41227  13.822  17.047   0.540 -0.1654  0.2603  0.4035
21694W        W41228   4.912   3.797  17.310  0.3273  0.1532 -0.1129
21695W        W41229   5.923  11.241  12.402 -0.0895 -0.3352 -0.0743
21696W        W41230   1.929  14.979  12.434  0.1243  0.1792 -0.2614
21697W        W41231   7.184   2.103  16.439  0.2504 -0.1709 -0.0630
21698W        W41232   5.620   4.917  13.440 -0.3598  0.1137 -0.2509
21699W        W41233  16.098  12.983  17.239 -0.1455 -0.2624 -0.1193
21700W        W41234   6.485   1.879  14.753 -0.0417 -0.1902  0.2259
21701W        W41235   3.036   1.907   3.154  0.1092  0.0592 -0.1743
21702W        W41236  12.952   7.504   0.416  0.0141  0.0915 -0.0563
21703W        W41237   0.375  15.608  14.009  0.0010 -0.0141  0.0800
21704W        W41238   0.825  11.920  12.310 -0.4437  0.2058  0.0778
21705W        W41239  13.804   0.782   1.897  0.0457 -0.0615  0.2441
21706W        W41240   2.746   3.296   0.743 -0.0435  0.1947 -0.5040
21707W        W41241   8.419   6.277   0.571 -0.0406  0.1761  0.2145
21708W        W41242   9.254  14.785  15.103 -0.3181  0.1382 -0.0373
21709W        W41243   5.412   8.260   2.940  0.2057 -0.1259 -0.2380
21710W        W41244   4.181   7.849   2.397 -0.0424 -0.0868  0.2779
21711W        W41245  15.774  12.880   2.219 -0.0738  0.0511 -0.0655
21712W        W41246   3.643   5.992  12.448 -0.0939 -0.1175 -0.2327
21713W        W41247  11.107   4.981  17.091  0.1210  0.1242 -0.1506
21714W        W41248   8.612   3.996  15.777 -0.1241 -0.0654 -0.2206
21715W        W41249  11.642   4.727  14.882 -0.1001  0.1228  0.0644
21716W        W41250   3.108  14.659  14.280  0.0485  0.1471  0.2300
21717W        W41251  12.072   6.336  13.066  0.2639 -0.2005  0.3738
21718W        W41252   1.723  13.787  16.538  0.2318  0.5269 -0.2235
21719W        W41253   7.926  14.633  14.399 -0.0803 -0.0942  0.1086
21720W        W41254   0.566  12.140  16.147 -0.0853  0.0844  0.2250
21721W        W41255  14.481  10.504   1.956 -0.2133  0.2978  0.0550
21722W        W41256   9.077  11.351   4.105  0.1543  0.4224 -0.1196
21723W        W41257   3.518   5.431   4.124 -0.0817 -0.1741 -0.0565
21724W        W41258  14.773   0.726   0.362 -0.1419 -0.0409  0.2762
21725W        W41259   9.856  16.369   0.662  0.2114 -0.0852  0.3259
21726W        W41260   4.212   6.734   0.158  0.1292  0.0877  0.0427
21727W        W41261   3.743  16.149   4.166 -0.1723 -0.0274 -0.2591
21728W        W41262  10.618  11.633   1.368  0.4320 -0.1017  0.3605
21729W        W41263   3.221  12.460  16.234  0.0524  0.3186 -0.3271
21730W        W41264  10.058   3.590  17.239 -0.1783  0.2038  0.1807
21731W        W41265  15.969  12.901  13.075  0.1428 -0.0549 -0.3442
21732W        W41266   5.225   3.513   4.393 -0.0318  0.0475 -0.0602
21733W        W41267   0.695   4.042   0.356  0.1069 -0.0291  0.2252
21734W        W41268   4.266   6.810   1.358  0.1624  0.4598 -0.1182
21735W        W41269   8.813   0.988  16.252  0.3272  0.0512  0.0428
21736W        W41270  14.232   4.518   5.015  0.0106 -0.2857 -0.1603
21737W        W41271  14.234  16.346  13.177 -0.0571 -0.1118  0.0101
21738W        W41272   2.474   7.510  12.019  0.2321  0.2846  0.1114
21739W        W41273  14.395   8.211   1.384  0.1311 -0.0915  0.0389
21740W        W41274   8.669   8.633  14.938 -0.4544  0.2086 -0.0616
21741W        W41275   8.789   4.204   4.019  0.1886  0.2040  0.0719
21742W        W41276   0.102  16.639  12.263 -0.1298  0.3318  0.2218
21743W        W41277  11.234   7.100   3.717  0.0485 -0.0674  0.1421
21744W        W41278   2.556   3.822   0.863  0.0938 -0.0229  0.3598
21745W        W41279   4.474   9.127   2.403 -0.0934 -0.1628  0.1656
21746W        W41280   3.417   8.561  12.502 -0.3631 -0.1314 -0.1995
21747W        W41281  14.042  15.124  13.324  0.1896 -0.0200 -0.0928
21748W        W41282   2.086   9.750   1.373 -0.3617 -0.1973  0.0534
21749W        W41283   7.233   2.776   2.968  0.1720 -0.0558  0.1595
21750W        W41284   9.450   7.484  16.060  0.1861 -0.2652  0.1006
21751W        W41285  17.189   3.344  15.975 -0.1738 -0.0336  0.0268
21752W        W41286   9.199   6.969  16.472 -0.4725 -0.4567 -0.0677
21753W        W41287  11.969   7.519   2.125 -0.2306 -0.1892  0.2532
21754W        W41288   9.587  16.003  12.567 -0.0629 -0.0376  0.0620
21755W        W41289   2.244  12.209  14.189  0.0978  0.0496 -0.0605
21756W        W41290   9.923   4.653   4.725 -0.1917 -0.0313 -0.0324
21757W        W41291  13.171  11.604  14.433 -0.1586 -0.1330  0.1789
21758W        W41292   4.917  11.159   4.147 -0.0157 -0.0915 -0.0714
21759W        W41293   3.155   7.861  15.546 -0.0969 -0.0309 -0.0139
21760W        W41294  16.576  11.397  13.878 -0.0285 -0.0587 -0.1862
21761W        W41295  12.791   6.418   2.579  0.1375  0.3869 -0.1269
21762W        W41296  14.986   3.393  16.655  0.0376 -0.1495 -0.0803
21763W        W41297   0.118   6.157   2.111 -0.2674 -0.0785  0.0245
21764W        W41298   2.177   2.421  14.787 -0.0518 -0.0027 -0.0004
21765W        W41299  16.340   4.000  12.511  0.1900 -0.0160  0.0405
21766W        W41300  11.722   3.308   4.762  0.1962 -0.1320 -0.0986
21767W        W41301   6.258   4.977  15.648 -0.0356 -0.1283 -0.1132
21768W        W41302   8.419  10.076   3.297 -0.2303  0.1934  0.2791
21769W        W41303   0.019   7.177   1.965 -0.2144 -0.2186 -0.3006
21770W        W41304   9.002   2.546  15.809  0.1226 -0.1448 -0.0265
21771W        W41305   0.232  15.310  12.937  0.2429  0.0193 -0.0360
21772W        W41306   9.640  16.786  14.698  0.1690 -0.1160  0.3979
21773W        W41307  11.851   3.251   3.694  0.1079  0.0790 -0.1770
21774W        W41308   2.810   0.679   4.093  0.3618 -0.0263  0.0115
21775W        W41309  15.079  10.969  13.213  0.0949  0.1415 -0.1109
21776W        W41310   6.454   5.379  13.103 -0.1068  0.1305 -0.1125
21777W        W41311   8.831   5.406  16.714  0.0722 -0.1561  0.0188
21778W        W41312  13.735   4.072   3.256  0.1329  0.0815  0.0742
21779W        W41313   5.534  14.918  12.879  0.1145  0.1526 -0.0111
21780W        W41314  10.271  12.109  14.612  0.2057  0.2106  0.2086
21781W        W41315   3.367   2.140  16.997  0.3491  0.0188  0.4171
21782W        W41316   9.635  11.952   4.778  0.2793 -0.1326 -0.0688
21783W        W41317   1.509  16.673   1.456  0.1113  0.1821 -0.1764
21784W        W41318  16.565   5.799   4.793 -0.1409 -0.1218 -0.1412
21785W        W41319   9.089  16.125  12.322  0.0627  0.2196 -0.0102
21786W        W41320   8.489   6.922  14.566  0.0649  0.1187 -0.3895
21787W        W41321   3.626   8.467   4.266  0.2307  0.2469  0.2928
21788W        W41322   2.692  12.676   3.617  0.0034  0.2972  0.2643
21789W        W41323   2.827   4.450  12.538  0.0060  0.2334 -0.0797
21790W        W41324   3.751   1.126   4.544  0.1527  0.0522  0.0680
21791W        W41325  10.263  17.406  12.284  0.2780  0.0566  0.0750
21792W        W41326   8.456   8.238   2.198 -0.3530  0.0909 -0.1601
21793W        W41327  17.408   6.791   3.563  0.0882 -0.1994 -0.1200
21794W        W41328  12.366  10.320   0.137 -0.0400  0.3658  0.1721
21795W        W41329   5.004   4.196   3.366  0.2899  0.0237 -0.0102
21796W        W41330  16.116  16.024   1.824 -0.1267  0.2146  0.3080
21797W        W41331   5.717   8.031  14.593 -0.1238 -0.1171 -0.0490
21798W        W41332  11.352   4.422  16.366 -0.0093  0.2394  0.3191
21799W        W41333   4.967   0.880   4.693 -0.1625  0.1466  0.0740
21800W        W41334   2.774   1.138   4.751  0.5742  0.1168 -0.2863
21801W        W41335  17.086   6.344   1.892  0.0332 -0.4137  0.2737
21802W        W41336   1.964  10.830  14.443  0.0678 -0.0860  0.1882
21803W        W41337   2.508   8.404  13.732 -0.0564  0.0148 -0.1333
21804W        W41338   2.116   0.424   4.698  0.0253  0.2719  0.0453
21805W        W41339   9.343   8.773  13.554 -0.1016  0.2906  0.1385
21806W        W41340   6.274  16.876  14.525  0.1712 -0.1264 -0.0654
21807W        W41341   2.267   5.231  15.971 -0.3586 -0.0031  0.0431
21808W        W41342   5.471   3.917   2.029 -0.2240 -0.2004 -0.2776
21809W        W41343   5.846   2.774  16.021  0.0299  0.1153  0.1458
21810W        W41344   4.694   6.432   2.136  0.0592  0.0464 -0.4092
21811W        W41345  15.718   8.256  12.825  0.2592 -0.4282  0.2843
21812W        W41346   6.173   0.210   2.891 -0.0733 -0.3019  0.0960
21813W        W41347   3.187  17.153   1.748  0.0060 -0.0906 -0.2429
21814W        W41348   7.832  11.745  13.624 -0.1509  0.1652  0.0602
21815W        W41349   1.436   4.255   4.541  0.1306 -0.1973 -0.1107
21816W        W41350  13.262   8.728   2.797 -0.1550 -0.3565  0.0635
21817W        W41351  11.163   6.883   0.459  0.1703  0.0047 -0.1965
21818W        W41352   7.340   4.907   0.083 -0.1089 -0.2755 -0.3213
21819W        W41353  16.435   2.076  16.820  0.1298  0.1138 -0.5168
21820W        W41354   1.354  10.944   4.517 -0.0783 -0.0215 -0.1625
21821W        W41355  11.632   8.456   3.472  0.0267  0.2234 -0.0746
21822W        W41356  15.673  16.815  12.190  0.1693  0.2786 -0.0080
21823W        W41357   3.342  10.087  13.056  0.2626 -0.2748  0.2281
21824W        W41358  17.208   8.914  13.207 -0.1155  0.1930 -0.4593
21825W        W41359  16.001   9.560  15.155  0.3322  0.0516  0.1075
21826W        W41360   7.427   6.614   5.678 -0.0869 -0.4923 -0.1820
21827W        W41361   7.587  14.457   4.922  0.1689  0.0429  0.3631
21828W        W41362   0.162   0.822  13.719 -0.2158  0.2193  0.1534
21829W        W41363  14.713  15.667  16.604  0.1073 -0.1389  0.0782
21830W        W41364   0.196  12.811   4.067 -0.1450  0.5365  0.1255
21831W        W41365   4.480   1.433  16.264  0.1967 -0.0695  0.2083
21832W        W41366   8.590  15.522   0.423  0.0747  0.1164 -0.1756
21833W        W41367  16.630   8.332   3.860  0.0161 -0.1189  0.1397
21834W        W41368   0.257  16.227   4.729  0.0428  0.2885  0.0795
21835W        W41369  15.937  17.139   2.588 -0.0088 -0.0766 -0.0592
21836W        W41370   7.849   4.283   4.464 -0.1573  0.0277  0.2027
21837W        W41371  17.228   6.252   2.424 -0.1208  0.2309 -0.3793
21838W        W41372   1.891   1.322   1.848 -0.2259 -0.1010  0.1710
21839W        W41373   9.985  15.801  12.890 -0.2864 -0.1932  0.0128
21840W        W41374  15.381  15.487  12.151  0.1692 -0.5983  0.1529
21841W        W41375   3.817   3.994  15.014  0.0298  0.1153  0.3059
21842W        W41376   7.850   0.884   1.445  0.1407  0.0314  0.0044
21843W        W41377  16.968  14.249   0.405  0.0220 -0.2658 -0.1353
21844W        W41378   0.644   4.094  14.545 -0.2254  0.0588  0.1812
21845W        W41379   0.780  16.920   0.257  0.1369 -0.1801  0.0028
21846W        W41380   4.137   0.785   4.407 -0.0988  0.0116 -0.0020
21847W        W41381   5.441   0.796   2.945  0.4613 -0.0983 -0.2945
21848W        W41382   4.582   7.580  15.412  0.0326  0.3833 -0.1179
21849W        W41383  15.346   3.507  12.585  0.1825 -0.3294 -0.0557
21850W        W41384   9.543   1.417  14.535 -0.1232  0.1547 -0.0382
21851W        W41385  11.001  12.677  12.633 -0.0184 -0.0892 -0.0599
21852W        W41386  12.341   5.324  16.886  0.0245  0.0828 -0.1673
21853W        W41387   9.651  16.198   0.138  0.3581  0.1637 -0.0919
21854W        W41388  10.926   5.940   1.634 -0.0586  0.0745 -0.0923
21855W        W41389  15.343  15.844   2.336  0.0378  0.0276 -0.0689
21856W        W41390  16.303   8.341   5.324 -0.0550 -0.0095 -0.2733
21857W        W41391  12.485   8.983  14.238 -0.0359  0.3446  0.2234
21858W        W41392   8.131   7.140  12.369  0.0762 -0.1534  0.0005
21859W        W41393  11.354   1.557   2.194  0.2764 -0.1846  0.2004
21860W        W41394  14.454  16.498   2.417 -0.0114 -0.3982 -0.1577
21861W        W41395   9.896  12.962  16.464 -0.1456  0.0684  0.0620
21862W        W41396   5.471   3.774  16.840  0.1647 -0.3733 -0.1244
21863W        W41397   3.618  13.411  14.938  0.3110 -0.0911  0.0848
21864W        W41398  14.040   1.262   2.418  0.0711  0.1970 -0.1763
21865W        W41399   2.770   3.058   1.808 -0.0838  0.0751  0.2467
21866W        W41400  12.627  10.333  16.567 -0.1805  0.0364 -0.1140
21867W        W41401   2.928  14.424  17.115  0.1754 -0.1115 -0.1045
21868W        W41402  15.930   1.294   3.545  0.1530 -0.0446  0.1207
21869W        W41403   2.804  16.808  12.941 -0.3909  0.1632  0.0911
21870W        W41404  16.801  12.733  12.894 -0.0090 -0.2577  0.0482
21871W        W41405   7.366  11.539  12.917  0.1982 -0.2412  0.2219
21872W        W41406   5.469  17.047  16.258  0.2047 -0.0411 -0.2023
21873W        W41407   4.761  14.931   0.101 -0.0403 -0.0130 -0.0568
21874W        W41408  10.310   6.745  16.033  0.0178 -0.2097 -0.1308
21875W        W41409  15.899   4.017   2.031 -0.3465  0.0049 -0.2225
21876W        W41410  16.861   3.133  15.127  0.0285  0.0662 -0.0841
21877W        W41411  14.369  15.913  12.905 -0.0861  0.1199 -0.2432
21878W        W41412   6.983  11.158   1.560  0.1496 -0.3104 -0.0226
21879W        W41413   8.788   0.326  14.954 -0.3735 -0.1246 -0.2133
21880W        W41414  12.343   8.132  16.764  0.1065 -0.1212 -0.0135
21881W        W41415   5.349   8.265  13.447 -0.3112  0.0491  0.0555
21882W        W41416   6.960   2.173  15.966  0.1342  0.0084 -0.1250
21883W        W41417   6.383   2.453   1.910  0.0957  0.0777  0.1737
21884W        W41418  14.057  13.479  16.361 -0.0226  0.0738 -0.1382
21885W        W41419   9.821   5.314  14.018  0.0995  0.1336  0.0058
21886W        W41420   9.878  13.104   1.959 -0.0295  0.3915  0.1459
21887W        W41421   4.702   1.276  14.191 -0.1608  0.0998  0.2272
21888W        W41422  12.434   4.506  15.266  0.1058 -0.0874 -0.1053
21889W        W41423   3.558   5.533  14.101 -0.3530 -0.1879  0.0281
21890W        W41424  16.520   9.620  17.258  0.3886 -0.0054  0.0050
21891W        W41425  15.444  17.217  16.251  0.0828  0.1064  0.1920
21892W        W41426   1.074   9.618   2.504 -0.1067 -0.2712 -0.2759
21893W        W41427   8.969  15.554   2.166 -0.2891  0.0358  0.1987
21894W        W41428  14.914  16.655   2.390  0.0776  0.0968  0.1484
21895W        W41429   8.790   8.075   3.818 -0.0838 -0.3458 -0.0218
21896W        W41430  12.113   5.566   2.347 -0.0656 -0.3528 -0.3406
21897W        W41431   0.252   7.064  12.796 -0.1294 -0.2602 -0.3785
21898W        W41432  11.243   6.504   2.894 -0.1011 -0.2155 -0.1722
21899W        W41433  12.602  17.403   4.070 -0.0754  0.0914 -0.2069
21900W        W41434   2.688  17.079  16.983 -0.0198 -0.0540 -0.0928
21901W        W41435  12.065  10.415   2.970 -0.1023 -0.1411  0.1086
21902W        W41436   6.526   3.146  14.592  0.2960 -0.2734 -0.3214
21903W        W41437   5.328  16.372   3.261 -0.5314 -0.0921 -0.0399
21904W        W41438   5.056  10.674   1.849 -0.1684 -0.3881 -0.3061
21905W        W41439  10.911   5.837  14.975 -0.2651  0.1067 -0.0756
21906W        W41440   6.563  15.679   1.031 -0.1335 -0.0150 -0.0121
21907W        W41441   1.442  13.117   0.081 -0.3236 -0.3411 -0.0006
21908W        W41442  14.421  12.527  15.710  0.3086  0.1270  0.3911
21909W        W41443   1.783  12.399  13.202  0.2522  0.0240  0.1605
21910W        W41444   7.830  16.609  14.554  0.0185  0.1764  0.0264
21911W        W41445   6.205   5.110  16.109 -0.1896 -0.1499 -0.1894
21912W        W41446  15.487   2.165   1.305  0.1283  0.3798  0.3038
21913W        W41447  13.393   5.669   2.262  0.3067  0.1332  0.0565
21914W        W41448   3.557   6.550  14.012  0.1434  0.0714  0.0938
21915W        W41449   4.992   2.829   2.918 -0.2954 -0.0600  0.0904
21916W        W41450   3.666  17.191   2.633 -0.1004 -0.3310  0.0151
21917W        W41451  11.900   3.607   0.019  0.0448 -0.3886 -0.0564
21918W        W41452  12.180  11.554   0.604  0.1691  0.0906  0.1111
21919W        W41453  14.635   9.399   2.206 -0.0201 -0.1077 -0.1467
21920W        W41454   1.996   7.188  12.884  0.0535 -0.2449 -0.0709
21921W        W41455   4.262  12.971  16.565 -0.1780 -0.0709 -0.0198
21922W        W41456   5.697   6.036  14.365 -0.0919  0.0987  0.1518
21923W        W41457   2.262  13.361   0.645  0.1595 -0.1834 -0.0062
21924W        W41458  16.066   8.311  12.473  0.1429  0.1944  0.0281
21925W        W41459  15.830   4.969   5.059  0.4744  0.1088 -0.1947
21926W        W41460   1.653   1.691   3.470 -0.1557 -0.4072 -0.1346
21927W        W41461  13.974   3.383  16.192  0.0769  0.2736 -0.0821
21928W        W41462   3.179  12.819  13.063  0.0527  0.1278  0.0417
21929W        W41463   4.322   6.073   3.877 -0.0130 -0.1140 -0.0910
21930W        W41464   0.324   0.337  13.698  0.1150  0.0799  0.2691
21931W        W41465   7.652   4.800  13.596  0.1028 -0.3197  0.0730
21932W        W41466  15.718   5.598   2.164 -0.0466 -0.0791 -0.1596
21933W        W41467  15.808   7.832  16.162 -0.4578  0.0576  0.2375
21934W        W41468  11.505   1.025   2.131  0.0060 -0.3867  0.1270
21935W        W41469  15.033  14.403  15.901 -0.1868 -0.1265  0.0253
21936W        W41470   3.865   0.134   3.396  0.0103  0.0546 -0.3396
21937W        W41471   9.392   2.536  12.780  0.2362  0.0825  0.0954
21938W        W41472   9.338   9.712  17.185  0.2891 -0.0736 -0.2321
21939W        W41473  15.510   1.752  12.368 -0.0088  0.0549  0.1523
21940W        W41474  11.552   2.071  14.092 -0.5362 -0.0663  0.2113
21941W        W41475  11.764  13.934   2.241 -0.0349 -0.0254  0.4497
21942W        W41476   8.468   0.460  15.402  0.5908 -0.0751  0.0214
21943W        W41477  14.419   5.583  13.768 -0.2830  0.0822  0.2872
21944W        W41478   8.332   0.053  13.156  0.1089  0.2822 -0.0882
21945W        W41479   8.521   0.633  14.498 -0.1412 -0.1116  0.0447
21946W        W41480   5.700   8.307   1.356  0.0766 -0.0526 -0.3731
21947W        W41481  16.148   4.357   1.455  0.0745  0.5273  0.2842
21948W        W41482   8.112  15.800  14.135 -0.2651  0.0069 -0.1960
21949W        W41483   8.300   4.746   2.318  0.1423  0.4188 -0.2125
21950W        W41484   4.456  11.187   3.931  0.0414 -0.2513 -0.2274
21951W        W41485   3.185   1.339   1.736 -0.2100  0.0582 -0.0085
21952W        W41486   8.883   6.213   4.905  0.4860  0.0151  0.1929
21953W        W41487  11.304   8.648   1.327 -0.1395 -0.0819  0.2920
21954W        W41488  11.841  16.212   1.107  0.3162  0.3748 -0.1797
21955W        W41489   6.020   3.566  13.881 -0.3496  0.0222 -0.2528
21956W        W41490   5.092   3.486   5.153  0.1470 -0.0870  0.0842
21957W        W41491   7.434  14.360  14.324 -0.3527  0.1981 -0.0848
21958W        W41492  13.319   7.825   2.956  0.1334  0.1071 -0.1523
21959W        W41493   4.420  15.994   1.735  0.0275 -0.0621 -0.0129
21960W        W41494  16.031  10.764  16.494  0.0257  0.0662 -0.1354
21961W        W41495   8.923   3.587  16.934  0.1332  0.0111  0.0889
21962W        W41496   6.302  15.440  12.800  0.3471 -0.1206  0.0335
21963W        W41497  12.765   2.831   0.575  0.2015 -0.0602 -0.1852
21964W        W41498   9.394   4.392   3.112 -0.1478 -0.0707 -0.0984
21965W        W41499   4.064  13.432   3.565 -0.3426 -0.0478 -0.2979
21966W        W41500  10.740   4.249   0.293  0.1597 -0.2214  0.0012
21967W        W41501   6.730  15.834   2.752  0.0967  0.2260 -0.2937
21968W        W41502   4.307  13.409   4.760 -0.0895 -0.2636 -0.1311
21969W        W41503  12.360   8.959  16.607 -0.0698  0.2580  0.0913
21970W        W41504  10.072   3.736   2.695  0.2319 -0.1898 -0.2092
21971W        W41505   8.274   4.392  14.762 -0.2495  0.1492  0.0639
21972W        W41506   3.492   4.677  15.806  0.0698  0.0297  0.2304
21973W        W41507   8.911  14.039   3.307  0.3791 -0.2174 -0.0929
21974W        W41508   9.531   1.236  12.696 -0.4328 -0.1157 -0.2547
21975W        W41509  14.737  11.573  16.478  0.1774  0.1431  0.1823
21976W        W41510   9.358   0.305   4.999  0.1687  0.1088  0.0102
21977W        W41511  15.313   7.118   0.131 -0.0961  0.3347  0.0251
21978W        W41512   8.539   8.455   4.754 -0.2808 -0.0420 -0.2795
21979W        W41513   1.928   3.416   0.567 -0.1269 -0.2523  0.3012
21980W        W41514   1.650   6.989   2.739  0.0500 -0.1601  0.1648
21981W        W41515   7.756   4.280   3.168 -0.2301  0.0623 -0.0005
21982W        W41516   2.479  11.225   3.908 -0.0690 -0.3950 -0.3539
21983W        W41517  16.548   6.651   4.763 -0.1636  0.0089 -0.0463
21984W        W41518   7.572   3.028  15.394  0.1204  0.0597  0.1041
21985W        W41519  10.323   1.364   0.533 -0.1127  0.2555 -0.0351
21986W        W41520   3.977   8.280  16.013  0.0506  0.1831 -0.0637
21987W        W41521   4.464   1.250  13.751 -0.0658 -0.3805 -0.0235
21988W        W41522   3.388   1.736   2.417  0.1751 -0.1767  0.2399
21989W        W41523  15.123   7.485  13.354  0.1984 -0.0678 -0.1400
21990W        W41524   4.510   8.856   3.584 -0.0455  0.0671 -0.1341
21991W        W41525   8.536  10.191   0.498 -0.1614  0.0397 -0.0049
21992W        W41526   0.186   2.529   4.234  0.0116 -0.0017 -0.2050
21993W        W41527  17.107   8.130  13.815  0.0860  0.1864  0.0426
21994W        W41528  12.491  15.461  13.583  0.0952 -0.0935 -0.1479
21995W        W41529  10.050   4.692   0.907  0.1851  0.1001  0.1618
21996W        W41530  13.945   5.515  13.234 -0.1172 -0.0994  0.0056
21997W        W41531  15.402   7.156   4.958  0.0765 -0.3025  0.0700
21998W        W41532   4.931  16.608  13.668  0.1433 -0.1793  0.1955
21999W        W41533   4.902  13.080   3.470  0.3310 -0.2837 -0.0998
22000W        W41534  16.095  16.390   1.075 -0.1098  0.0112  0.2087
22001W        W41535   7.746   8.313   0.376  0.2681  0.0124 -0.0058
22002W        W41536   0.590   2.820   4.259 -0.0835  0.2139 -0.1598
22003W        W41537   1.628  11.071  12.984 -0.2052 -0.3029 -0.1264
22004W        W41538   7.317   7.715   4.849  0.1386  0.2310 -0.0755
22005W        W41539   4.992   2.352   2.682  0.2920  0.0292 -0.2925
22006W        W41540   0.044   7.623   4.230  0.0387  0.0176 -0.0026
22007W        W41541   9.472   7.185   5.262 -0.0381 -0.3493  0.0956
22008W        W41542   5.201  11.649  15.776 -0.1890 -0.0781 -0.0485
22009W        W41543  11.449  16.701   3.070  0.1404  0.3632 -0.1804
22010W        W41544   6.976  13.443  15.226  0.0146  0.0754  0.1172
22011W        W41545   0.676  11.811   2.660 -0.0235  0.1532  0.0281
22012W        W41546   3.834   5.929  12.999 -0.1234 -0.1705 -0.1744
22013W        W41547  12.919  12.042   2.613  0.1064  0.1827 -0.0081
22014W        W41548   8.489   9.097   1.627  0.0309  0.1081 -0.2026
22015W        W41549   5.091   1.691   2.182  0.0873 -0.0894  0.1443
22016W        W41550   3.871  12.980  14.055 -0.2230  0.0254 -0.0324
22017W        W41551   5.382  17.285  13.737 -0.0110  0.2246 -0.1924
22018W        W41552   7.993   7.082  11.557  0.1929 -0.0777 -0.0664
22019W        W41553  15.112  10.097   3.295  0.0227 -0.0039 -0.0557
22020W        W41554   1.244   4.595  16.608  0.0673  0.1529  0.0164
22021W        W41555  10.886   3.724   0.242 -0.0302 -0.0066  0.2870
22022W        W41556  10.653   7.983   4.851  0.3696 -0.1338  0.0134
22023W        W41557  12.526   9.687  13.085 -0.1567  0.0221 -0.1881
22024W        W41558   4.323   3.257  14.634 -0.1542  0.0413 -0.0037
22025W        W41559  14.283   2.635   2.076  0.0334 -0.1635  0.0013
22026W        W41560   7.953  14.401   4.553 -0.2877 -0.1316 -0.2992
22027W        W41561  13.355  11.990  15.803 -0.0024  0.0791 -0.3000
22028W        W41562  13.737   5.974   1.816  0.1139 -0.0727  0.0944
22029W        W41563   6.930   2.981   2.526 -0.0439 -0.1923  0.0596
22030W        W41564   6.449   0.732   4.940 -0.1339  0.0349  0.2407
22031W        W41565  10.303   8.223  12.527  0.1359 -0.1148 -0.2620
22032W        W41566   8.853  17.395   3.392  0.1490 -0.1818  0.0277
22033W        W41567   3.152   0.822  12.586 -0.0281  0.0531 -0.2328
22034W        W41568  16.959   9.361  12.397 -0.0709  0.0190  0.0052
22035W        W41569   2.408   2.055   0.783  0.4768 -0.0169 -0.2700
22036W        W41570   0.327  15.234   3.433  0.0072 -0.1801  0.0438
22037W        W41571   5.868   3.762  17.265  0.0178  0.1218 -0.0280
22038W        W41572   1.938   8.635  14.783 -0.3347  0.0005 -0.0714
22039W        W41573  14.065  15.846  11.955 -0.4519  0.0154 -0.0795
22040W        W41574  13.242   1.146  17.180 -0.0417 -0.0041  0.0101
22041W        W41575   5.681  13.820   1.708 -0.0860 -0.1701  0.1902
22042W        W41576   3.389   1.001   0.433  0.0931 -0.0955  0.0438
22043W        W41577  12.566   9.184   4.276  0.1306  0.0361 -0.0680
22044W        W41578   9.912   2.279  12.766 -0.4569  0.1785 -0.1484
22045W        W41579   2.228   4.142  14.968  0.1133 -0.2128 -0.2471
22046W        W41580   5.420  10.089  14.053 -0.0629  0.1511  0.3566
22047W        W41581  11.534   7.672   4.745  0.1444 -0.1356 -0.1113
22048W        W41582  15.206   9.743  14.682  0.1334 -0.1104  0.2413
22049W        W41583   5.472  10.667   2.139  0.0518  0.1851 -0.0734
22050W        W41584   1.983   5.211  12.531  0.0020 -0.0836 -0.1177
22051W        W41585   5.943   5.161   3.843 -0.2935  0.1035 -0.0459
22052W        W41586   2.459  10.688   4.740 -0.0069  0.1854  0.0028
22053W        W41587   2.101  14.222   2.811 -0.1407  0.0609 -0.2394
22054W        W41588  15.175   2.252  13.478  0.1795  0.0044 -0.0011
22055W        W41589   7.629   0.171   0.293 -0.0028 -0.1866 -0.1388
22056W        W41590  14.408  10.684   3.124 -0.0912 -0.1624 -0.1454
22057W        W41591   3.369   6.881   1.898 -0.0436  0.0840 -0.2170
22058W        W41592   5.549   1.516   1.645  0.0223 -0.1534  0.0846
22059W        W41593   4.610  16.638  16.744  0.0142 -0.3062 -0.2008
22060W        W41594  13.983   8.396   3.495  0.1474  0.0580  0.0844
22061W        W41595   0.992   1.065   3.869  0.1160 -0.3823 -0.1747
22062W        W41596   7.836  15.322   5.213 -0.2456  0.0633  0.4661
22063W        W41597   6.103  14.649  15.583  0.2508 -0.0381  0.0573
22064W        W41598   5.837   3.779  15.157 -0.2538 -0.0854  0.1178
22065W        W41599   1.761   6.778  15.174 -0.2388  0.0609 -0.2518
22066W        W41600  10.117  12.463   3.225  0.0091 -0.1768 -0.3962
22067W        W41601   6.198   5.670  14.459 -0.0791 -0.1286  0.0985
22068W        W41602  11.547   7.009  15.791 -0.2903 -0.1166 -0.1678
22069W        W41603  17.339   9.045  14.359  0.2507  0.2279 -0.0559
22070W        W41604   0.937   3.645  14.319 -0.0902 -0.0068 -0.0900
22071W        W41605   2.322   9.659   5.954 -0.1625 -0.1605 -0.0363
22072W        W41606  15.208  10.924  12.656  0.0200 -0.0029 -0.1172
22073W        W41607   2.988  12.511   0.993  0.1390 -0.3431  0.2743
22074W        W41608   1.292   8.355   4.030  0.1443 -0.0198 -0.1421
22075W        W41609  12.282   5.686   1.530  0.0951 -0.3453 -0.1345
22076W        W41610   6.740   8.037   0.651  0.3268 -0.0833  0.1196
22077W        W41611   2.184   6.919  15.989 -0.0707 -0.1529  0.1706
22078W        W41612   3.783   7.574   0.722  0.1555  0.0426  0.0138
22079W        W41613   9.733  16.284   4.567  0.0726  0.2899 -0.1153
22080W        W41614  12.652  13.301   4.379 -0.1593 -0.1095 -0.0962
22081W        W41615   7.296  13.008  15.371 -0.1201 -0.1440 -0.2655
22082W        W41616   8.894  16.054   1.218 -0.1438  0.1473 -0.1808
22083W        W41617   3.233  12.146   0.718  0.0803  0.0327  0.2869
22084W        W41618  11.783   8.429   1.124 -0.0335  0.0364  0.0704
22085W        W41619   5.329   0.499   1.623 -0.0422  0.3144 -0.2254
22086W        W41620  12.769   4.396   3.936 -0.1402 -0.0240 -0.0190
22087W        W41621   1.598   7.637   5.301 -0.2821 -0.0221  0.0013
22088W        W41622   8.348   3.684  14.241 -0.0271  0.3426  0.0146
22089W        W41623  12.592   9.014   1.824  0.1716 -0.0696 -0.0717
22090W        W41624   6.416  13.417  15.100 -0.1139  0.2841 -0.0093
22091W        W41625  11.699   7.731   4.181 -0.0270  0.1013 -0.2466
22092W        W41626   7.380  17.414  13.490 -0.4342 -0.2218  0.0137
22093W        W41627   3.371  13.489  16.220  0.4794 -0.2198 -0.2916
22094W        W41628  16.780   3.314   3.132 -0.0574  0.0209 -0.1466
22095W        W41629  13.584   7.222  17.307  0.0946  0.1212 -0.0796
22096W        W41630  15.401  11.674   3.049 -0.3398 -0.0537  0.1045
22097W        W41631   3.369  14.038  15.784 -0.0257 -0.1074 -0.0723
22098W        W41632   7.125   0.323  14.238  0.0855 -0.2112 -0.1924
22099W        W41633  12.528   1.638  13.303 -0.2733  0.0540  0.0596
22100W        W41634   1.438   0.726  13.053  0.0033 -0.0308  0.0189
22101W        W41635   0.192  11.300   4.149 -0.3375 -0.1852 -0.0914
22102W        W41636  10.304  14.912  13.101  0.2830 -0.3459 -0.0677
22103W        W41637   4.970   8.189   0.301  0.0742 -0.3413  0.2927
22104W        W41638   1.235  15.226  13.639 -0.0189 -0.1773 -0.0521
22105W        W41639   0.858   5.162  13.865 -0.0519 -0.1760 -0.0115
22106W        W41640  14.249   1.669   2.190 -0.0631 -0.2149  0.0340
22107W        W41641   5.280   3.195   2.675  0.1284 -0.1265  0.2259
22108W        W41642   9.544   7.508  12.602  0.1504 -0.0958  0.0067
22109W        W41643   6.791   5.729   0.359 -0.1815  0.1452  0.0307
22110W        W41644   3.324  13.978   1.964  0.3217 -0.0534 -0.0603
22111W        W41645   4.627   8.852  14.515 -0.1943 -0.2611 -0.1707
22112W        W41646  10.604  16.920  13.607 -0.2615 -0.0742  0.0427
22113W        W41647   4.490   4.472   2.473  0.0099 -0.4402 -0.1883
22114W        W41648   8.848   7.725   2.322 -0.1905  0.1082  0.1861
22115W        W41649   5.132  14.323  15.151  0.2364 -0.0824  0.1661
22116W        W41650   8.050   2.569  16.467  0.0447 -0.0544 -0.1421
22117W        W41651  13.145   4.136   4.234 -0.2725 -0.0045 -0.2143
22118W        W41652  16.209   0.141   2.603 -0.1841  0.2911  0.1360
22119W        W41653   5.572   9.594  13.861  0.0344 -0.0409  0.0304
22120W        W41654   1.130  10.075   2.907  0.2475  0.1738  0.1124
22121W        W41655  11.739   5.515   0.353 -0.3279 -0.2094  0.2054
22122W        W41656   8.533   4.486   0.585 -0.3104  0.0775 -0.0905
22123W        W41657   4.258   7.063   3.556 -0.0575 -0.0238 -0.1172
22124W        W41658   7.325   6.502  14.220  0.0482  0.0683  0.1111
22125W        W41659  12.078   2.167  13.198 -0.1349 -0.2049 -0.0499
22126W        W41660   5.401   4.589  15.335  0.1695  0.0130  0.0784
22127W        W41661   2.009  16.753   1.470 -0.1545  0.1261 -0.0303
22128W        W41662  13.782  16.056  15.336 -0.1363  0.0365  0.0481
22129W        W41663   2.056   2.312   0.498  0.2075  0.0650 -0.1018
22130W        W41664  11.141   3.078   1.079 -0.0805  0.2968  0.0884
22131W        W41665   1.162   0.406  14.268 -0.3490  0.1725 -0.3154
22132W        W41666   4.687   1.053  12.373 -0.1017  0.2255 -0.4549
22133W        W41667   9.585   1.784   4.428  0.2229  0.1551  0.0683
22134W        W41668  12.598  14.686   2.257  0.2561  0.2505 -0.0372
22135W        W41669  17.247   2.558   2.107 -0.0989  0.1825 -0.0681
22136W        W41670   7.818   4.248  11.904  0.1666 -0.3296 -0.3704
22137W        W41671  17.110   5.102  16.032  0.2180 -0.2153 -0.1206
22138W        W41672   0.713  16.028   1.643 -0.1132  0.0127  0.1223
22139W        W41673  11.157   8.300  16.309 -0.0344 -0.1879  0.0760
22140W        W41674   4.248  11.767   0.628 -0.1905 -0.2700 -0.0382
22141W        W41675   9.436  15.102  16.381  0.0644  0.1291 -0.0080
22142W        W41676  14.689   2.858   2.350  0.1071  0.2928 -0.0875
22143W        W41677   4.553  16.172  16.658  0.0628  0.0328  0.0291
22144W        W41678   5.961   7.196   2.585 -0.0426  0.1459  0.0371
22145W        W41679   8.221   4.349   1.363  0.1548  0.1558 -0.0064
22146W        W41680   7.206   1.424   4.744 -0.1050  0.2121 -0.1157
22147W        W41681   1.895  16.194  13.911 -0.1764  0.0624 -0.3580
22148W        W41682   0.253   9.528   0.061  0.1568 -0.2116  0.3978
22149W        W41683  12.385   0.510  14.020 -0.1073  0.0876 -0.1082
22150W        W41684  14.041   4.635  15.734 -0.1964 -0.1671  0.1143
22151W        W41685  14.196   0.767  12.022 -0.0319 -0.0211 -0.0118
22152W        W41686  15.640   1.653  13.242 -0.0900 -0.0697 -0.0532
22153W        W41687   3.013  17.305   3.204  0.1540  0.0110  0.0450
22154W        W41688   6.536  11.951   1.875 -0.0191  0.3382  0.0452
22155W        W41689  14.527   6.599   4.877  0.0798 -0.4161  0.1419
22156W        W41690   4.409  12.370  16.598  0.2093 -0.1417  0.0730
22157W        W41691  16.382  15.878   2.924 -0.1183 -0.2667  0.0539
22158W        W41692   7.217  10.639  12.781  0.3022  0.0342 -0.1030
22159W        W41693  14.216   5.500  16.031  0.0912  0.2290 -0.0442
22160W        W41694   6.154  12.776   2.302 -0.3396  0.5791  0.1355
22161W        W41695  12.769   4.642   0.610  0.2622 -0.4615 -0.0974
22162W        W41696   9.033   9.648  15.845  0.0710  0.0239 -0.2809
22163W        W41697  13.493   9.146   4.344  0.0108  0.0902  0.0820
22164W        W41698  15.703  12.921   3.092 -0.0827 -0.1542  0.2701
22165W        W41699  13.979  11.838   2.977 -0.2448 -0.3331 -0.3741
22166W        W41700   7.230  17.440  16.421  0.0141  0.1333 -0.2092
22167W        W41701  15.078   4.333   3.825 -0.1898 -0.0513  0.3087
22168W        W41702  11.327  10.634   1.748 -0.1277  0.1890  0.1027
22169W        W41703   9.556   4.274  14.812  0.2183  0.0400 -0.2994
22170W        W41704   5.828   5.806   2.040 -0.1035  0.2562 -0.1681
22171W        W41705  16.930   3.134  13.501 -0.2192 -0.0063  0.4389
22172W        W41706   3.425   1.840  12.818  0.1027  0.0384  0.0244
22173W        W41707  17.209  12.949  14.270 -0.0058  0.0836  0.0095
22174W        W41708  13.943  13.213  16.814  0.2866 -0.1668  0.0638
22175W        W41709   1.157  10.748  14.731 -0.0646  0.1736 -0.1155
22176W        W41710  13.928  14.559  16.156 -0.0232 -0.2286 -0.1648
22177W        W41711   6.131  16.000  13.442  0.0735  0.1076  0.0820
22178W        W41712  10.681  13.275   1.504 -0.1826 -0.0953  0.0062
22179W        W41713  11.043  16.007   3.750 -0.1085  0.0056  0.1166
22180W        W41714  15.478   2.123   4.038 -0.1653 -0.2092  0.2843
22181W        W41715  17.213   3.389   0.674  0.0590 -0.0219  0.0319
22182W        W41716  10.290   9.871   3.333 -0.0079 -0.1561  0.1822
22183W        W41717   8.829   9.189   0.686  0.2058 -0.0578 -0.0374
22184W        W41718   3.225   3.620   5.122  0.0599  0.2073 -0.1989
22185W        W41719  10.226  16.221  12.957 -0.2571 -0.0288 -0.1475
22186W        W41720  16.931   1.148  14.121 -0.2074 -0.0386 -0.0155
22187W        W41721  11.969   2.231   0.538 -0.3562 -0.1767 -0.1598
22188W        W41722   3.232  12.725  13.576  0.0444 -0.0441  0.1868
22189W        W41723   0.226  15.666   4.440  0.0118 -0.0182  0.0374
22190W        W41724  16.116   4.790   1.691 -0.0206  0.2057  0.0101
22191W        W41725   1.872   7.459  16.727  0.0995  0.0831 -0.1833
22192W        W41726   2.449   9.292   1.652  0.1457 -0.2219 -0.1589
22193W        W41727  17.013  11.707  17.056  0.0438 -0.1186  0.0971
22194W        W41728   8.944  12.728   0.524 -0.4377  0.0002  0.0140
22195W        W41729   5.828  12.844   0.877 -0.2261 -0.0676  0.0936
22196W        W41730   1.481   3.120  13.213 -0.5822  0.2058  0.2149
22197W        W41731   2.276   8.579   3.710  0.0921 -0.0251 -0.2039
22198W        W41732  14.110  12.817  16.606 -0.1390 -0.1658 -0.2371
22199W        W41733  16.040   6.219  14.582 -0.0205 -0.2286  0.0015
22200W        W41734   7.655   4.658   3.443  0.2466  0.0408  0.0707
22201W        W41735  12.257  15.844   3.988 -0.0624  0.1199 -0.2553
22202W        W41736  15.742   8.958   4.735 -0.2254 -0.2787 -0.1305
22203W        W41737   5.778   4.639   1.138 -0.1125  0.1401  0.1527
22204W        W41738  14.804  17.179   3.221  0.1213  0.1433 -0.0267
22205W        W41739  13.255   7.892  16.325 -0.1217 -0.0305  0.2900
22206W        W41740   9.970   1.219  14.720 -0.1064  0.1807 -0.3200
22207W        W41741   7.218   2.805  13.766  0.1602 -0.0194 -0.0135
22208W        W41742   6.716  15.887  15.752  0.2130 -0.0500 -0.0449
22209W        W41743  11.138  11.451  13.153 -0.0322 -0.2746  0.1546
22210W        W41744  16.686   3.298  12.601  0.0022 -0.2203  0.2393
22211W        W41745  13.389   6.449   4.434 -0.0616  0.1094 -0.0354
22212W        W41746  11.408   7.998  16.864 -0.1442  0.1518  0.0434
22213W        W41747   9.979   3.296  13.700 -0.0759  0.2397 -0.0491
22214W        W41748  13.112  11.309   0.255  0.1973  0.0725 -0.2016
22215W        W41749  11.827  11.168   0.912 -0.0478  0.0127  0.1986
22216W        W41750  14.731  14.451   4.167  0.1228  0.2059  0.0325
22217W        W41751  13.252  14.007  15.261  0.2708 -0.0837 -0.1916
22218W        W41752  14.484   5.708   5.107 -0.2666  0.0921  0.0389
22219W        W41753  16.628   0.670   3.844 -0.1938 -0.1923 -0.1539
22220W        W41754   3.183   4.725  14.564  0.1810  0.0045  0.0394
22221W        W41755   3.808  13.369   0.733 -0.0926  0.0144 -0.1957
22222W        W41756  10.278   6.987   0.303  0.0294 -0.0824 -0.2026
22223W        W41757   7.748   8.682   4.724 -0.1642 -0.1098 -0.1571
22224W        W41758  11.956  10.896  16.232  0.0881  0.1700  0.0340
22225W        W41759  10.197   1.687  16.192  0.1299  0.2737 -0.3291
22226W        W41760  14.056   4.846   4.059  0.2326 -0.1530 -0.0512
22227W        W41761   5.973  15.436  17.078  0.1998 -0.0500 -0.0942
22228W        W41762   4.711   3.235   6.034 -0.2342 -0.1737  0.0632
22229W        W41763  10.752  11.260   4.687 -0.0522  0.0555  0.1482
22230W        W41764   9.775   2.808   2.062  0.3239  0.4654  0.2032
22231W        W41765  15.068  12.346  16.469 -0.1958  0.0058  0.1903
22232W        W41766   4.063   4.434  14.559  0.0020 -0.0257 -0.1904
22233W        W41767   2.059   7.157   0.633 -0.0201 -0.4285  0.3713
22234W        W41768   5.528  13.213   3.462  0.1515 -0.2692  0.0397
22235W        W41769  12.446  11.403  12.485 -0.2772 -0.0256  0.0403
22236W        W41770   2.567   1.927   4.242 -0.0488 -0.1751  0.0071
22237W        W41771  10.217   3.137  15.517  0.2152  0.3397  0.2972
22238W        W41772  11.714  15.805   1.963 -0.0577  0.0891  0.2811
22239W        W41773   2.332  10.457  14.764  0.1230 -0.0993 -0.0813
22240W        W41774  12.977  17.334   4.859 -0.1994  0.1216  0.0480
22241W        W41775   8.968   5.337  16.139  0.0082  0.0378  0.3298
22242W        W41776   4.056  11.020   2.216 -0.0889  0.2024  0.1180
22243W        W41777   8.490   4.103   0.933  0.4609 -0.2491  0.1643
22244W        W41778   9.226  14.811   4.286 -0.1681 -0.0667 -0.1604
22245W        W41779   5.418   4.623  16.884 -0.0862 -0.1036 -0.1858
22246W        W41780   5.374   5.158   2.329 -0.0426 -0.1145 -0.0619
22247W        W41781  16.694  17.021  13.741  0.2212 -0.0112 -0.0829
22248W        W41782  10.499  10.247   2.444 -0.0010 -0.1198 -0.1809
22249W        W41783  11.959   7.066  13.078  0.1638 -0.0048 -0.1663
22250W        W41784   3.224   8.698   0.312 -0.2054  0.0431  0.0841
22251W        W41785   0.812  13.829  13.183 -0.0273 -0.0660  0.3056
22252W        W41786  13.341   9.528  15.226 -0.1422  0.0689  0.1447
22253W        W41787  11.241   1.017   4.646 -0.1186  0.0394  0.0064
22254W        W41788  11.267   3.808  14.080 -0.1905  0.2376  0.0655
22255W        W41789  15.670  17.444  15.591  0.1907  0.2121 -0.2018
22256W        W41790   0.245   9.905   1.556 -0.1451 -0.0263  0.0130
22257W        W41791  17.013   0.024  15.020  0.3818 -0.1464  0.1318
22258W        W41792  17.169  12.194   3.451  0.0149 -0.0141  0.0474
22259W        W41793  13.918   5.030   4.883 -0.1988 -0.2191  0.0158
22260W        W41794   0.169   6.753   0.164 -0.3112  0.0479 -0.1729
22261W        W41795   0.857   3.904   1.955  0.0615 -0.1497  0.2757
22262W        W41796   7.347  10.397  15.425 -0.2743  0.4098  0.2914
22263W        W41797   6.379   9.164  17.252 -0.0097 -0.0186  0.0904
22264W        W41798  10.107  14.712   0.272  0.1744  0.2188 -0.0604
22265W        W41799   7.165   6.868  12.483 -0.1468  0.1639 -0.4304
22266W        W41800   5.881   0.374  15.690 -0.2597  0.1303 -0.1761
22267W        W41801   9.106  10.909  15.586 -0.0745  0.2887  0.0944
22268W        W41802   0.993  10.257   4.352 -0.0866  0.0624 -0.0704
22269W        W41803  11.516  11.040  14.168 -0.2656 -0.3644 -0.0816
22270W        W41804  16.622   3.406  13.808  0.0826 -0.1060  0.0403
22271W        W41805   4.577  14.048   0.700  0.1171  0.0861  0.0452
22272W        W41806  14.358   3.103   1.276  0.0733  0.0581  0.1210
22273W        W41807  10.891   1.790   1.786 -0.2626  0.2437 -0.0119
22274W        W41808  13.326  11.025   1.913  0.0734  0.2248  0.1578
22275W        W41809   3.081   2.790   6.319  0.1982 -0.2288  0.2298
22276W        W41810   6.039   7.388  16.029  0.0632  0.2741 -0.2876
22277W        W41811   9.694  15.579   4.025  0.0675 -0.1683  0.2077
22278W        W41812   0.983  17.283   3.926  0.1762  0.0843  0.1219
22279W        W41813   8.655   8.910   3.074  0.0282 -0.0927 -0.3160
22280W        W41814  14.925  15.182   0.123 -0.1386  0.1659 -0.0106
22281W        W41815  10.553   2.240  16.976 -0.1628 -0.1840  0.0815
22282W        W41816   1.114  11.593   4.223  0.0551  0.0200  0.1952
22283W        W41817   1.654  12.762   3.829 -0.1920  0.2368 -0.2509
22284W        W41818   5.589  14.948  12.358 -0.0604  0.0441  0.0870
22285W        W41819   2.954   3.924  16.991 -0.1062  0.1295  0.3556
22286W        W41820   3.485   7.345  13.363 -0.0890 -0.2831 -0.4292
22287W        W41821  16.099   8.175  15.550 -0.1070  0.3390  0.0875
22288W        W41822  12.986  16.525   4.254  0.0645  0.1122 -0.0554
22289W        W41823   7.249  12.796  14.136  0.0513 -0.0317  0.0576
22290W        W41824   2.417  13.403  15.944 -0.3172 -0.2608 -0.4897
22291W        W41825  16.128  11.919  13.450  0.1238  0.0818 -0.1050
22292W        W41826  11.945   6.707   3.961 -0.1968 -0.0345 -0.0619
22293W        W41827   6.644  11.807   5.099 -0.1351  0.2300 -0.0699
22294W        W41828   2.034   1.548  12.497 -0.2528  0.2062  0.1007
22295W        W41829  10.479   7.327  12.513  0.0686  0.0961  0.0295
22296W        W41830  14.599   9.999  14.085 -0.1043  0.3043  0.0749
22297W        W41831  10.966  13.930   1.818 -0.1950 -0.2108  0.0292
22298W        W41832   9.647  17.247   1.832  0.1227  0.0457 -0.2333
22299W        W41833  12.855  13.075   0.178  0.2902  0.2392 -0.0662
22300W        W41834   8.583   4.229   1.827 -0.1932  0.1038 -0.0715
22301W        W41835  15.844   2.571   1.920 -0.1969 -0.0859 -0.0265
22302W        W41836   1.516   5.334   2.065 -0.3199  0.0573 -0.1470
22303W        W41837   4.746   6.990  16.364 -0.0721  0.3566 -0.1981
22304W        W41838   0.160  13.891   2.725 -0.1424  0.3690  0.0437
22305W        W41839  16.692   8.870  14.475  0.0252  0.3151  0.2550
22306W        W41840   6.040   3.018  14.552 -0.2799  0.1212  0.0812
22307W        W41841   3.856  16.658   3.275 -0.2770 -0.1536  0.0406
22308W        W41842  16.517  14.848  15.245  0.1623  0.3702  0.0785
22309W        W41843   6.423  14.923  12.803  0.1643 -0.0287 -0.1024
22310W        W41844   4.378   4.964  13.843 -0.0491 -0.0184  0.0524
22311W        W41845   8.262   8.621  14.409  0.0253  0.5109 -0.1492
22312W        W41846  14.309  15.576   5.003 -0.0831  0.2186  0.0571
22313W        W41847   5.378  14.190   1.629  0.4264 -0.3012  0.0883
22314W        W41848   1.192   6.205  17.293  0.0651  0.2169 -0.0798
22315W        W41849   4.776  16.340   3.885  0.0307  0.3725 -0.0424
22316W        W41850   7.313   8.292  12.607 -0.1390 -0.2852  0.4615
22317W        W41851  13.825  12.686   4.184  0.0668  0.1875 -0.2803
22318W        W41852  15.602  12.535   3.491 -0.3102 -0.0816  0.0463
22319W        W41853   0.130  14.989  15.961 -0.3039 -0.0327  0.0994
22320W        W41854  14.942   4.883   5.140  0.0111 -0.0252  0.0036
22321W        W41855   3.474   7.748  14.533 -0.0859  0.1077 -0.3734
22322W        W41856   0.978  14.454   3.505 -0.1055 -0.2643  0.0476
22323W        W41857   0.251  11.912   2.075  0.1738 -0.1320  0.0829
22324W        W41858   9.812  12.488  15.876 -0.1789 -0.2040  0.2035
22325W        W41859  16.871   0.750  14.825 -0.3498  0.2290  0.0427
22326W        W41860  11.431  13.177  15.305 -0.4457  0.0619 -0.0845
22327W        W41861   0.105   6.747   5.034  0.0052 -0.2783 -0.0922
22328W        W41862   0.858   7.084   3.288  0.1324  0.3038  0.2693
22329W        W41863  16.399   4.934  16.407 -0.1789 -0.1823 -0.1962
22330W        W41864   8.586  13.214  13.667 -0.0190  0.0729  0.0939
22331W        W41865   4.047   9.588  13.363 -0.1525 -0.1441  0.0837
22332W        W41866  14.683  10.455   3.488  0.1398 -0.1841 -0.4394
22333W        W41867  10.819   4.732   3.261  0.1228  0.3650 -0.1530
22334W        W41868   0.784   4.487  16.917 -0.2547  0.1135 -0.0248
22335W        W41869   9.220   3.754  14.704  0.2646  0.1968 -0.4156
22336W        W41870  15.359  16.678  17.207 -0.2463 -0.0275  0.1675
22337W        W41871  12.330   9.986  14.452  0.1821  0.1182 -0.0845
22338W        W41872  14.367   4.201  13.232  0.0273  0.1334  0.0621
22339W        W41873   7.307   8.884   4.535  0.1679  0.4658 -0.1047
22340W        W41874  13.575  12.616  12.231  0.0891 -0.1010 -0.0052
22341W        W41875  13.170   5.090  16.564 -0.1160 -0.2858  0.1690
22342W        W41876   5.041   5.577   2.510  0.2710  0.2045 -0.1641
22343W        W41877   0.630   9.190  11.237 -0.1239  0.0080 -0.3069
22344W        W41878  12.060  14.851  17.064  0.0922  0.1435 -0.1271
22345W        W41879   3.220   1.081  13.034 -0.1256  0.0377 -0.0095
22346W        W41880   2.524  15.617  12.971  0.1431 -0.1027  0.4437
22347W        W41881  15.341   4.679   0.783 -0.0355 -0.1014 -0.1828
22348W        W41882   7.086   8.612   4.051  0.0776  0.1626 -0.1246
22349W        W41883   1.059   2.220  13.484 -0.1349 -0.1646  0.1830
22350W        W41884  11.693   8.121  16.302 -0.0962 -0.1908  0.0839
22351W        W41885   0.866  13.446   1.367 -0.0817 -0.1275 -0.0103
22352W        W41886   3.644   1.231  13.681 -0.0998 -0.2105  0.0173
22353W        W41887   8.989  12.913  14.325 -0.0954 -0.1154  0.0174
22354W        W41888   7.684  14.928   0.369 -0.0598  0.1945  0.1261
22355W        W41889  13.112   8.023  14.513 -0.2356 -0.2702 -0.1471
22356W        W41890   0.749   9.639   3.760 -0.1361  0.2072  0.1480
22357W        W41891   5.698   7.619   3.366  0.1207  0.3092  0.0452
22358W        W41892   9.433   0.535  16.972 -0.2798  0.0137 -0.2727
22359W        W41893  15.207   7.898   1.484 -0.0664 -0.0092  0.1915
22360W        W41894   4.188   1.670   0.169 -0.0766 -0.0148 -0.1064
22361W        W41895   6.630  13.296   5.027 -0.1167 -0.0037  0.0417
22362W        W41896  10.875   2.691   2.797  0.1613 -0.4201 -0.0224
22363W        W41897  12.154   5.715  16.007  0.2523 -0.0762  0.1867
22364W        W41898   1.928   0.157   1.994  0.0122  0.0268 -0.1424
22365W        W41899  11.503   1.820  12.306 -0.0865 -0.0227  0.2658
22366W        W41900  10.085   3.151   0.280  0.0697  0.1162 -0.1901
22367W        W41901   5.918  16.682  14.286  0.0795 -0.3938  0.0408
22368W        W41902   8.763   2.589  13.453 -0.1488 -0.3234 -0.1473
22369W        W41903  13.959  15.499   1.511  0.1905  0.2704 -0.0835
22370W        W41904  10.009  16.474   4.964  0.0937  0.1116  0.0596
22371W        W41905   7.502  14.857   1.543 -0.1116  0.1540  0.2823
22372W        W41906  16.684   0.843  15.477  0.0390  0.1701 -0.1428
22373W        W41907   9.740   2.898  16.132  0.1313  0.0926 -0.0052
22374W        W41908  15.587   7.269   3.889 -0.0544 -0.1142  0.0016
22375W        W41909   5.392  12.128   1.891 -0.1067  0.1508  0.1000
22376W        W41910  13.708  15.752  13.085 -0.2403  0.0398  0.3970
22377W        W41911   9.745  11.225   5.081  0.1076 -0.1884 -0.0375
22378W        W41912   7.572  13.443   1.242 -0.2161  0.0644  0.1892
22379W        W41913   0.522   0.264  16.179 -0.0921  0.0208 -0.1530
22380W        W41914   9.548   3.689   0.758  0.1370 -0.2181  0.2380
22381W        W41915  13.596  16.324  13.897 -0.1062  0.3677 -0.0936
22382W        W41916   8.312   7.347  14.735  0.2040  0.2002  0.1412
22383W        W41917  16.285   1.102   3.854 -0.0155 -0.0222  0.2857
22384W        W41918   3.658   7.377  16.971  0.0052 -0.0469 -0.1695
22385W        W41919   2.888   3.444   4.804  0.0088  0.1597 -0.1208
22386W        W41920   2.494   4.380   3.407  0.0175  0.1986  0.1179
22387W        W41921   1.559   0.107   3.955  0.0198  0.0151 -0.0400
22388W        W41922   6.369  14.881   3.833 -0.0932 -0.0022  0.1745
22389W        W41923  16.148   0.153   1.467  0.0694 -0.0883 -0.2944
22390W        W41924   2.974   4.323   2.006 -0.1185  0.2049  0.3583
22391W        W41925  15.732  15.768  12.455  0.0263 -0.4061  0.1021
22392W        W41926  15.806  13.639  12.457 -0.0227 -0.1425 -0.0747
22393W        W41927   0.143   8.811   1.209  0.0258  0.1750 -0.1572
22394W        W41928  10.033   4.522  15.608 -0.1607  0.1516  0.2558
22395W        W41929   0.827  11.870  11.263  0.1185 -0.1576  0.0618
22396W        W41930  12.896  16.478  15.345 -0.2057 -0.1072 -0.1394
22397W        W41931   5.403   7.635   1.436  0.0641  0.2480 -0.0899
22398W        W41932   3.591   2.934   3.617  0.1609  0.0198  0.2648
22399W        W41933   1.256   3.161  15.557  0.0926 -0.1087  0.0146
22400W        W41934   9.502  15.657  15.423 -0.1249 -0.1148 -0.0357
22401W        W41935  10.295  17.055   5.031  0.0974 -0.1353  0.1244
22402W        W41936   8.498   0.652  12.509  0.2541  0.0166  0.1190
22403W        W41937  11.359   1.230   0.653  0.2381 -0.0116 -0.1695
22404W        W41938  11.002   9.396   0.502  0.3066 -0.1549 -0.0090
22405W        W41939   2.680   4.748  15.224 -0.0846 -0.1462 -0.1820
22406W        W41940   7.639   0.394  15.503  0.1555 -0.0620  0.0470
22407W        W41941  10.766   0.689   0.323  0.1900 -0.0158  0.0563
22408W        W41942   6.943  11.176   4.343  0.0578 -0.0646  0.0847
22409W        W41943   4.336  11.876  15.305 -0.0177 -0.1832  0.0397
22410W        W41944  14.116   8.273   0.975  0.0387 -0.0894 -0.3258
22411W        W41945  10.817   1.763   2.325  0.1111  0.1725 -0.1240
22412W        W41946   2.929  12.952  12.657  0.0248 -0.1601 -0.1975
22413W        W41947  13.238   7.373  16.390  0.0559  0.1294 -0.1900
22414W        W41948  12.485  13.492  15.146  0.1797  0.2517  0.3249
22415W        W41949   9.339   5.749   3.700  0.1038  0.3019  0.0286
22416W        W41950  15.510   4.745   0.152  0.0470  0.0183  0.0990
22417W        W41951   5.864   5.920   2.553  0.3025 -0.2248  0.1319
22418W        W41952  11.975   0.668   0.352 -0.2363 -0.1549  0.0980
22419W        W41953   5.541   4.071  13.880  0.1174 -0.2968  0.2327
22420W        W41954  11.612   2.550   2.134  0.0868  0.1949 -0.1287
22421W        W41955   4.851  13.918  14.952 -0.1972  0.0491  0.2163
22422W        W41956   8.015  16.620   2.660  0.0457  0.1076  0.1505
22423W        W41957   2.013  10.455   3.915 -0.1045 -0.1758 -0.1018
22424W        W41958  16.009   3.471  16.280 -0.0998  0.1136 -0.2511
22425W        W41959   2.100  17.228   1.737 -0.0794  0.1971 -0.0513
22426W        W41960  15.432   6.712  16.487  0.4167  0.0567 -0.3246
22427W        W41961   4.301   0.695   2.464 -0.1026 -0.3860 -0.2596
22428W        W41962   2.408   0.192  12.864 -0.1121  0.0176 -0.1236
22429W        W41963  11.140  15.317   1.976  0.1479  0.0334 -0.0234
22430W        W41964  13.896   5.779   2.270 -0.0323  0.2618 -0.1093
22431W        W41965  12.709   7.798  14.204 -0.2304 -0.0857 -0.0265
22432W        W41966   6.676  16.836  13.673  0.0165  0.2779  0.0250
22433W        W41967  11.284  10.435  12.795  0.1730 -0.0268  0.0907
22434W        W41968  13.798  11.799  12.288  0.0421  0.1254 -0.0726
22435W        W41969  13.455   9.496  12.055 -0.1773  0.0361 -0.2109
22436W        W41970   0.710   1.956  13.260 -0.0026 -0.0777  0.1768
22437W        W41971  11.069   5.382  12.861 -0.1588 -0.1450  0.1876
22438W        W41972  13.070  12.595  12.580  0.2558 -0.0782 -0.0515
22439W        W41973  15.593   8.824  16.784 -0.2008  0.2431 -0.1539
22440W        W41974   6.756  13.121   1.706 -0.2800 -0.2326  0.1570
22441W        W41975   7.699   6.330  16.082  0.1075  0.1866  0.3822
22442W        W41976   2.295  11.217  13.914 -0.3230  0.1904  0.1117
22443W        W41977   1.755   8.317   1.146 -0.4178  0.0019  0.0515
22444W        W41978  15.022   3.246   4.876 -0.1456  0.0033  0.0177
22445W        W41979   0.754   2.657  13.511 -0.2205  0.1363  0.2131
22446W        W41980   2.845   2.866  15.498 -0.2998 -0.2808  0.0978
22447W        W41981  12.126   2.287   3.429 -0.0302 -0.0045  0.0756
22448W        W41982   1.556  13.736   4.524 -0.2616  0.2433 -0.1122
22449W        W41983   6.596   0.293   0.007  0.2355 -0.0425 -0.0308
22450W        W41984   7.049  12.604  15.272  0.0638 -0.1111  0.1336
22451W        W41985  10.446  12.641  12.459  0.0878  0.0176 -0.3077
22452W        W41986  12.315   2.429   4.295  0.3905 -0.1411 -0.0857
22453W        W41987   4.763  14.845   1.255  0.1464 -0.1339  0.2373
22454W        W41988   2.479  17.427   3.153 -0.2339  0.0535  0.1042
22455W        W41989   2.328  16.762  16.206  0.1399  0.0129  0.2217
22456W        W41990   0.092   1.433  16.434 -0.0610  0.1588  0.1110
22457W        W41991  16.043   8.379   2.419  0.0040 -0.0184  0.0950
22458W        W41992   5.156  11.588  13.316  0.1446 -0.0776  0.1088
22459W        W41993  14.077   4.322  12.886 -0.1350  0.0001  0.0157
22460W        W41994   7.641  17.317  15.623  0.0161 -0.2649  0.0390
22461W        W41995  14.926   1.891   4.367  0.0260  0.0112 -0.0510
22462W        W41996   1.406  15.445  15.491 -0.0035  0.2248 -0.0560
22463W        W41997   3.184   7.085   1.393 -0.1227  0.2064 -0.2475
22464W        W41998   0.703   2.660   2.939  0.1405  0.0346  0.2214
22465W        W41999   9.541  17.430  13.949  0.0158 -0.3054 -0.0861
22466W        W42000   8.326  14.623   4.841 -0.1664 -0.2866  0.0207
22467W        W42001   4.344  15.766   2.660  0.0005 -0.1393  0.0199
22468W        W42002  11.181  16.160   1.312  0.0094  0.0569  0.0858
22469W        W42003  10.410  16.570  13.318 -0.0291  0.0315 -0.3680
22470W        W42004  15.621   8.229   4.185  0.0932 -0.0339 -0.0506
22471W        W42005  12.558  12.029  15.138 -0.0514  0.0017 -0.1754
22472W        W42006   2.760   0.597   2.610 -0.3168 -0.1054 -0.1738
22473W        W42007   5.175   4.505  12.190 -0.1814 -0.0835  0.1260
22474W        W42008  17.126   6.299   3.562  0.0343 -0.0170 -0.1062
22475W        W42009  15.101  14.496   1.953  0.1138  0.1424  0.0050
22476W        W42010   6.824   6.282   5.075 -0.1089  0.3871  0.1788
22477W        W42011  15.744  11.355  16.768  0.1809  0.2031  0.0346
22478W        W42012   3.446   1.808  15.079  0.1007 -0.1153 -0.2307
22479W        W42013  14.565   1.948  13.957 -0.3233  0.1040  0.0969
22480W        W42014   7.615  10.106  12.190  0.1082  0.3769 -0.1053
22481W        W42015  15.967  16.512   0.588  0.0665 -0.0213  0.0215
22482W        W42016   8.005   3.715   2.993  0.1747  0.0022 -0.2464
22483W        W42017   8.965   8.829  15.667 -0.2969 -0.0686 -0.2225
22484W        W42018  16.787  12.608  15.184  0.1604 -0.1612  0.2248
22485W        W42019   7.665   6.096   3.512  0.2059  0.0628  0.1084
22486W        W42020  17.396   7.068  17.114 -0.1338  0.0934 -0.0394
22487W        W42021  14.011  14.620   3.566 -0.2563  0.0035  0.0565
22488W        W42022  10.685  15.312  14.832 -0.0413  0.1277  0.1344
22489W        W42023   7.767   9.304   0.946  0.1361 -0.0976 -0.6056
22490W        W42024  15.799   9.994  17.078 -0.0466 -0.0656 -0.2137
22491W        W42025  14.945  12.988   2.984 -0.1049  0.1575 -0.0825
22492W        W42026   8.028  10.141  15.078  0.0894  0.1776 -0.2794
22493W        W42027  14.366  10.172   5.171 -0.2077 -0.1639  0.1175
22494W        W42028   9.000  10.974   1.374  0.4460  0.2015  0.1996
22495W        W42029  15.703  17.108  13.503  0.0840  0.0232 -0.2660
22496W        W42030  14.669  10.687  13.144  0.1952 -0.1934 -0.1528
22497W        W42031  12.947   6.173   4.673 -0.0010 -0.0428 -0.0801
22498W        W42032  13.733   8.330  12.434  0.0244  0.1652  0.1997
22499W        W42033  14.435   3.568  14.908 -0.3931  0.1151  0.4662
22500W        W42034  13.048  15.670  15.045  0.2362 -0.4437  0.1103
22501W        W42035  15.836  17.014  14.031  0.0694 -0.0905 -0.1996
22502W        W42036   5.881   4.351   2.229 -0.0693  0.1046 -0.2419
22503W        W42037   0.947  13.404  15.801 -0.1759 -0.2195  0.0857
22504W        W42038  13.991  16.239   4.372  0.0677  0.1294  0.2383
22505W        W42039   5.044   9.561  11.587 -0.2165 -0.1586  0.0231
22506W        W42040   6.130  16.384  12.991 -0.2248  0.1123  0.0137
22507W        W42041  15.698   6.706  13.372  0.0593  0.1566 -0.1524
22508W        W42042   1.303  11.865  16.657 -0.0272 -0.4101 -0.2839
22509W        W42043  15.408  17.069   1.729 -0.1583 -0.3090 -0.0102
22510W        W42044  14.520   3.061  14.902 -0.2978  0.3028  0.1395
22511W        W42045   2.790  16.549  13.702  0.2854 -0.1683 -0.3022
22512W        W42046  10.347   4.128  12.787  0.0571 -0.1115 -0.0125
22513W        W42047  13.921   3.477  14.917  0.1038 -0.0304 -0.1536
22514W        W42048   1.856   2.635   1.082  0.0403 -0.1192  0.1805
22515W        W42049   9.578   9.498  12.408 -0.0769 -0.0987 -0.0538
22516W        W42050   1.208  14.438   0.832  0.1708  0.1406  0.3915
22517W        W42051  15.294  16.268   3.490  0.0581  0.1012  0.0377
22518W        W42052  10.959   8.610  14.487 -0.0101  0.2419 -0.1568
22519W        W42053  14.562  16.003   0.607  0.1109 -0.0425 -0.0594
22520W        W42054   5.709   2.941   1.897 -0.0803  0.0406 -0.0947
22521W        W42055  10.284  13.009  14.730 -0.0183  0.0471 -0.0445
22522W        W42056   9.224  13.686  16.045 -0.1059 -0.0478 -0.1443
22523W        W42057  10.995   1.801   0.296 -0.0618  0.1421  0.0347
22524W        W42058   9.436   9.236   0.068 -0.0547  0.0529  0.0998
22525W        W42059   4.095  14.705   5.145 -0.1587  0.3113 -0.0635
22526W        W42060  16.590   0.106   2.222  0.1072  0.2849  0.0847
22527W        W42061   2.436   4.218   2.136 -0.0223  0.1429 -0.3890
22528W        W42062   1.874   0.487   0.934 -0.1796  0.0572  0.1275
22529W        W42063   0.474  12.541  15.882 -0.1406  0.0754  0.1984
22530W        W42064   1.883  16.732  11.898  0.0691  0.0290  0.4357
22531W        W42065  17.445   0.916  17.131 -0.1651  0.1501 -0.1979
22532W        W42066   7.737  13.577  14.853 -0.0528 -0.2598  0.2223
22533W        W42067   6.052  10.688  14.522 -0.1230  0.0895  0.0141
22534W        W42068  13.077   8.596  16.844  0.5169 -0.0644  0.0919
22535W        W42069   0.539  13.076  16.826 -0.0491 -0.1196  0.2203
22536W        W42070  11.522   8.958  13.795  0.3373  0.1474 -0.1165
22537W        W42071   2.310  15.802   3.938 -0.1353  0.0808  0.0727
22538W        W42072  11.679  10.748  12.169  0.0280 -0.1232 -0.3673
22539W        W42073   7.751   8.869   1.182  0.1100  0.2746 -0.2444
22540W        W42074   8.339   3.583   3.368 -0.0126 -0.1860 -0.0427
22541W        W42075  14.339   3.339  11.369  0.0089 -0.3789 -0.0980
22542W        W42076  12.501   8.255  17.271 -0.0288 -0.0776  0.0652
22543W        W42077   9.904   5.964  14.705 -0.2679 -0.1870  0.0930
22544W        W42078  15.463  11.184   1.291  0.1826  0.2179  0.0579
22545W        W42079  11.081   7.159  13.819  0.0511 -0.0667 -0.3720
22546W        W42080   5.527   1.653   0.224  0.1886 -0.1973 -0.2090
22547W        W42081  17.214  13.405   3.802 -0.0578 -0.0705  0.0565
22548W        W42082   3.919   3.995   0.813 -0.0526 -0.0522 -0.1006
22549W        W42083   2.050   6.391  15.024 -0.1848  0.0550 -0.2139
22550W        W42084  11.068   4.720  13.024 -0.1668  0.1693  0.1405
22551W        W42085   1.504  13.263  14.470 -0.4840 -0.0046  0.0627
22552W        W42086   7.303   6.503   1.442 -0.0951  0.1007 -0.1454
22553W        W42087   8.353  15.523   4.986  0.1217 -0.2516  0.0790
22554W        W42088   4.643  11.626  13.496 -0.0401  0.0805  0.0420
22555W        W42089  14.817  10.129   2.681  0.1811 -0.0033 -0.0241
22556W        W42090   6.704   2.768   1.499 -0.0811  0.0428  0.1136
22557W        W42091   0.199  15.061  13.899 -0.0355  0.0597  0.0180
22558W        W42092  12.212   9.297   1.026 -0.2819  0.0268 -0.1233
22559W        W42093   3.515   9.202   3.265 -0.0719 -0.0824 -0.3728
22560W        W42094   2.123  15.853   1.259  0.3746  0.1617  0.1891
22561W        W42095   1.526  12.837   1.996 -0.3866 -0.1082  0.0626
22562W        W42096   7.791  15.824  16.723 -0.3152 -0.0711 -0.0330
22563W        W42097   1.601  16.193   1.667  0.0658  0.1300 -0.0836
22564W        W42098  15.669   6.990   1.589 -0.0220  0.2028 -0.1064
22565W        W42099  15.283  12.652   3.116  0.0208  0.1815  0.1405
22566W        W42100   9.888   6.081  15.218 -0.1498  0.0701  0.1245
22567W        W42101  13.233   4.571   0.439 -0.1357 -0.4022  0.1400
22568W        W42102   9.740   1.827  16.031 -0.1512 -0.1682  0.0814
22569W        W42103  13.143   7.478  14.502  0.2593 -0.4083 -0.1867
22570W        W42104  10.152   8.055   3.469 -0.3133  0.0838 -0.1932
22571W        W42105   5.880   5.327  13.360  0.1281  0.2819 -0.2665
22572W        W42106   4.021  15.079  15.142  0.2511 -0.0235  0.1632
22573W        W42107  10.734  11.353  12.744  0.2932 -0.2277 -0.0445
22574W        W42108  15.727   2.403  12.416  0.0456 -0.1598 -0.5249
22575W        W42109   0.770  15.114  14.798  0.1021  0.0357  0.1693
22576W        W42110  13.904  13.390   3.840  0.0130 -0.0751 -0.0720
22577W        W42111   0.451  14.375   0.373  0.2532  0.3018  0.0492
22578W        W42112   3.885  11.147   5.023 -0.2390 -0.4447  0.0338
22579W        W42113   3.818   8.454   0.993  0.0349 -0.0075  0.1427
22580W        W42114   3.727  13.895  12.493 -0.1428 -0.0683  0.1682
22581W        W42115  11.346   9.060  12.291 -0.3175  0.1624  0.1708
22582W        W42116   7.578  11.268   2.858 -0.0124 -0.0865 -0.2902
22583W        W42117  11.656   4.602  16.714  0.2378 -0.2099 -0.4206
22584W        W42118  14.810  12.404  15.995 -0.0754 -0.0225  0.1271
22585W        W42119  17.053  14.856  14.635 -0.1600  0.3237 -0.0084
22586W        W42120   8.425  16.113  13.166  0.0372  0.2917  0.2431
22587W        W42121  17.011   4.550  13.690 -0.1753  0.0755  0.2285
22588W        W42122   4.796  14.016   3.581  0.1918 -0.2483  0.2764
22589W        W42123   4.572   7.343   3.948 -0.0956 -0.1145  0.2276
22590W        W42124   7.113  14.245   4.970 -0.5426  0.0573 -0.2525
22591W        W42125  11.508  15.110  15.269  0.3229  0.2126  0.0755
22592W        W42126  11.058   4.040   5.239 -0.1415  0.1150  0.1361
22593W        W42127  10.522  17.000  12.552  0.4442  0.1083  0.1467
22594W        W42128   1.175   7.377  16.053 -0.1535  0.0887  0.2909
22595W        W42129   5.685  16.228  13.248 -0.0456  0.3069  0.1139
22596W        W42130   8.541  15.515  16.080  0.2752 -0.1459  0.0719
22597W        W42131  13.828   9.729   2.009  0.4428 -0.1189  0.0239
22598W        W42132   5.289   9.051   4.261 -0.1159 -0.0061  0.0176
22599W        W42133  12.939   3.776  14.776  0.1022 -0.2613 -0.1860
22600W        W42134   4.790  13.979  15.947  0.1870  0.3788  0.1829
22601W        W42135   5.759  12.670  16.742 -0.0712  0.0185 -0.1621
22602W        W42136   3.616  11.648   1.334 -0.0074 -0.1738  0.0168
22603W        W42137  11.617   3.723  12.546  0.2073 -0.0384 -0.1585
22604W        W42138   5.877   6.026   5.437 -0.2413  0.0913  0.0252
22605W        W42139   9.754   3.768  14.579 -0.1755  0.0067  0.1057
22606W        W42140   0.590  12.316   4.779  0.1297  0.1887  0.1246
22607W        W42141   9.466  11.152  12.340 -0.2945  0.0177 -0.4150
22608W        W42142   1.440   1.426   2.660  0.1552  0.1894 -0.0372
22609W        W42143  14.413  15.415  13.007 -0.4171  0.1170  0.3753
22610W        W42144   5.011   2.938  13.135  0.1152  0.1331  0.2656
22611W        W42145  10.263  14.149  17.016 -0.0319  0.1926 -0.3435
22612W        W42146   3.179   9.156   4.143  0.1554  0.0873  0.2015
22613W        W42147   2.265   0.780  16.348 -0.0302 -0.2395 -0.2796
22614W        W42148  17.148   0.174   2.347  0.4463  0.2358  0.1273
22615W        W42149   4.758   4.669  16.174 -0.3126 -0.0487  0.2265
22616W        W42150  16.234   7.368   2.821 -0.0595 -0.0799 -0.1963
22617W        W42151   8.494   5.659   2.026  0.4213 -0.1334  0.3371
22618W        W42152   6.070   0.334   0.517  0.1487  0.1520  0.0650
22619W        W42153  13.615  16.635   3.656  0.1128  0.1202  0.0058
22620W        W42154   5.069  17.412   6.113  0.1366  0.1461  0.1738
22621W        W42155  15.037   5.217   1.026  0.0700  0.0268  0.0200
22622W        W42156  11.008   4.978   2.498  0.1517 -0.2152 -0.0311
22623W        W42157   9.254  13.881   3.579  0.0442  0.0793  0.0115
22624W        W42158  12.999  13.005   4.118 -0.0053  0.2639  0.2603
22625W        W42159   0.769  14.081   0.866  0.1124  0.1281  0.0143
22626W        W42160   5.781   1.133   2.450 -0.1592 -0.0421 -0.1100
22627W        W42161   1.845  14.305   2.392  0.0171 -0.0929 -0.0980
22628W        W42162  12.015   8.321   0.120 -0.1506 -0.0586  0.3937
22629W        W42163   4.669   0.220   3.993  0.1844  0.0844 -0.1143
22630W        W42164   2.890   7.343  14.716 -0.2088  0.0376 -0.2392
22631W        W42165   2.218   3.520  15.505  0.3125  0.1377  0.2048
22632W        W42166   0.868  13.197   2.264 -0.0113  0.0972  0.0831
22633W        W42167  12.907  16.918  12.983  0.0282  0.0433 -0.1019
22634W        W42168   6.566   2.924   0.137  0.0186 -0.1508  0.0603
22635W        W42169   7.679  14.177  15.246  0.0047  0.2072  0.0955
22636W        W42170  15.975  16.544   3.269  0.1588  0.0133  0.2155
22637W        W42171   1.551   2.282  13.697  0.2786 -0.1864 -0.1486
22638W        W42172   5.111   5.131   1.839 -0.0701 -0.1444 -0.1545
22639W        W42173   1.387  17.013  13.922  0.0306 -0.3460 -0.2172
22640W        W42174  17.448  10.191  12.752 -0.0244 -0.0236 -0.0557
22641W        W42175   0.407   5.699   2.023 -0.0091  0.0289  0.0394
22642W        W42176  16.572   4.705  13.052  0.1645 -0.3839  0.2933
22643W        W42177  11.988   4.994  16.643 -0.1255 -0.2023 -0.3991
22644W        W42178  16.959   8.098   2.759  0.0298  0.0529 -0.2036
22645W        W42179   9.578   6.532   4.285  0.0191 -0.0706  0.0532
22646W        W42180  15.997   9.687   0.557 -0.1447 -0.1385  0.2613
22647W        W42181   3.782   9.331  13.010  0.1510  0.0781  0.0122
22648W        W42182  13.546   7.803  13.477 -0.2025  0.2481  0.0529
22649W        W42183  13.968   7.236   3.585  0.1478  0.0420 -0.2925
22650W        W42184   0.562   5.732  12.670  0.0683  0.2535  0.2522
22651W        W42185  11.509   7.614  16.133  0.0513 -0.2136 -0.0088
22652W        W42186  14.799  14.610  16.674  0.1449  0.4004 -0.1697
22653W        W42187   1.024  12.140  16.364  0.0934 -0.2719  0.0647
22654W        W42188  11.366  11.529  14.205  0.2905  0.0200 -0.0147
22655W        W42189   8.806   1.392   1.325  0.2877  0.0079 -0.1906
22656W        W42190   3.396  10.250   5.041 -0.3392 -0.1047 -0.2389
22657W        W42191  14.377   0.009   2.910  0.3570 -0.1316  0.1240
22658W        W42192  15.059   3.940   2.461 -0.0761  0.1150  0.0579
22659W        W42193   6.000  13.644   0.135 -0.0669 -0.2446  0.2351
22660W        W42194   2.032   6.820   1.080  0.1548  0.0897  0.1290
22661W        W42195   2.034   9.642   3.643 -0.0600 -0.0549  0.1539
22662W        W42196  10.884   8.197  12.967 -0.1227  0.2087  0.0332
22663W        W42197  12.908   3.952   3.652  0.4288 -0.0726 -0.1398
22664W        W42198  12.559   2.227   4.712  0.3187  0.0324  0.0504
22665W        W42199  16.482   3.986   0.596  0.2611 -0.0688  0.1586
22666W        W42200  14.514   4.370  16.573  0.1304  0.1824  0.1993
22667W        W42201  11.592  15.237   4.692  0.1147  0.0369 -0.0052
22668W        W42202   6.639  17.334   4.557  0.2701 -0.0264  0.2831
22669W        W42203   6.427   1.889  15.850 -0.0693  0.1802 -0.1870
22670W        W42204  10.549  14.735   5.056 -0.2158 -0.0467 -0.2611
22671W        W42205  12.466  11.731   3.369  0.1611  0.0583 -0.0678
22672W        W42206   8.271   3.274   0.791  0.2917 -0.1448 -0.1081
22673W        W42207   7.627   1.263   4.270  0.0179  0.0794 -0.2050
22674W        W42208  10.735   8.536   5.552  0.0552  0.0440  0.1988
22675W        W42209   7.272   1.212  14.665  0.0202  0.1491 -0.0550
22676W        W42210   9.238   9.375  12.753  0.0963 -0.1901  0.2624
22677W        W42211   4.776   0.064  17.310  0.0504  0.2290 -0.0054
22678W        W42212   8.131  14.842  12.774  0.1030  0.2562 -0.1070
22679W        W42213  15.536   6.112   1.322  0.0514  0.2053  0.0172
22680W        W42214   5.866   5.141   2.683 -0.0852 -0.0158 -0.1449
22681W        W42215  11.432  13.536   2.104 -0.0587  0.0814 -0.2100
22682W        W42216   0.502   4.854  12.282 -0.0424  0.1340  0.0665
22683W        W42217   5.925   3.759   2.226  0.1232  0.1299  0.0058
22684W        W42218   9.963   9.294   1.470  0.3710 -0.2979 -0.2232
22685W        W42219  15.865   1.688  13.715  0.0619 -0.1644  0.0578
22686W        W42220   8.661  14.104   1.040  0.1013 -0.1811  0.2348
22687W        W42221   9.540  13.263   0.979 -0.2128  0.1039 -0.0748
22688W        W42222  15.124   5.999  15.082 -0.0667 -0.0599  0.0467
22689W        W42223   9.633  10.629  12.946 -0.0913  0.1736  0.0821
22690W        W42224   8.996  14.596  16.858 -0.0363  0.0541 -0.2467
22691W        W42225   0.064   0.469   0.785  0.2417  0.1518 -0.0711
22692W        W42226  11.107  14.441   0.258  0.0389 -0.1604  0.0481
22693W        W42227   5.075  16.178  13.406 -0.1982 -0.1947 -0.2645
22694W        W42228   5.606   5.678   0.534 -0.1303  0.2357 -0.1538
22695W        W42229  12.319   4.506  14.209 -0.0019  0.0328 -0.1205
22696W        W42230   5.998   7.576  14.832  0.1931 -0.0953  0.2807
22697W        W42231  12.807   7.458  16.659 -0.0105 -0.1897  0.0022
22698W        W42232   2.091   8.005  13.709  0.0658 -0.0423  0.0455
22699W        W42233  15.665  11.837  13.304  0.3188  0.0990 -0.5061
22700W        W42234  15.137   1.486  15.535 -0.0118  0.0936 -0.0791
22701W        W42235  15.424   6.796   3.976 -0.0941 -0.0609 -0.4225
22702W        W42236   2.311   1.911  16.112  0.0377  0.1241  0.1143
22703W        W42237  15.360   5.779   2.883 -0.0106  0.1080 -0.2924
22704W        W42238  11.101  12.057  16.297  0.2311  0.4428 -0.2422
22705W        W42239  13.484   5.231  14.374  0.1172  0.1025  0.1453
22706W        W42240  15.282  17.070   3.138 -0.0340 -0.0693  0.0193
22707W        W42241  13.567  15.183  13.041  0.0639 -0.1152  0.0530
22708W        W42242  13.535   9.045   3.339 -0.0864 -0.1353  0.0752
22709W        W42243   5.230   4.158  17.146 -0.2920 -0.1210  0.1568
22710W        W42244   9.888   0.907  12.501  0.1304  0.0274  0.0799
22711W        W42245   0.872  15.529   1.649  0.1619 -0.0738 -0.1223
22712W        W42246   2.017  11.222  15.066  0.0883 -0.1812 -0.0489
22713W        W42247   1.110   2.731  12.480  0.0176 -0.0104  0.1408
22714W        W42248  12.093   7.303   0.781 -0.0067  0.0853  0.0843
22715W        W42249   8.205   3.303   0.253  0.1669 -0.1275 -0.0273
22716W        W42250   9.551  15.299   0.112  0.4405 -0.0919  0.0514
22717W        W42251   7.461  13.894  15.649  0.0451 -0.0089  0.3012
22718W        W42252  14.103   3.854  14.594  0.1943  0.2185  0.3636
22719W        W42253   3.831   1.984   0.841  0.0751 -0.0820 -0.0923
22720W        W42254  13.576   4.655  15.455 -0.0581 -0.0112  0.1650
22721W        W42255  13.267   0.797   1.750  0.0215 -0.0247  0.1951
22722W        W42256   8.136  16.321   4.528  0.0191  0.0027  0.2732
22723W        W42257  10.588  11.687   5.043 -0.3036  0.1666  0.2289
22724W        W42258  12.112  11.830  16.188 -0.2500 -0.2533  0.2668
22725W        W42259  12.047   8.707   3.245  0.0083  0.0303 -0.1714
22726W        W42260   6.251   1.938  13.951  0.3251  0.2697  0.0616
22727W        W42261  10.284   1.871  14.080 -0.2204 -0.1776  0.0788
22728W        W42262   3.487   6.912  16.994 -0.2204  0.1397 -0.3537
22729W        W42263  16.909  11.796   2.699 -0.3324  0.0364 -0.0376
22730W        W42264   7.757  12.840  13.893 -0.1807  0.3075  0.0866
22731W        W42265   3.564   5.059  16.235  0.0131  0.2946 -0.0092
22732W        W42266  11.269   6.327  13.820  0.0631 -0.2885 -0.0147
22733W        W42267   2.384  16.446  15.777  0.2574 -0.1598 -0.3764
22734W        W42268  14.779  11.560  15.940 -0.1788  0.1098  0.0776
22735W        W42269   2.165   6.019  15.812 -0.2118 -0.1466  0.4757
22736W        W42270  10.623   6.783   3.220  0.2442  0.1965 -0.1499
22737W        W42271  16.182  14.637   1.917  0.1342  0.0439  0.1144
22738W        W42272   6.045   1.617  14.929  0.1438 -0.0803  0.1212
22739W        W42273  16.127  12.992  13.976  0.0157 -0.0893  0.0719
22740W        W42274  15.712   0.709   2.390  0.0044 -0.0475  0.3218
22741W        W42275   8.408  10.280   5.110  0.0170  0.4665 -0.1006
22742W        W42276   8.185  17.279  12.515 -0.1110  0.0033 -0.2182
22743W        W42277  16.799   7.637   2.345 -0.1559 -0.0146 -0.0198
22744W        W42278  13.509  13.292  14.995  0.0097 -0.1194 -0.1430
22745W        W42279  14.649   2.261  15.613  0.1572 -0.1288 -0.0342
22746W        W42280   2.171  10.238  15.700  0.1282 -0.0596  0.0950
22747W        W42281   9.801  16.057   1.074  0.2329  0.0071 -0.1397
22748W        W42282   6.537  15.021  15.508 -0.1590  0.0722  0.0984
22749W        W42283   8.296   2.230   2.404  0.3395 -0.0181 -0.1625
22750W        W42284   7.704  12.021   1.583 -0.1657  0.1183 -0.1309
22751W        W42285   4.816   3.142   0.022 -0.1952  0.2104 -0.1599
22752W        W42286   5.884   4.835  15.002  0.2746 -0.4699 -0.1122
22753W        W42287   5.610   1.411   4.259 -0.0690  0.1175  0.0393
22754W        W42288   8.693   1.302   4.306 -0.0852 -0.0581  0.1514
22755W        W42289   5.514   1.149  15.274 -0.0621 -0.0602  0.2125
22756W        W42290   7.556  12.664  16.174 -0.2443 -0.2627 -0.2359
22757W        W42291  15.230  14.778   3.983  0.0238  0.1047  0.1742
22758W        W42292  12.285  10.491  14.358  0.1476  0.0578 -0.2518
22759W        W42293  14.194  12.593  13.325 -0.1254  0.1437 -0.0167
22760W        W42294  15.415  10.278   2.970  0.2001  0.2366  0.3250
22761W        W42295   6.582  14.146  12.617 -0.1388  0.1952 -0.2420
22762W        W42296  15.451  16.889   4.010  0.1861 -0.0089 -0.3144
22763W        W42297   5.416   5.259  13.718 -0.1711  0.2132 -0.0643
22764W        W42298  17.175   0.781   2.751  0.0451  0.0085 -0.0062
22765W        W42299   7.799  14.037  14.405 -0.1393  0.0620  0.0963
22766W        W42300  13.521   2.766  15.026 -0.0725 -0.0335 -0.2297
22767W        W42301  14.542  14.516  14.994  0.1162  0.1548  0.1150
22768W        W42302  12.629  10.874   3.347  0.1087  0.0835 -0.0131
22769W        W42303   3.928  15.605  12.101  0.0959 -0.3451 -0.0803
22770W        W42304   5.204  11.755   0.285  0.0418  0.0083  0.0994
22771W        W42305   4.472   5.558   1.910 -0.0410 -0.0588 -0.2577
22772W        W42306   1.272  13.165   0.698 -0.1541 -0.0248 -0.2645
22773W        W42307  11.516   9.191  12.763 -0.0471 -0.1825 -0.0271
22774W        W42308   6.754   5.589   3.949 -0.2695 -0.1274  0.0900
22775W        W42309   6.701   4.060  13.152 -0.1950  0.0672 -0.0588
22776W        W42310   0.782  15.786  16.633  0.1179 -0.1558  0.1551
22777W        W42311   2.088  15.505  13.281  0.0480  0.1332 -0.1512
22778W        W42312   0.583   8.148  15.642  0.1239 -0.1396 -0.0201
22779W        W42313   0.656  11.972   3.158 -0.1306 -0.1229  0.0800
22780W        W42314   1.924  14.692   2.054 -0.1548 -0.2491 -0.0746
22781W        W42315  11.130   3.547  12.549 -0.1217  0.0911 -0.2496
22782W        W42316  10.846   8.893   0.464  0.2355  0.0666 -0.0315
22783W        W42317  17.391   1.960   5.309 -0.1598 -0.0557  0.2398
22784W        W42318  16.523  12.151  13.014 -0.0214  0.0204 -0.0905
22785W        W42319  13.762  17.009  12.605  0.2440 -0.0020  0.2036
22786W        W42320   3.069  14.880  16.696 -0.3520 -0.1294  0.4477
22787W        W42321  10.621  10.706   0.733 -0.3436  0.2004  0.1969
22788W        W42322   4.793   2.612  15.621 -0.0790  0.2650  0.1716
22789W        W42323  14.600   3.878   2.678 -0.0911 -0.0679 -0.0808
22790W        W42324  12.768  12.122   4.572 -0.2543 -0.0045 -0.2089
22791W        W42325  12.966   8.547  15.038  0.2289  0.0578 -0.0407
22792W        W42326   6.016  14.222  15.339  0.1784 -0.2403 -0.0304
22793W        W42327   7.530  10.563  15.869 -0.0245  0.0339 -0.0059
22794W        W42328  15.157   9.345  13.607  0.5157  0.2278  0.0329
22795W        W42329   1.691  15.677  14.084 -0.0544  0.1057 -0.4298
22796W        W42330   9.000   2.843  13.046 -0.1775  0.3153  0.1458
22797W        W42331   6.908  15.612   1.872 -0.1190 -0.1796  0.0552
22798W        W42332   6.423  13.728  12.239 -0.0728 -0.0591 -0.3448
22799W        W42333   8.295   0.295  14.743  0.1107  0.1937  0.0722
22800W        W42334  16.163   4.112  15.180 -0.3389  0.1506 -0.0820
22801W        W42335   5.411  15.903   3.055 -0.3809 -0.1643  0.0470
22802W        W42336   7.022   5.986  13.238  0.1726  0.2772  0.0237
22803W        W42337   3.583   5.137   4.542 -0.1108  0.1818 -0.1744
22804W        W42338  10.116   5.653   0.196  0.2478 -0.1862 -0.1311
22805W        W42339   6.126  11.735  15.948  0.1313  0.2362 -0.0860
22806W        W42340  15.715   6.429   4.112  0.0039 -0.1934 -0.1114
22807W        W42341  12.904   1.949  14.461 -0.2686  0.1302 -0.1606
22808W        W42342  15.142  12.039   2.820 -0.2188  0.0395 -0.3142
22809W        W42343  10.381  10.372  15.640 -0.3388  0.2502 -0.0886
22810W        W42344   4.497   5.924  15.657  0.2529 -0.1364  0.0877
22811W        W42345  14.285   9.888   0.618  0.0305  0.4189 -0.0288
22812W        W42346   1.167   1.835   1.961  0.2239 -0.0145 -0.1093
22813W        W42347  13.677  16.498  12.674  0.0940  0.0103 -0.1503
22814W        W42348   3.704   3.787   4.924  0.0006 -0.0629 -0.1107
22815W        W42349   4.929   1.438   3.701 -0.0697  0.0219 -0.1478
22816W        W42350  10.108   2.248   5.155 -0.0615  0.1476 -0.1816
22817W        W42351  14.305   7.481   1.511  0.3245  0.1231  0.0531
22818W        W42352  11.882   3.635   2.708 -0.1266  0.1766  0.3081
22819W        W42353   9.363   4.617   4.948  0.0815  0.1229  0.0845
22820W        W42354   8.797   3.087  14.973 -0.0164  0.1233  0.0430
22821W        W42355  10.052   2.062  13.185  0.2211 -0.1349 -0.0089
22822W        W42356   7.396  17.392  14.002  0.2999 -0.3311  0.0158
22823W        W42357  11.317  12.789   4.100  0.0163 -0.2143  0.3845
22824W        W42358   7.776   5.715   3.166 -0.1385 -0.0838  0.1037
22825W        W42359   3.332   9.027  16.068 -0.1043  0.2235 -0.0965
22826W        W42360   4.653  11.107  12.341 -0.2421  0.1805  0.0666
22827W        W42361  12.218  17.204   1.162 -0.2077  0.0545  0.0332
22828W        W42362  12.586  16.647  12.047  0.2640 -0.2551  0.0629
22829W        W42363   2.384   6.424  16.021  0.1726 -0.0319  0.0020
22830W        W42364   4.580  14.799  16.955  0.1553  0.1482 -0.2107
22831W        W42365  16.024  13.869  16.893 -0.0404 -0.0697 -0.0985
22832W        W42366   4.641   1.288   3.281 -0.3395 -0.1078  0.2652
22833W        W42367   9.675   5.586  12.142 -0.3711  0.2389  0.0924
22834W        W42368   0.341   8.606  15.354  0.2258 -0.1053  0.0669
22835W        W42369  12.562   0.042   0.796 -0.0419  0.3350 -0.3222
22836W        W42370  13.801  14.875  13.659 -0.1180 -0.2442  0.3015
22837W        W42371  16.844  15.475   4.931 -0.1952  0.0911 -0.2057
22838W        W42372   6.272  12.059  16.682 -0.2358  0.0346 -0.0904
22839W        W42373   8.205  12.241  14.480 -0.0418  0.3752 -0.0639
22840W        W42374  13.610  12.885  16.592  0.1738 -0.0707  0.0933
22841W        W42375   0.237  16.469   3.432 -0.0870  0.0344  0.2673
22842W        W42376  14.117  17.294   3.327  0.0537  0.1610 -0.3313
22843W        W42377  15.361  15.795   4.226  0.2646 -0.2514  0.3382
22844W        W42378   6.798   2.502  16.698 -0.1076  0.0304  0.4019
22845W        W42379   0.155   8.343   3.494 -0.1051  0.0090 -0.1836
22846W        W42380  14.341   7.812  14.997  0.3140 -0.2254  0.2471
22847W        W42381  10.849   5.403   5.118 -0.2171 -0.0254 -0.1924
22848W        W42382   3.597   6.466  13.400  0.2254  0.0117 -0.0923
22849W        W42383  11.748   6.489   0.364  0.2625 -0.0728  0.1166
22850W        W42384   3.793   9.511  16.850  0.2682 -0.0448  0.0927
22851W        W42385  11.319   2.136  12.604  0.0039  0.0076 -0.1826
22852W        W42386   0.439   8.745   2.646  0.0839  0.0299  0.0631
22853W        W42387   2.125   6.741  12.425 -0.0091  0.1332 -0.2271
22854W        W42388  13.175   1.926   4.873 -0.0434 -0.1445 -0.2418
22855W        W42389   7.728   9.725  15.310 -0.3336  0.0669 -0.1596
22856W        W42390   5.179  14.186   2.581  0.3826 -0.0744  0.1689
22857W        W42391  11.787  11.117  15.783  0.2779  0.1412  0.2840
22858W        W42392   3.535  12.407   3.179  0.0317  0.2191 -0.3677
22859W        W42393  11.957   7.811   3.131 -0.4627  0.0148  0.0072
22860W        W42394  16.736  14.979   1.335  0.0368 -0.1753  0.3137
22861W        W42395  16.806   6.820  16.466  0.4338  0.1010  0.0085
22862W        W42396   8.864   5.326  13.501 -0.1602 -0.0903 -0.2624
22863W        W42397   4.896  13.173  14.009  0.0980 -0.1290 -0.2170
22864W        W42398  15.096   5.975   0.992  0.0412 -0.0640  0.1510
22865W        W42399   1.927   2.400  16.637 -0.4231 -0.2477 -0.1951
22866W        W42400  16.687   4.437   3.945 -0.0685 -0.1141 -0.0870
22867W        W42401   5.584  13.589   0.382  0.0887 -0.0564 -0.2769
22868W        W42402  11.306  16.127   4.321  0.1752  0.0713  0.0799
22869W        W42403  12.615   0.947   0.856 -0.1217  0.4119  0.0501
22870W        W42404   6.949  10.212   4.112 -0.1193 -0.2381 -0.0874
22871W        W42405   7.058   0.555   2.044 -0.0895  0.0899  0.1927
22872W        W42406   5.401  10.012  15.663 -0.1423  0.1588 -0.0180
22873W        W42407  17.039  11.926  16.134 -0.1304 -0.1920 -0.2647
22874W        W42408   1.072   8.308   3.054 -0.4452  0.1333  0.0750
22875W        W42409  16.209   6.650   0.824 -0.0880 -0.0586 -0.2659
22876W        W42410  12.682   1.929   0.654 -0.0603  0.1051 -0.0190
22877W        W42411   4.517   5.372  14.802 -0.3270 -0.0301  0.0190
22878W        W42412  12.537   3.902  12.599 -0.0270  0.1078 -0.0254
22879W        W42413  15.554  14.644   1.708  0.0233  0.1450 -0.0781
22880W        W42414  12.992  12.991  13.791 -0.0532 -0.0288 -0.0247
22881W        W42415   8.730  12.220   4.860  0.2444  0.0455  0.1239
22882W        W42416  15.706  13.319   3.421  0.0571 -0.3097 -0.0855
22883W        W42417   9.680   2.864   2.523  0.0330  0.1626 -0.0674
22884W        W42418   5.072  13.649   0.874  0.0264  0.0120 -0.3727
22885W        W42419  15.600   5.401  13.703 -0.2914  0.1942  0.0796
22886W        W42420   3.389   2.323  12.044 -0.1140 -0.0800  0.3101
22887W        W42421  16.746   0.028  12.884  0.4253  0.2708 -0.2679
22888W        W42422  12.528   6.157  13.059 -0.1044  0.1417 -0.0389
22889W        W42423  13.913  14.940  14.659 -0.0456  0.1310  0.1982
22890W        W42424  16.004  11.595   1.408 -0.0576  0.1416  0.0394
22891W        W42425   1.864   2.740   4.778 -0.0964 -0.1618 -0.1494
22892W        W42426   8.920  13.676  16.454 -0.0874 -0.0706  0.2004
22893W        W42427  11.754   6.455  16.599  0.1242 -0.1254  0.1722
22894W        W42428   7.223   9.855   2.726 -0.0824 -0.1366  0.2330
22895W        W42429   3.262  10.259  16.753 -0.1027  0.0978 -0.0641
22896W        W42430  15.993   8.012   2.764 -0.0649 -0.0241 -0.0021
22897W        W42431  16.424  16.850  16.182  0.1385  0.2975 -0.1429
22898W        W42432  11.134  16.332   0.137 -0.0652  0.1385  0.0424
22899W        W42433  13.611   2.241  16.450 -0.0272  0.2422 -0.1008
22900W        W42434  14.817  13.456   2.949  0.2448 -0.0752  0.0284
22901W        W42435   9.504  13.510  17.247  0.0605  0.1586 -0.0021
22902W        W42436   2.961   7.455  15.279  0.0124  0.0360  0.0173
22903W        W42437   3.040   9.595   3.934 -0.0642  0.0107 -0.3500
22904W        W42438   5.010   6.243  14.840 -0.1366 -0.1255 -0.0948
22905W        W42439   7.323   2.849  15.797 -0.0751 -0.0561  0.1306
22906W        W42440  13.409   9.928   3.729 -0.1200  0.2789 -0.0402
22907W        W42441   3.487  14.489  16.949  0.0179 -0.0406 -0.0432
22908W        W42442   6.973   6.670   4.785 -0.3684  0.0393 -0.2703
22909W        W42443   5.100   3.271   3.261 -0.3904  0.1679 -0.2055
22910W        W42444  14.042   4.664  12.115 -0.0181 -0.2752 -0.0446
22911W        W42445  12.872   8.087  16.856  0.1116 -0.1183  0.0789
22912W        W42446   5.821   6.816   4.789 -0.0847  0.0432  0.0512
22913W        W42447   2.810   8.138  15.979 -0.4785 -0.2030 -0.1652
22914W        W42448   9.557   9.660  15.915 -0.2152 -0.0388 -0.1280
22915W        W42449   7.837   6.466   1.452 -0.0991  0.1471  0.1645
22916W        W42450   2.856  15.411   2.312 -0.1924  0.2241 -0.0311
22917W        W42451   5.475  15.209   2.469 -0.2667 -0.1216 -0.1130
22918W        W42452   4.538  15.276   3.480 -0.0160  0.0523  0.0578
22919W        W42453  12.488   0.040   3.526 -0.0009  0.1358 -0.2080
22920W        W42454   8.597   6.731   4.796  0.1589 -0.0439 -0.2840
22921W        W42455   0.445   1.724   1.641 -0.0648 -0.0684 -0.1962
22922W        W42456   1.631   7.879   2.534 -0.0394 -0.4477  0.2675
22923W        W42457  13.641   7.656  12.977 -0.0272  0.1517  0.2395
22924W        W42458   3.407   3.954  15.642 -0.2534  0.1537 -0.0244
22925W        W42459  17.098   2.145   0.115  0.0081  0.0256 -0.2762
22926W        W42460   7.927   1.647   0.302  0.1082 -0.2561 -0.0148
22927W        W42461  12.943   4.855  13.161  0.1842  0.0266 -0.0856
22928W        W42462  11.349  12.448   2.708 -0.0103 -0.3100 -0.1776
22929W        W42463  10.397   2.839   0.469  0.0023  0.0013 -0.0023
22930W        W42464   4.173   0.509   3.468 -0.0996 -0.0727 -0.1212
22931W        W42465  16.949   2.227   0.597  0.1410 -0.0645 -0.1542
22932W        W42466   5.170  13.784  15.638 -0.1355  0.1532  0.2221
22933W        W42467   0.768   3.254   4.535  0.0040 -0.1957 -0.1344
22934W        W42468  16.527   7.506   4.079 -0.2571 -0.1701 -0.1221
22935W        W42469  12.088  16.066   4.819  0.1630  0.0908 -0.3639
22936W        W42470  12.944  15.860   6.262 -0.3513 -0.1906 -0.2168
22937W        W42471  14.452  15.494   1.415 -0.0014 -0.1440  0.2714
22938W        W42472  16.419   9.459  15.459  0.2138 -0.2450 -0.0432
22939W        W42473   0.254  11.529   2.410  0.0179 -0.3811 -0.0671
22940W        W42474  12.653  15.791   1.578 -0.1190  0.1523 -0.1991
22941W        W42475  11.442  10.810   4.938  0.1283 -0.2858 -0.1882
22942W        W42476   3.203   6.253  13.690  0.2019 -0.0532 -0.1456
22943W        W42477  10.365  15.917  15.645  0.0342  0.1334 -0.1520
22944W        W42478  16.454   1.196   5.132  0.0720  0.2478 -0.1602
22945W        W42479   3.119   1.710   1.386  0.1089  0.1739 -0.0768
22946W        W42480  10.641   9.118   1.758 -0.3966  0.0859 -0.0130
22947W        W42481   5.718  14.014  12.536 -0.0358 -0.3406 -0.1361
22948W        W42482   4.684  16.508  12.616 -0.1276 -0.2305  0.0411
22949W        W42483  13.108   1.829   0.902  0.0548  0.2428  0.5070
22950W        W42484   8.179  11.061  15.238  0.2273  0.1779 -0.1833
22951W        W42485  10.506  12.742   3.038 -0.1380 -0.1279  0.0828
22952W        W42486  12.255  15.847  13.267  0.2050  0.2691  0.1031
22953W        W42487  12.039  13.873  14.095 -0.1978  0.1513  0.1236
22954W        W42488   4.239   4.961  14.751 -0.0048 -0.0226  0.0347
22955W        W42489  15.795   2.962  13.704  0.0729 -0.1043 -0.0899
22956W        W42490   5.401   5.864   1.365  0.0146  0.0557  0.2377
22957W        W42491   8.189   8.588   4.346  0.0828  0.2128 -0.0883
22958W        W42492   1.815  14.639   0.076 -0.1855  0.3867  0.1760
22959W        W42493   8.288   7.368   1.241 -0.1024  0.0157 -0.2397
22960W        W42494   7.488   2.391   3.201 -0.0245  0.0605  0.3738
22961W        W42495  12.725   0.604   0.471  0.1858 -0.0873 -0.0530
22962W        W42496   0.051  10.016  16.624 -0.0338  0.2893 -0.0907
22963W        W42497   5.277   5.171  14.201 -0.0405 -0.1690  0.0314
22964W        W42498   8.206   1.040  14.197 -0.3668 -0.5697 -0.2687
22965W        W42499   3.773  13.839   1.017 -0.2429  0.2467 -0.2358
22966W        W42500   1.243   6.927   0.078 -0.1322 -0.3294  0.0616
22967W        W42501   4.053  12.394   2.032 -0.0505 -0.0515  0.0413
22968W        W42502   4.006   2.518   1.459  0.2411 -0.0287  0.1839
22969W        W42503  12.601   4.950  16.489  0.4001  0.1497  0.0211
22970W        W42504   7.963   3.768  16.311  0.1021 -0.0347 -0.0378
22971W        W42505   7.409   4.258   2.608  0.0392 -0.1686  0.1334
22972W        W42506   8.992  10.201   1.836  0.1613  0.0853  0.0438
22973W        W42507  16.454   3.830   5.373 -0.0689  0.2871 -0.1512
22974W        W42508   9.961   0.237   1.143  0.3291  0.1529 -0.2787
22975W        W42509  15.194   1.845   0.074 -0.0308 -0.2729  0.3161
22976W        W42510  14.924  12.106   1.015  0.0478  0.1539 -0.5072
22977W        W42511  14.883   9.441   1.746  0.1237  0.0156  0.1517
22978W        W42512   1.014   4.086   2.375 -0.1497 -0.0730  0.2052
22979W        W42513  15.036   9.071   2.161 -0.0300  0.2213  0.0755
22980W        W42514   7.778   7.434   1.280 -0.0776  0.1017  0.1272
22981W        W42515   5.070  10.987   1.491 -0.2086 -0.0448 -0.1278
22982W        W42516  11.126   6.854  12.632  0.0694 -0.1172 -0.0964
22983W        W42517  11.479   1.456  13.235 -0.1580 -0.0929 -0.0813
22984W        W42518  14.598   1.864   0.937  0.1270 -0.1214  0.1803
22985W        W42519  15.148   3.601  13.095  0.0004 -0.0498  0.0448
22986W        W42520   4.938  12.887   5.083  0.2268  0.2778 -0.2613
22987W        W42521   2.106   7.346  17.132 -0.0114  0.2497 -0.0112
22988W        W42522  13.127   0.578  12.356 -0.1842  0.0324  0.0138
22989W        W42523  14.968   6.716  14.336 -0.1954 -0.0071  0.1200
22990W        W42524  12.537   3.133  16.243 -0.0537  0.1575  0.0298
22991W        W42525   9.182   9.881   4.011  0.2697  0.2147  0.0290
22992W        W42526   0.561  14.090  12.336  0.1488  0.1380  0.0618
22993W        W42527  17.338   4.904   2.451  0.0843 -0.1757  0.1775
22994W        W42528   9.220   8.878  16.151 -0.1886  0.1435 -0.1473
22995W        W42529   3.473   2.378  15.222  0.4469  0.1131  0.1539
22996W        W42530   7.933  10.305   0.327 -0.2257 -0.0028 -0.0621
22997W        W42531   6.105   0.694   1.200  0.0732 -0.1063  0.2536
22998W        W42532  11.113   3.184  12.904 -0.0109  0.1278 -0.0007
22999W        W42533   0.812   3.204  14.562 -0.1221  0.1205 -0.4531
23000W        W42534   0.486  13.973  12.819 -0.1556 -0.1223 -0.2173
23001W        W42535  15.985  16.934  12.781  0.0516  0.1797  0.0352
23002W        W42536   3.523  15.750  17.171 -0.0981  0.0075 -0.0658
23003W        W42537  10.716   7.053  15.709  0.0819 -0.3398 -0.2094
23004W        W42538  15.639   2.690  15.949 -0.0124 -0.0721 -0.1502
23005W        W42539   5.176   3.453  15.833 -0.0028 -0.1277 -0.1027
23006W        W42540   7.298  11.274   3.304  0.0388  0.3587 -0.0033
23007W        W42541  11.563   1.360  14.720  0.0820  0.0473  0.1243
23008W        W42542   8.337  10.531   3.405  0.2159  0.0968  0.0614
23009W        W42543  12.161   4.838   2.173 -0.1895  0.0035 -0.2415
23010W        W42544  17.446   0.645  14.612  0.2268 -0.1162  0.0375
23011W        W42545   3.576   5.307  15.110  0.1101 -0.0605  0.2150
23012W        W42546  15.620   4.885   1.849  0.2436  0.2164  0.0069
23013W        W42547  13.981   8.729   1.157 -0.2048  0.0252  0.2689
23014W        W42548   9.736   6.853  14.811  0.2405  0.3610 -0.1316
23015W        W42549   2.503   5.113   3.200  0.0461  0.2018  0.2491
23016W        W42550  10.955  10.829   6.106  0.2241 -0.2225 -0.0581
23017W        W42551   8.892  13.513  14.119  0.0142 -0.0712  0.0529
23018W        W42552  12.284   3.830   4.013  0.1485 -0.0681 -0.0223
23019W        W42553   3.125  11.556  15.256  0.1791  0.1980  0.1158
23020W        W42554   1.526   4.017  15.070  0.0687  0.0524 -0.0601
23021W        W42555   8.476   5.398   4.549 -0.3023  0.1097 -0.3161
23022W        W42556  10.354   3.988  17.252 -0.0707 -0.2817  0.2229
23023W        W42557   0.942   4.533  15.308  0.2982  0.2185 -0.2297
23024W        W42558  13.179  16.470  13.024 -0.0317  0.1102  0.0512
23025W        W42559   3.403   9.577  13.181  0.0354  0.0162  0.0854
23026W        W42560   0.287   5.888   0.641  0.0390 -0.2506 -0.0032
23027W        W42561  13.006   7.389  12.299 -0.3083  0.0863 -0.1383
23028W        W42562   6.827   4.438  14.060 -0.1374 -0.0820 -0.0637
23029W        W42563   7.791   0.528  12.375  0.0729 -0.2938  0.1597
23030W        W42564   7.793   8.545  15.584  0.2287 -0.1611 -0.0328
23031W        W42565  16.187   2.670  15.638 -0.1555 -0.0855  0.1150
23032W        W42566   8.179   2.085   4.018 -0.4602 -0.1115 -0.0017
23033W        W42567   2.035   3.417   2.047 -0.3556 -0.0250 -0.0301
23034W        W42568  15.567   4.315   1.018  0.0487  0.2378  0.0620
23035W        W42569   2.260   7.993   1.867 -0.0896  0.2070 -0.1131
23036W        W42570   8.315  16.169   1.740  0.2606  0.3951 -0.0477
23037W        W42571  14.116   7.402  13.053  0.0223  0.3182 -0.2945
23038W        W42572   2.590   9.189  16.114 -0.1469 -0.4296  0.0849
23039W        W42573   0.291  12.865  12.443 -0.0313 -0.2944 -0.2783
23040W        W42574   7.167   8.082   1.609  0.2352 -0.2763 -0.4122
23041W        W42575  13.283   6.165  13.717  0.1033 -0.0631  0.0963
23042W        W42576   7.166  15.244  16.428 -0.2342 -0.0582 -0.0989
23043W        W42577  14.641   1.031  12.766  0.1163  0.0994 -0.1054
23044W        W42578  13.306   5.475  14.923  0.1673 -0.1693  0.1345
23045W        W42579   8.249  11.777   0.276  0.0217 -0.2447 -0.2627
23046W        W42580   1.738   1.990  16.203 -0.0948 -0.0937 -0.0256
23047W        W42581   6.033   7.180   3.430  0.2300 -0.1021  0.2716
23048W        W42582  10.754   7.350   1.672 -0.1264 -0.3760  0.0342
23049W        W42583  11.482   3.718   4.443 -0.0656  0.0764 -0.0218
23050W        W42584   7.678   8.808   6.554 -0.0479  0.1486  0.0459
23051W        W42585  11.572  11.634   4.741  0.0975  0.0063  0.2536
23052W        W42586  13.443   1.463  15.133 -0.1539  0.1837  0.0050
23053W        W42587   2.163   2.701   5.498  0.3069 -0.2826 -0.0467
23054W        W42588   2.295   1.494   4.023 -0.0331 -0.2161 -0.1650
23055W        W42589  15.698   5.178   0.183  0.0647 -0.2797 -0.0100
23056W        W42590   6.675  15.512  12.509  0.0049 -0.1540 -0.2778
23057W        W42591   9.263   9.808   1.678 -0.0539 -0.2643 -0.1573
23058W        W42592  13.407   0.345   0.370  0.0404 -0.0318 -0.0610
23059W        W42593   8.965   5.958  14.860  0.0015  0.0327 -0.0081
23060W        W42594   6.417   1.929   1.850  0.0526 -0.4157  0.1971
23061W        W42595   3.554  10.325  12.658 -0.0664 -0.1561 -0.0805
23062W        W42596   0.782  15.499   0.316 -0.2396 -0.1945  0.2773
23063W        W42597   8.365   7.800   2.373 -0.0905  0.3500 -0.0156
23064W        W42598  10.361  14.628   1.931  0.0727  0.2020 -0.1603
23065W        W42599  13.463   9.851   2.375 -0.2902  0.0426  0.1443
23066W        W42600  15.729   0.692   0.828  0.0833  0.2718 -0.2559
23067W        W42601  15.445   9.371  15.664  0.2017 -0.0624  0.0834
23068W        W42602  15.279   9.847  16.063 -0.0815  0.0988 -0.0994
23069W        W42603  15.360   7.839  15.209  0.0218  0.2631  0.1858
23070W        W42604  13.961  16.977  13.441 -0.0255 -0.3083 -0.0557
23071W        W42605  14.891  16.847  17.003  0.0036  0.0173 -0.3546
23072W        W42606   4.392   7.482  13.938 -0.3654 -0.0825 -0.0761
23073W        W42607   5.616  10.824  14.451 -0.0671  0.0405  0.0354
23074W        W42608   8.380  15.876   4.340 -0.1601 -0.0029  0.1740
23075W        W42609   2.049  14.948   1.568 -0.0383  0.2345 -0.2122
23076W        W42610  10.113  16.944   0.621  0.0721  0.2310  0.1774
23077W        W42611   3.412  14.283  14.005 -0.0982  0.1267  0.1053
23078W        W42612   4.036  16.979  14.535  0.3209  0.1898 -0.0682
23079W        W42613   4.088   9.078  16.771  0.2207 -0.1751  0.0140
23080W        W42614   4.771  17.265   1.772 -0.1103  0.0397  0.2157
23081W        W42615  16.090   3.016   3.731  0.0218 -0.0221  0.3496
23082W        W42616  17.279  15.670  16.427 -0.3276 -0.0645 -0.2163
23083W        W42617  10.756  11.277  13.565 -0.2972  0.1609 -0.0413
23084W        W42618   7.005   6.986   1.346 -0.0598  0.2487 -0.0507
23085W        W42619  14.905  11.255   0.442 -0.0150  0.1255 -0.2327
23086W        W42620  12.349   4.874  12.520 -0.0974 -0.2080  0.0452
23087W        W42621   1.505   7.778   4.748 -0.1904 -0.0612  0.1928
23088W        W42622   1.528   9.118   1.555 -0.1160  0.0997 -0.1041
23089W        W42623  15.946   1.332  15.805 -0.0649  0.0180  0.1890
23090W        W42624   7.946   0.564  15.004 -0.0929  0.4022 -0.0198
23091W        W42625  16.469   1.642  17.156  0.0039  0.0049  0.3020
23092W        W42626   8.760   7.829  13.630 -0.1803  0.1749  0.0231
23093W        W42627   8.847   5.962  12.381  0.0723 -0.2066  0.0819
23094W        W42628   2.562   3.285   1.240  0.0735  0.1387  0.0500
23095W        W42629  13.670   4.624  14.269 -0.1395 -0.0043  0.1260
23096W        W42630  15.083  10.633  17.092 -0.0589  0.0751  0.3629
23097W        W42631   0.315  14.580  15.603 -0.1449  0.3315  0.1838
23098W        W42632  12.080  13.776  13.386 -0.3686 -0.0561 -0.1076
23099W        W42633   2.262  13.495   1.585  0.0157  0.0427  0.1050
23100W        W42634  15.655   4.372  14.178 -0.0458  0.0444  0.2248
23101W        W42635  14.421   8.687   1.361  0.2453  0.0081  0.0493
23102W        W42636   9.965   6.479  16.853  0.1320  0.2653 -0.1865
23103W        W42637  10.198   7.606   2.887  0.1296  0.0691  0.0046
23104W        W42638  14.688  14.243  13.260 -0.1240 -0.0276  0.1405
23105W        W42639   2.672   1.316  15.593  0.1206  0.1852 -0.3540
23106W        W42640   1.974  13.678   3.469 -0.0441  0.0980 -0.0169
23107W        W42641   7.378   2.435   2.190  0.0742 -0.0256 -0.4408
23108W        W42642  12.943   4.877   2.509  0.2179 -0.0898 -0.2212
23109W        W42643   3.146   6.365   3.024 -0.0854  0.3982 -0.0316
23110W        W42644   1.491  13.100  14.014 -0.1149  0.2802  0.1553
23111W        W42645   1.574   5.820   6.077  0.3479 -0.1038  0.2159
23112W        W42646   9.392   9.862   3.119  0.1399  0.1514  0.1627
23113W        W42647  14.224   2.555   1.423  0.0895  0.2189  0.1996
23114W        W42648  11.650   6.937  12.586  0.0268 -0.1760 -0.0578
23115W        W42649  12.021   5.903   0.464 -0.1208 -0.0952  0.1639
23116W        W42650   1.645   2.929  16.632  0.2648 -0.2675  0.0269
23117W        W42651   8.092  12.530   4.290  0.2124 -0.2331 -0.0220
23118W        W42652   0.385  16.834  15.058 -0.0291 -0.0500 -0.0077
23119W        W42653   9.656   4.585   1.817 -0.0007 -0.1679 -0.0806
23120W        W42654  16.244   3.973  13.710 -0.2960  0.0367  0.0361
23121W        W42655  15.057  14.666  14.143  0.2077 -0.1975 -0.0758
23122W        W42656  11.284   8.427   5.413 -0.0191 -0.2455 -0.0123
23123W        W42657   1.838   4.299  16.008 -0.1683  0.1636 -0.5427
23124W        W42658   1.259  12.562  15.449 -0.0988 -0.1796 -0.1704
23125W        W42659  14.054   4.920   1.260 -0.1821  0.4096  0.0344
23126W        W42660  14.625   9.925   3.124  0.0653  0.1860  0.0230
23127W        W42661   6.844   9.362   1.826  0.2734 -0.0311  0.3737
23128W        W42662   9.679  10.095   1.944  0.3340  0.3165  0.1119
23129W        W42663   6.454   5.545   4.698  0.0800 -0.0678 -0.0765
23130W        W42664   2.806  16.152  12.248  0.0284 -0.0255 -0.0549
23131W        W42665   0.743  16.757  16.006 -0.0060 -0.2641  0.1477
23132W        W42666   0.979  16.417   0.376  0.1381  0.2149  0.0770
23133W        W42667   4.234   1.162   1.452 -0.0727 -0.1678  0.0899
23134W        W42668   5.852  16.650  16.264 -0.0824 -0.0087 -0.0298
23135W        W42669   2.681   3.755  14.446  0.0638 -0.4642  0.0573
23136W        W42670  15.548   7.319  16.308  0.3075  0.1100  0.1107
23137W        W42671   4.448  14.771  16.318 -0.0954  0.2490  0.0041
23138W        W42672   3.376   3.703  16.583 -0.4005  0.1366  0.0070
23139W        W42673   9.125   7.893   1.424  0.0480 -0.1726 -0.0873
23140W        W42674   8.980   0.601  14.234  0.1606 -0.2833 -0.0270
23141W        W42675  17.165   5.019   3.893  0.1768 -0.0859 -0.0209
23142W        W42676  15.977   5.913  16.234 -0.1763  0.2813  0.2066
23143W        W42677   4.445   2.472  12.806 -0.3038 -0.0769  0.2659
23144W        W42678   6.280   8.581   4.648 -0.0169 -0.2325 -0.1532
23145W        W42679  11.009   5.915  13.523 -0.0230  0.1331 -0.2962
23146W        W42680   7.850   8.817   0.596  0.1712  0.0068 -0.1145
23147W        W42681   0.653   3.507  14.965 -0.3437 -0.4082  0.1316
23148W        W42682   0.910   3.740   0.804 -0.0890 -0.1602 -0.0790
23149W        W42683   6.404   2.637  14.886 -0.2482 -0.2487 -0.2259
23150W        W42684   2.804  12.805  16.232 -0.0687 -0.1520 -0.0552
23151W        W42685  12.304   2.665  14.077 -0.1416 -0.1743 -0.0036
23152W        W42686  12.189   4.956   3.462 -0.1160 -0.5220 -0.2064
23153W        W42687  10.879  11.341  17.288  0.0665  0.3599  0.2618
23154W        W42688   5.352   2.710   3.263 -0.1927  0.2573  0.1266
23155W        W42689   4.023  12.347   4.850  0.0373  0.1615 -0.1914
23156W        W42690   0.653  16.821   5.061 -0.1062  0.3540 -0.0662
23157W        W42691   0.104   6.193  12.302 -0.0602 -0.0763  0.2150
23158W        W42692   2.713   5.391  16.165 -0.0584 -0.0607  0.0764
23159W        W42693  15.289   7.883  14.532 -0.0578  0.0474  0.3933
23160W        W42694   0.171   0.766   2.021 -0.2144 -0.0668  0.4173
23161W        W42695   5.710   0.214   5.003 -0.2063  0.1490  0.1944
23162W        W42696  16.824  10.961  13.714  0.1648  0.0223 -0.0869
23163W        W42697   5.242  16.469  14.021  0.0461  0.0910  0.0259
23164W        W42698   0.742   7.126   0.214 -0.2994 -0.0728  0.1276
23165W        W42699   2.205   9.358   1.075 -0.0942  0.3425  0.1223
23166W        W42700   9.703  10.740  16.257 -0.2218  0.1837  0.0394
23167W        W42701   0.067   1.665   3.027  0.0458  0.2262  0.0406
23168W        W42702  11.344   2.384  14.957  0.0215  0.1775 -0.2950
23169W        W42703   3.851   4.151   4.011  0.2393  0.0437  0.1474
23170W        W42704   7.379  16.639  13.361 -0.0613  0.1738 -0.3566
23171W        W42705   1.882  11.346  15.528  0.0026 -0.1115 -0.1066
23172W        W42706  13.940   2.758  15.272  0.2061  0.2834 -0.2896
23173W        W42707   0.375   8.011  16.072 -0.1332  0.0330 -0.0023
23174W        W42708   9.300   1.871  16.423  0.0572  0.1833  0.1625
23175W        W42709  15.990  10.551   0.666  0.0760  0.0921 -0.0959
23176W        W42710   4.959   8.236   0.780 -0.1362  0.1208 -0.1326
23177W        W42711   3.122   3.349   2.030  0.0024 -0.0150  0.1534
23178W        W42712   7.073   8.396   5.309 -0.0163  0.2042 -0.2573
23179W        W42713   1.466  12.487   3.389  0.0302 -0.2718  0.0796
23180W        W42714   9.598  11.553  12.672  0.0214 -0.1058 -0.2444
23181W        W42715  12.495   0.150  17.028 -0.1890  0.3712  0.3340
23182W        W42716   2.251   2.905  14.624 -0.3161 -0.3134 -0.1400
23183W        W42717  15.310   2.464  17.229  0.1691  0.2978  0.2451
23184W        W42718  14.480   4.093   4.950  0.0783  0.2133  0.0832
23185W        W42719  15.979  13.927  14.708 -0.0913 -0.0533 -0.1835
23186W        W42720   4.359  10.670  14.483  0.1046 -0.0709 -0.0145
23187W        W42721   4.914   6.005  16.562 -0.1200 -0.2568 -0.1656
23188W        W42722  14.094  13.432  11.672  0.0777 -0.0232 -0.2756
23189W        W42723   9.342   8.840  15.331 -0.0715  0.3167 -0.1569
23190W        W42724   5.094   6.583   3.969 -0.0708  0.0821 -0.0480
23191W        W42725  17.421  11.931  12.809 -0.2145 -0.1821 -0.0960
23192W        W42726   0.543  15.238  16.062  0.1824  0.0528  0.2126
23193W        W42727   1.898  17.078  13.856  0.0290 -0.3854  0.0392
23194W        W42728   4.856   6.019   4.050 -0.3930 -0.2106 -0.0408
23195W        W42729   4.811   2.522   3.291 -0.0989 -0.3086  0.0988
23196W        W42730   7.422   1.280   0.188 -0.3988 -0.2556 -0.1182
23197W        W42731   8.446   4.339  16.822 -0.0160 -0.2670  0.1499
23198W        W42732  11.165   6.263   0.624  0.1680  0.0301  0.0070
23199W        W42733   8.592   6.321   2.001 -0.1226  0.0493  0.0537
23200W        W42734   5.880  17.157  16.482 -0.0365  0.3374  0.2447
23201W        W42735   0.975   0.176   2.727 -0.0835  0.1734 -0.1013
23202W        W42736   8.654   0.089  12.595 -0.0132 -0.0542  0.2758
23203W        W42737  12.065  13.708   1.222  0.1666  0.1408 -0.3656
23204W        W42738  10.755   4.415   4.304  0.0853  0.1999 -0.3163
23205W        W42739   2.063  14.240  12.873  0.1637  0.1318  0.2553
23206W        W42740  12.614   7.584   1.409 -0.1591  0.1236 -0.1962
23207W        W42741   8.570   5.139  13.864  0.0195  0.0147 -0.0432
23208W        W42742   8.594   0.431   1.643 -0.1345  0.3587  0.3848
23209W        W42743   9.857   4.516   4.195 -0.1677  0.1550  0.1901
23210W        W42744   7.685   5.417  13.596 -0.0033  0.2015 -0.1304
23211W        W42745   1.111   1.291  13.658 -0.0311 -0.0565  0.0021
23212W        W42746  15.846  12.432  15.697 -0.1776  0.1645  0.2533
23213W        W42747  10.611  10.195   1.623 -0.0201 -0.0014  0.3463
23214W        W42748  12.373   1.231  12.751 -0.1695 -0.1049 -0.2678
23215W        W42749   8.848  14.354  12.788 -0.2367  0.1621  0.0289
23216W        W42750   4.294   6.842  14.091  0.1728  0.0516 -0.0822
23217W        W42751   9.845   4.951  15.372 -0.2792 -0.0038 -0.4874
23218W        W42752   8.802  13.340   2.802  0.1609 -0.0825  0.2420
23219W        W42753  16.075  10.865   2.186 -0.0340  0.0364  0.0090
23220W        W42754  17.395   5.754  15.144 -0.0343  0.0681  0.0602
23221W        W42755  12.918   0.165  12.149  0.4553  0.0529  0.0703
23222W        W42756   4.979   7.270  12.443 -0.0098  0.1776 -0.2096
23223W        W42757   6.482   7.645  15.622 -0.3275  0.2611 -0.1108
23224W        W42758   4.301  10.799   0.417  0.0296  0.1252 -0.3020
23225W        W42759   3.059   2.422  15.550 -0.4534  0.1464 -0.1778
23226W        W42760  13.196  11.678   1.294  0.0504 -0.1742 -0.1417
23227W        W42761   4.834  15.243  14.090  0.3106  0.1178  0.1677
23228W        W42762  12.910  12.164  12.397 -0.1299 -0.4189  0.0556
23229W        W42763  16.438   9.185   1.625 -0.3654 -0.0300  0.3817
23230W        W42764  14.553   6.759  15.839  0.0771 -0.0968  0.0451
23231W        W42765   8.228   8.201   1.632 -0.0821  0.0388 -0.1228
23232W        W42766  17.213   5.046  13.965  0.1209  0.2454 -0.0096
23233W        W42767  15.026  15.310  11.325 -0.0197 -0.0223  0.0562
23234W        W42768   0.541  13.067  13.654  0.3942  0.2377 -0.0816
23235W        W42769  16.785   7.596  15.014  0.0365 -0.0638  0.2432
23236W        W42770   8.964   7.381  17.104 -0.0123  0.1144  0.0427
23237W        W42771  12.762  15.583   2.850  0.1836 -0.2368 -0.0085
23238W        W42772   5.794  13.710   5.203 -0.2010 -0.1809  0.0921
23239W        W42773  12.472  12.983  17.167 -0.1066  0.1910  0.1519
23240W        W42774   2.562  12.556  15.340 -0.1687  0.0069 -0.2570
23241W        W42775   1.987   4.409  17.123  0.0676 -0.0256 -0.1289
23242W        W42776  12.859  10.363   4.484 -0.1689  0.2899  0.0260
23243W        W42777   6.017  12.177  15.684  0.0671 -0.0338 -0.1235
23244W        W42778  16.940  14.466  13.578  0.1329 -0.0361  0.0008
23245W        W42779  10.778   5.873  16.125 -0.0305  0.1968 -0.1706
23246W        W42780   5.871  16.623  12.300 -0.1896  0.0632 -0.0924
23247W        W42781   0.406   7.048  14.866 -0.0287  0.0272 -0.1364
23248W        W42782   5.133  10.200  13.140  0.1524 -0.1182  0.1442
23249W        W42783   1.454   6.218  13.550  0.2948  0.2646 -0.1239
23250W        W42784  10.559  13.794  14.398  0.0867 -0.0781  0.0416
23251W        W42785  11.496   1.921   2.693  0.1277 -0.1404  0.2186
23252W        W42786  10.996  14.349   4.866 -0.2019  0.0077 -0.0791
23253W        W42787   6.929   4.868   4.189 -0.3442 -0.1861 -0.1649
23254W        W42788   5.004   4.239  15.695 -0.1636  0.0067  0.0040
23255W        W42789   0.370  16.949   1.443  0.1203 -0.0226 -0.1714
23256W        W42790   8.618  12.088   1.642  0.1839  0.2134  0.3004
23257W        W42791   4.116  16.433  16.822  0.0342  0.2277  0.0894
23258W        W42792   6.374  13.490   4.616 -0.3016  0.0886  0.1094
23259W        W42793  15.760   9.470   4.946  0.2153 -0.0672  0.2746
23260W        W42794   6.837   3.951   4.949  0.2971  0.0877  0.0596
23261W        W42795  13.209  14.731   2.994 -0.0630  0.1514 -0.0004
23262W        W42796   0.618  11.286  16.330  0.1570 -0.5312 -0.1283
23263W        W42797  12.167  10.539   2.397  0.1369  0.2702 -0.1066
23264W        W42798  15.361   5.030   2.705 -0.4287  0.2112  0.1261
23265W        W42799  13.019  15.005   0.988  0.0603 -0.2010 -0.1104
23266W        W42800  14.062   7.965   2.204 -0.0518 -0.3051 -0.1160
23267W        W42801  11.448   9.059   2.482  0.1476  0.2898  0.1533
23268W        W42802  16.490  14.204   4.760 -0.0161 -0.0221  0.2518
23269W        W42803  13.469  11.037  12.427  0.1240  0.2704  0.0497
23270W        W42804  16.550   3.336  13.285  0.1979 -0.2146 -0.0688
23271W        W42805  11.621   9.343   4.190  0.1183 -0.0115 -0.0649
23272W        W42806   6.480  12.450  12.076  0.2591  0.2900 -0.0191
23273W        W42807  11.039   5.844   2.738 -0.1561  0.1448 -0.0368
23274W        W42808   1.555  10.049   3.123 -0.0318  0.0959 -0.2236
23275W        W42809  10.145  15.996   1.481 -0.1168 -0.1620 -0.5416
23276W        W42810  11.024   7.722   5.139 -0.1095 -0.2449 -0.0993
23277W        W42811   3.008   6.462  13.270 -0.0244 -0.1694 -0.0896
23278W        W42812  15.046  13.839  15.985 -0.1023  0.1350  0.0824
23279W        W42813   3.565  15.540   0.672 -0.0252 -0.0411  0.0161
23280W        W42814   7.264  10.427   2.762  0.2350  0.1547  0.1980
23281W        W42815  12.547  15.150  17.250  0.2297  0.0047  0.0466
23282W        W42816   6.829   3.806  16.841  0.0781 -0.1466  0.1757
23283W        W42817  11.093   8.590  12.405 -0.2292  0.2106  0.0747
23284W        W42818  12.443  15.290   0.381  0.1571 -0.0064 -0.2267
23285W        W42819   5.692   3.491   1.792  0.1266 -0.1479 -0.0096
23286W        W42820  14.810   4.328  17.313  0.0014 -0.2993 -0.3046
23287W        W42821   8.874  16.458  14.495 -0.3001 -0.1821 -0.3891
23288W        W42822   1.019  13.098  13.870  0.0889  0.2897 -0.0077
23289W        W42823   0.115  14.214  14.016  0.2699 -0.2217 -0.1096
23290W        W42824  12.439   6.684   4.037  0.3104 -0.3822 -0.3954
23291W        W42825   6.673  15.060  14.992  0.2008  0.4426 -0.2411
23292W        W42826   0.457   3.588  12.396 -0.0551  0.2069 -0.0324
23293W        W42827   9.683   8.176   3.579 -0.3145  0.1999  0.1245
23294W        W42828   5.629  14.563   0.274  0.1859  0.1298 -0.0745
23295W        W42829   0.012  10.347  11.747 -0.2298  0.0298  0.1083
23296W        W42830   9.133  10.328  14.489 -0.1806  0.0809 -0.2268
23297W        W42831   8.127   0.876  12.241  0.3812 -0.1828  0.0916
23298W        W42832   6.389  11.935  14.043  0.1835 -0.1167 -0.0363
23299W        W42833   9.331   1.324   1.439 -0.0339 -0.1766  0.0757
23300W        W42834  10.380  15.623   0.202  0.2085  0.2957  0.1535
23301W        W42835  15.522  14.480  13.475  0.2496 -0.1954 -0.1034
23302W        W42836   3.997   4.155  15.802 -0.1437  0.0616 -0.2360
23303W        W42837   7.345   9.321  12.648  0.0479 -0.1616 -0.0921
23304W        W42838   5.920  17.171   2.222  0.0528  0.0555  0.0808
23305W        W42839   7.336   3.349   0.744  0.0408 -0.1154 -0.0916
23306W        W42840  12.169  14.863   5.286  0.1560  0.0941 -0.0819
23307W        W42841  14.070   2.154  12.575 -0.2417  0.0519  0.0891
23308W        W42842  11.100  15.615  14.021  0.1532 -0.0353 -0.2088
23309W        W42843  10.824  17.058   2.706 -0.1141 -0.0714  0.4027
23310W        W42844   1.413   7.477  12.427  0.1460 -0.0333 -0.3593
23311W        W42845  17.025  13.078  16.857 -0.1602 -0.1982 -0.2689
23312W        W42846   6.401   3.571   1.062 -0.0653  0.0778  0.0803
23313W        W42847   3.286  17.441  13.304 -0.0275 -0.0129 -0.1260
23314W        W42848  10.954   3.111   3.165 -0.0997 -0.1289  0.1897
23315W        W42849   1.467   7.049   0.557  0.1800  0.0303  0.1112
23316W        W42850  13.439   6.638   1.034 -0.0188  0.1304  0.0271
23317W        W42851   6.729  10.796  16.294 -0.2824 -0.0629 -0.0489
23318W        W42852  14.552  14.784   3.518 -0.2489  0.0658  0.2088
23319W        W42853  13.677   2.633   3.074  0.0826 -0.2872 -0.2514
23320W        W42854  12.851  11.253  14.582  0.0184 -0.1019  0.0298
23321W        W42855   1.058   4.910  17.056 -0.0926 -0.3367  0.2270
23322W        W42856   9.097   4.856   3.190 -0.0694  0.0751 -0.1584
23323W        W42857  10.163   4.387  12.363  0.0450 -0.2800  0.0200
23324W        W42858  12.800   4.342   4.494  0.3569 -0.1140  0.2103
23325W        W42859  13.943   8.108  13.435  0.0911  0.3726 -0.0070
23326W        W42860   2.674  14.016  14.559  0.1962 -0.1104 -0.1360
23327W        W42861   4.794  11.999  13.184  0.0000  0.0470  0.1782
23328W        W42862  11.973   1.754  13.967 -0.2246  0.1063  0.1234
23329W        W42863  14.320   8.765   0.773 -0.0503 -0.0782  0.0961
23330W        W42864  14.112   1.193   3.544  0.0287 -0.2523  0.1019
23331W        W42865   2.276  17.043  12.929 -0.1803 -0.0089 -0.0759
23332W        W42866  16.991   4.365  17.120  0.2962  0.1234  0.1524
23333W        W42867   3.730  11.423   2.276 -0.0584 -0.0731 -0.0119
23334W        W42868   6.044   4.173  13.811  0.0066 -0.2494 -0.3081
23335W        W42869  10.216  15.790   3.901 -0.2502 -0.1881 -0.1330
23336W        W42870  10.992   3.437  15.122 -0.0003  0.0380  0.2655
23337W        W42871   8.972   3.945   1.897  0.0584 -0.0311 -0.1423
23338W        W42872  16.747  10.468   2.265 -0.0081 -0.1036  0.2058
23339W        W42873   9.219   4.854   2.235  0.1453  0.2011 -0.3128
23340W        W42874   3.695   1.289   4.044 -0.1234  0.0326 -0.5083
23341W        W42875  15.741  17.211   1.422 -0.0275 -0.0407 -0.2579
23342W        W42876   3.649  12.889   3.148  0.0909 -0.0754  0.0016
23343W        W42877  14.514  10.451   1.441  0.0630 -0.1134 -0.1007
23344W        W42878  13.766   8.272   4.374 -0.3112 -0.0166  0.1216
23345W        W42879   5.843   1.142   1.400  0.1791  0.0143 -0.1209
23346W        W42880   8.189  16.316  15.653 -0.0695  0.3126 -0.2024
23347W        W42881   4.929  10.214   1.607 -0.3147  0.1609 -0.3159
23348W        W42882   0.628  17.322  15.804  0.1434 -0.2103 -0.2441
23349W        W42883   4.221   8.515   3.043 -0.0020  0.2696  0.1437
23350W        W42884  14.382   7.171  13.606 -0.1847 -0.1380  0.0750
23351W        W42885  15.368  11.065  17.162  0.1488  0.0802  0.0160
23352W        W42886  17.001  14.309   2.975 -0.1486 -0.1272  0.0890
23353W        W42887   0.986   6.113  13.661 -0.1771  0.0163 -0.2401
23354W        W42888   1.056  14.273  12.449  0.1610 -0.0017 -0.0439
23355W        W42889  15.183   6.857   0.596  0.3747  0.2370  0.0857
23356W        W42890   7.620   8.136  14.650 -0.3184  0.1298  0.0743
23357W        W42891  10.971  14.753   4.108 -0.0147 -0.0187 -0.0647
23358W        W42892  14.028  15.860   3.028  0.3204 -0.0980  0.0253
23359W        W42893   9.874   2.247   1.908 -0.0493 -0.0444 -0.1990
23360W        W42894  12.235   5.813   3.994  0.1126 -0.3492 -0.1370
23361W        W42895   4.935  11.375   0.633 -0.1915  0.0670 -0.0520
23362W        W42896   3.330   1.995   0.256  0.1924  0.0044 -0.0866
23363W        W42897  11.609   1.528   2.967  0.0823 -0.0696 -0.3706
23364W        W42898   8.941  12.696  16.340 -0.1228 -0.1032  0.0843
23365W        W42899   4.482   4.717   5.259 -0.1890  0.0149 -0.1673
23366W        W42900   8.025   6.351   0.881  0.1338  0.1373 -0.5344
23367W        W42901  13.730   3.758   1.101 -0.0670  0.2520 -0.1668
23368W        W42902  14.502   1.581  14.284  0.0705 -0.1254 -0.0851
23369W        W42903  15.725  14.274   4.006 -0.3548 -0.2458 -0.0869
23370W        W42904  15.441  15.141   0.195  0.3718  0.1850  0.0647
23371W        W42905   8.861  15.554  16.444 -0.0654 -0.1315  0.3127
23372W        W42906  10.349   5.995   3.701  0.3636 -0.1075  0.0240
23373W        W42907   7.621   6.876  14.101 -0.0137 -0.0840  0.0601
23374W        W42908   4.519  15.981   4.476 -0.0123 -0.0554 -0.0441
23375W        W42909  14.081   1.146   0.116 -0.0681 -0.1236  0.2006
23376W        W42910   5.028   5.852  14.560  0.1042 -0.1668 -0.0689
23377W        W42911   1.901   5.491   4.439  0.2358  0.0129 -0.0998
23378W        W42912   0.802  14.327  16.216  0.0011 -0.0169  0.2176
23379W        W42913  17.275  13.433  14.429 -0.2941 -0.1367 -0.1104
23380W        W42914  17.313  15.854  17.216  0.0157 -0.1471  0.2147
23381W        W42915   8.449   7.816   1.882 -0.1817 -0.0038 -0.0483
23382W        W42916   6.071   3.336   4.162 -0.2532  0.0060  0.0679
23383W        W42917  10.203   3.511   4.737  0.1228 -0.0490  0.1467
23384W        W42918   2.695  15.639  13.995 -0.0773  0.0456 -0.3841
23385W        W42919   4.239  11.337   2.589  0.2154  0.1856 -0.0098
23386W        W42920   6.527   3.250   2.770 -0.2621  0.1401  0.0142
23387W        W42921   4.037  13.861   3.829 -0.3439  0.3301  0.2820
23388W        W42922   9.851  14.208   2.839 -0.1804  0.0657  0.2540
23389W        W42923  12.680   0.565  14.586  0.0575 -0.2017 -0.1284
23390W        W42924   0.089   7.716  14.553  0.0449 -0.0979 -0.0797
23391W        W42925   8.514   9.444   1.984  0.1950 -0.1717  0.0794
23392W        W42926   9.595   5.822  16.833 -0.0030  0.0934 -0.3253
23393W        W42927   7.768  10.827   0.437 -0.4373 -0.0828 -0.1043
23394W        W42928   5.614  13.979  15.545  0.3041 -0.1017  0.2256
23395W        W42929  14.920   6.544  16.591  0.0764 -0.1880 -0.1932
23396W        W42930   4.622  10.182   4.768  0.0626  0.1178 -0.3757
23397W        W42931   7.209  14.521  13.810 -0.5015  0.1484 -0.1075
23398W        W42932   9.153  16.252  17.148 -0.0835 -0.0175  0.0065
23399W        W42933   9.096  14.262  15.274  0.1352 -0.0639 -0.0873
23400W        W42934   8.618  12.693   0.907 -0.1707  0.0534 -0.2361
23401W        W42935   0.619   0.307   1.290  0.0524 -0.1062  0.0398
23402W        W42936  15.237   2.579  16.231 -0.2328 -0.1023  0.1074
23403W        W42937  10.827   8.861   2.212 -0.3964 -0.2296 -0.1677
23404W        W42938  12.665  13.370  13.643  0.2227  0.1996 -0.0289
23405W        W42939  11.980   6.016   2.666 -0.0867 -0.2109  0.1399
23406W        W42940   2.708   7.759  14.927  0.0537  0.1266  0.1984
23407W        W42941   9.190  15.734   3.856 -0.0900 -0.0646 -0.4705
23408W        W42942   5.347   0.884  15.809  0.0454 -0.1485  0.0521
23409W        W42943   4.018   8.372  14.035  0.1419  0.0983 -0.0352
23410W        W42944   7.700   3.155  12.677  0.2270  0.0268 -0.2199
23411W        W42945   5.798  11.185   4.046  0.0678  0.2358 -0.3112
23412W        W42946  11.026   1.449  13.954 -0.0088  0.2108  0.2224
23413W        W42947  12.969  12.287  15.985  0.1831 -0.1170 -0.0027
23414W        W42948   3.844   2.986  16.490  0.4045  0.1879  0.0439
23415W        W42949  15.662   6.206  11.899 -0.1186  0.2158 -0.1777
23416W        W42950  10.662   9.680   1.715 -0.0269  0.2827 -0.1733
23417W        W42951  13.109  14.431   4.482  0.1307 -0.0495  0.0365
23418W        W42952   2.238   2.977  14.117 -0.1045 -0.0680  0.2700
23419W        W42953   6.265   4.090  15.085 -0.0378  0.0940  0.4016
23420W        W42954   4.223   4.857  13.023  0.4438  0.1078 -0.2844
23421W        W42955  14.183  15.754   4.265 -0.2134  0.2245  0.2054
23422W        W42956   9.101   4.045  13.972 -0.1520 -0.1424 -0.2756
23423W        W42957  17.175  13.097   3.193 -0.1117  0.2630  0.0897
23424W        W42958   3.070   9.928  14.056  0.0965  0.2571  0.0013
23425W        W42959  13.691   0.593   2.991  0.2442 -0.1649  0.1185
23426W        W42960  16.073  12.257   0.432  0.5359 -0.1910  0.0992
23427W        W42961  12.875  10.825  14.981  0.0209 -0.0849 -0.2948
23428W        W42962   9.794   8.418  15.312  0.1272  0.0477  0.0303
23429W        W42963  12.923   6.801  17.196 -0.0208  0.1681  0.0205
23430W        W42964   1.790  11.035   2.228 -0.0603 -0.2340  0.2038
23431W        W42965  10.321  12.957   3.995 -0.1279 -0.0556  0.2601
23432W        W42966   2.257  13.757  13.022  0.0052  0.0178  0.1654
23433W        W42967   9.380   5.228   3.046 -0.2491 -0.0409 -0.2928
23434W        W42968  11.823  14.385   4.591 -0.0702 -0.1589  0.0649
23435W        W42969   6.570   4.570   3.809 -0.1225 -0.0360 -0.4583
23436W        W42970   3.177   5.784   3.227 -0.1674  0.0875 -0.0934
23437W        W42971  11.948   4.565  12.783  0.0421 -0.0848 -0.2166
23438W        W42972   8.889  16.746   0.470 -0.0386 -0.0914 -0.0698
23439W        W42973   4.444  16.780   2.518 -0.1738  0.3020 -0.0625
23440W        W42974  11.251  17.360   2.536 -0.1623 -0.1390 -0.0653
23441W        W42975   1.823  15.452   0.467  0.1890 -0.3281  0.2343
23442W        W42976   9.783  11.888  14.390  0.0107 -0.1982 -0.1830
23443W        W42977  13.651  15.979  14.866 -0.2263  0.2882 -0.3094
23444W        W42978   8.489   0.137   4.646  0.0836  0.2160  0.1285
23445W        W42979  15.822  15.604   1.673  0.2286  0.1001 -0.0791
23446W        W42980  13.713  14.851  16.666  0.3182  0.1589  0.0523
23447W        W42981   0.021  10.136  13.253  0.1193  0.1160 -0.1258
23448W        W42982   2.719  11.127   0.352  0.2063  0.2336 -0.0417
23449W        W42983   3.474  11.687   2.995  0.4169 -0.0411  0.1029
23450W        W42984   7.143  14.714   4.910 -0.2036  0.0191  0.0394
23451W        W42985  10.783  11.363   2.384 -0.0959  0.0607 -0.1002
23452W        W42986   1.901   0.200   1.431  0.0971 -0.2046  0.0851
23453W        W42987   3.850  14.954  12.633  0.0199  0.1734 -0.0634
23454W        W42988  16.876   1.226   2.526  0.0138 -0.2908 -0.0428
23455W        W42989  16.285   2.158   2.477 -0.0991 -0.2643 -0.0582
23456W        W42990  15.051  11.239  13.637  0.1189 -0.1380 -0.2085
23457W        W42991   9.610  10.969   2.983  0.0011  0.4841 -0.0606
23458W        W42992   3.567  12.684   5.009  0.3438  0.2381 -0.1306
23459W        W42993   9.652   9.228  16.543 -0.2157 -0.2809 -0.1554
23460W        W42994  13.127   8.237   5.251 -0.2386  0.1325 -0.4363
23461W        W42995   6.304  12.198  13.174 -0.1338  0.2647  0.1378
23462W        W42996   2.799   1.485   3.894  0.2105 -0.2540  0.2451
23463W        W42997   2.566   6.244   1.683 -0.2355  0.2568  0.0300
23464W        W42998   5.905   1.336  13.257 -0.1784  0.1691 -0.4648
23465W        W42999  10.034   6.190  13.794  0.0730 -0.2128  0.3362
23466W        W43000   0.575  11.044   2.762  0.0181 -0.1337  0.0607
23467W        W43001   7.273   4.242  13.880  0.3359 -0.1434 -0.1288
23468W        W43002  11.893   3.657  16.665 -0.2868  0.2319  0.1303
23469W        W43003  15.351   9.223   4.337 -0.0018  0.1948 -0.1074
23470W        W43004  14.944  13.429  11.571 -0.0378 -0.3551  0.0426
23471W        W43005  11.918   0.616   4.524  0.0244  0.0693  0.0661
23472W        W43006  14.709   9.123   0.723  0.0030  0.0586  0.2814
23473W        W43007  12.523  11.583   2.514 -0.1312  0.0546  0.2103
23474W        W43008   5.867  15.424   0.394  0.1925 -0.2005  0.1908
23475W        W43009   2.706   8.127   2.081  0.0074 -0.4645  0.3046
23476W        W43010   6.667  14.935   0.524  0.2880 -0.2162 -0.1987
23477W        W43011   3.945  12.991  14.875  0.1692 -0.0859 -0.2510
23478W        W43012   0.310  11.432   0.933  0.2655  0.1310 -0.0048
23479W        W43013   3.661   0.424   3.725 -0.1526  0.1670  0.1317
23480W        W43014  11.328  15.513  12.279  0.1152 -0.0113 -0.0108
23481W        W43015   0.585  15.629   2.843  0.0412 -0.0492 -0.3197
23482W        W43016   7.996   5.286   4.454 -0.1463  0.0576  0.0385
23483W        W43017   9.290   5.341   4.885  0.1713 -0.3403 -0.1548
23484W        W43018  10.181  12.606  16.248  0.0674 -0.2927  0.2026
23485W        W43019   1.029  13.716  14.778  0.1497 -0.2022  0.2778
23486W        W43020   7.015   9.294   3.748  0.3968  0.0709  0.1507
23487W        W43021   8.581  12.230  14.130 -0.1921 -0.2473 -0.0762
23488W        W43022   8.476   3.847   4.217 -0.1966 -0.0755 -0.0393
23489W        W43023  11.132   3.130   6.076 -0.0341  0.0916  0.0715
23490W        W43024   4.168   3.618   0.570  0.0516 -0.1065 -0.1894
23491W        W43025   0.089  14.047  14.962  0.2541  0.5220  0.3155
23492W        W43026   0.669   4.161   5.059 -0.0316 -0.3646  0.0346
23493W        W43027  11.208   3.330   2.175  0.1856  0.1777 -0.2013
23494W        W43028   6.512   3.480  13.200  0.3320  0.4019  0.0017
23495W        W43029   5.509  12.799  17.211 -0.0742 -0.2746  0.0938
23496W        W43030   1.085  15.732  13.570 -0.1133  0.1568 -0.2322
23497W        W43031  12.200  11.339  15.934  0.0497 -0.1142  0.2071
23498W        W43032   6.872   1.010  15.625 -0.1728 -0.0587 -0.2582
23499W        W43033   7.245  13.898   3.096 -0.1318 -0.3191  0.1201
23500W        W43034  15.654   0.856   3.431 -0.1373 -0.0870 -0.1889
23501W        W43035   9.787   9.870   2.820  0.0537  0.0089 -0.2520
23502W        W43036  12.675   3.174  13.865  0.2060 -0.0841 -0.2627
23503W        W43037  13.095  14.323  14.903 -0.2718  0.0490  0.2697
23504W        W43038  17.192  10.268   3.133 -0.0748 -0.2214  0.0516
23505W        W43039   6.356   5.870   2.945 -0.0665  0.1075 -0.0320
23506W        W43040   2.517   5.892  12.412  0.2352  0.1750 -0.0018
23507W        W43041   6.868  13.714   2.723 -0.2960 -0.0394 -0.0288
23508W        W43042   5.045   5.447   1.207  0.0731 -0.0455 -0.2196
23509W        W43043   1.526  13.917   5.044 -0.2333  0.2116 -0.1592
23510W        W43044  15.793   5.057  16.421 -0.2365  0.0426  0.1630
23511W        W43045  10.891  15.926  14.367  0.0738 -0.0608  0.0130
23512W        W43046   3.136  12.983   1.901  0.0060 -0.0217 -0.0015
23513W        W43047   9.893  13.769   0.103 -0.0029 -0.0166 -0.1102
23514W        W43048  10.853   3.676   1.972 -0.2056 -0.1918  0.0165
23515W        W43049  13.249  13.835  16.945 -0.1941  0.0364 -0.1461
23516W        W43050  15.853   1.653   4.311  0.0050 -0.1574 -0.3038
23517W        W43051  16.847   6.852   4.417 -0.1265 -0.0431  0.0933
23518W        W43052  11.077  13.383  13.394 -0.0513  0.0686 -0.2245
23519W        W43053  16.865   0.870  13.357  0.0849  0.0559 -0.2622
23520W        W43054   2.312  16.037   2.094  0.0413  0.1423  0.2773
23521W        W43055  15.747   3.376   1.036  0.2877  0.3080  0.0213
23522W        W43056  10.326   4.760  15.248  0.1831  0.1186  0.3497
23523W        W43057   0.031  14.324  13.414 -0.3841  0.2239 -0.2646
23524W        W43058  11.881  13.572  15.805  0.1598  0.2126 -0.5295
23525W        W43059   6.384  10.293  16.416 -0.1503 -0.0673  0.2112
23526W        W43060   7.495  11.784   0.353  0.1313 -0.2908  0.2609
23527W        W43061  13.498   8.833   3.915  0.2029 -0.1425  0.0057
23528W        W43062   4.028   7.202   0.442 -0.2084 -0.0584  0.4038
23529W        W43063  14.590   6.110   1.343 -0.0738  0.2565  0.1458
23530W        W43064   4.209   9.651  17.102  0.0852 -0.0445 -0.1618
23531W        W43065   9.518   7.631   4.111  0.0935 -0.0110 -0.5361
23532W        W43066  10.375  16.721   1.158 -0.2802  0.0842  0.4429
23533W        W43067  13.262   5.086   2.839  0.1207 -0.2752  0.3874
23534W        W43068   1.112  14.373   2.980  0.1633 -0.2792 -0.0509
23535W        W43069  13.017  16.570  16.958  0.1392 -0.1198  0.0845
23536W        W43070  13.789   9.154   0.992 -0.1395 -0.0201  0.1576
23537W        W43071   6.372   7.055  12.222  0.0498 -0.0852  0.2436
23538W        W43072  13.806  12.041   1.834 -0.1404 -0.1099  0.1960
23539W        W43073   7.989   5.450  16.307  0.1061  0.2355  0.1551
23540W        W43074  12.710  17.171  15.133 -0.3987 -0.2217  0.1945
23541W        W43075   8.630   6.672  14.171  0.4821 -0.0755  0.2920
23542W        W43076  11.417  11.240   0.113 -0.1699 -0.0098  0.0321
23543W        W43077  10.842   3.702   1.494 -0.2680  0.1425 -0.0995
23544W        W43078  13.699  13.781   0.735 -0.1033  0.0287  0.1489
23545W        W43079  11.175  14.520  14.780 -0.3533 -0.1514  0.1243
23546W        W43080   7.192  16.888  16.483 -0.0824  0.1311 -0.3690
23547W        W43081  16.344   7.734   3.618 -0.0406 -0.2923  0.1235
23548W        W43082   0.478  10.210   4.567 -0.1538 -0.1036  0.0413
23549W        W43083  12.066  15.634  16.842 -0.2980  0.0492  0.1110
23550W        W43084   4.512  15.150  15.117 -0.3219  0.0784  0.1275
23551W        W43085  13.564  14.304  13.819 -0.1818 -0.2437 -0.0673
23552W        W43086  11.014  16.846   4.596 -0.0607 -0.0650 -0.0502
23553W        W43087  12.977   0.080  14.905  0.0673 -0.2013 -0.2247
23554W        W43088   4.859  16.246   4.837 -0.1032 -0.0028  0.0607
23555W        W43089  12.942  15.696  15.850 -0.0447  0.0724  0.1723
23556W        W43090  13.555   0.027  15.614  0.0875 -0.0046 -0.0283
23557W        W43091   1.291   5.776  12.889  0.0662 -0.1240 -0.0623
23558W        W43092  14.985   2.260   4.862  0.0161  0.0561 -0.2980
23559W        W43093  15.720  14.747   5.072 -0.2069 -0.2231 -0.0974
23560W        W43094   8.138  14.236   5.069  0.4510  0.0846  0.1257
23561W        W43095   1.126   9.773  14.557 -0.0765 -0.2303  0.0459
23562W        W43096   3.918   0.657  12.258  0.0767 -0.0398  0.2405
23563W        W43097  13.200   3.083  16.839  0.1010 -0.1219 -0.2268
23564W        W43098   0.448   8.969  12.602 -0.5206 -0.1470 -0.0282
23565W        W43099  13.629   5.402   3.231  0.2032  0.2926  0.0382
23566W        W43100   1.363   2.704   2.357 -0.3047 -0.0828 -0.4100
23567W        W43101   3.078   7.564   1.825  0.1593  0.0778  0.4071
23568W        W43102  17.339   6.901  12.536 -0.2275 -0.0214  0.1156
23569W        W43103   4.425   1.403  12.620 -0.1997 -0.0920 -0.1396
23570W        W43104   2.051  14.799  13.101  0.1611  0.4100  0.0807
23571W        W43105   0.407   0.884   3.466  0.0317  0.0680  0.1176
23572W        W43106  15.609   1.685   2.300  0.0015  0.0942 -0.0396
23573W        W43107  14.428  14.779   2.215  0.1830  0.2612  0.1283
23574W        W43108   7.148   8.466  13.020 -0.1995  0.1440 -0.0614
23575W        W43109   6.358   0.731   2.972 -0.2357 -0.0172  0.3006
23576W        W43110   1.740  12.524   2.296 -0.1205  0.1138  0.0495
23577W        W43111   1.664  14.233  13.541  0.1413  0.0386 -0.0114
23578W        W43112  12.473  12.574   3.276  0.1673  0.0517 -0.1545
23579W        W43113  12.118   0.529   1.725  0.2032  0.0350  0.1777
23580W        W43114  15.745   4.439   3.835 -0.0295 -0.0036 -0.0932
23581W        W43115  13.655   2.651   4.026 -0.1432  0.0080  0.2673
23582W        W43116  13.180   4.009   2.840  0.1415  0.1283  0.0332
23583W        W43117   6.519  10.617  14.804 -0.0451  0.2432  0.0949
23584W        W43118   8.402   7.196  15.933  0.0509  0.2034 -0.1746
23585W        W43119  13.096   6.055   3.676  0.1841 -0.0608 -0.2937
23586W        W43120  14.505  15.201  14.067  0.0693  0.0106  0.2124
23587W        W43121  14.866   2.344   2.572  0.1239  0.0811 -0.0012
23588W        W43122  14.537  11.214  13.689 -0.2144 -0.1779 -0.0112
23589W        W43123   0.049   9.953  14.209  0.0928 -0.1128 -0.0357
23590W        W43124   1.446   8.809   3.765  0.3974 -0.0545 -0.3814
23591W        W43125   4.022   4.663  13.534 -0.0210  0.1422 -0.0404
23592W        W43126  10.107  16.966   1.598  0.1008 -0.2550 -0.1305
23593W        W43127  15.157  16.035  13.354 -0.1794 -0.1434  0.0795
23594W        W43128   3.627   9.258   5.012 -0.3326 -0.0044 -0.0299
23595W        W43129   0.391  10.989  12.320  0.1420  0.1665 -0.1490
23596W        W43130  10.996   3.363   0.560 -0.0353 -0.0314 -0.0214
23597W        W43131  13.869   4.985   3.607  0.1385  0.1072 -0.2234
23598W        W43132  16.776  16.453   0.219 -0.1695 -0.2757 -0.1423
23599W        W43133   5.989  14.446   0.740  0.5634  0.0623  0.1019
23600W        W43134   8.874  10.276  13.996  0.0975  0.3233  0.1838
23601W        W43135  17.336   9.683  12.488 -0.0026 -0.2060  0.2309
23602W        W43136  11.507  16.645   1.816  0.0652  0.1036  0.0739
23603W        W43137  10.728   3.153  13.217  0.0233 -0.3060 -0.2149
23604W        W43138  16.986   9.318   3.578  0.1676 -0.1147  0.2001
23605W        W43139   1.810   6.537   0.571 -0.1357 -0.1343  0.0002
23606W        W43140  14.606   1.772   1.397  0.0857  0.2512 -0.1216
23607W        W43141   7.664   9.104   3.060  0.2909 -0.1596  0.1621
23608W        W43142   3.871   3.789  15.483 -0.1855  0.0016  0.3112
23609W        W43143  13.425   6.291  16.342 -0.1008 -0.0679  0.0859
23610W        W43144   7.642   5.434  13.069 -0.0916  0.1827 -0.0004
23611W        W43145   3.628   6.929   0.213  0.1162  0.0148  0.1200
23612W        W43146   2.812   1.738   0.098 -0.4351 -0.0674 -0.1335
23613W        W43147  15.180  12.318  12.832  0.1506  0.1145 -0.1554
23614W        W43148   4.614  17.188   3.727  0.0624  0.2519  0.1994
23615W        W43149  10.016  10.725  15.778 -0.0993  0.0141  0.1697
23616W        W43150   8.747   6.844   2.108  0.0311  0.3050  0.1689
23617W        W43151  14.087   5.102  15.472 -0.0510 -0.0703 -0.2343
23618W        W43152  11.723   5.989  14.620 -0.1473  0.1398 -0.0707
23619W        W43153  11.917   5.322  15.734 -0.1613  0.1045 -0.1446
23620W        W43154  16.988   7.198  16.727 -0.0598  0.2195 -0.0885
23621W        W43155   6.713  13.050   4.472  0.0368  0.0518  0.3351
23622W        W43156  12.928  16.139  12.714 -0.1675  0.0418 -0.0439
23623W        W43157   9.015  16.588  15.058  0.6055 -0.0378 -0.1530
23624W        W43158  16.572   7.912  14.729  0.0299 -0.3595  0.1350
23625W        W43159   9.742   6.388  14.553 -0.0747 -0.2438  0.0311
23626W        W43160  17.392  12.853   4.618  0.1368  0.2100  0.1972
23627W        W43161   2.230  16.278  14.482  0.1742  0.0227  0.2346
23628W        W43162  10.288   1.617   2.561  0.0282 -0.2174  0.3048
23629W        W43163   8.742   8.093   4.374  0.1412  0.1619  0.0281
23630W        W43164  12.337  11.814   1.317 -0.1364 -0.2545  0.0454
23631W        W43165   5.553   8.148   3.423 -0.3496  0.0407  0.1926
23632W        W43166   5.317   7.260   2.773  0.0851 -0.1809 -0.4094
23633W        W43167   3.084  13.020   1.148  0.2512 -0.0496  0.0995
23634W        W43168  10.422   3.706  15.245  0.0450 -0.4921  0.0132
23635W        W43169   4.177  12.483  12.677 -0.0253  0.1186 -0.0135
23636W        W43170   3.855  13.458  13.731  0.0773  0.0618 -0.1530
23637W        W43171   0.836   3.393   4.028  0.1887  0.0534  0.0035
23638W        W43172  16.472  11.176   4.668 -0.1012 -0.2498  0.0050
23639W        W43173  15.719  14.573  17.144 -0.0893  0.0259 -0.0765
23640W        W43174   4.865   1.051  17.086  0.3454 -0.0838 -0.0529
23641W        W43175  10.099   2.109  17.264 -0.1580 -0.1986 -0.0212
23642W        W43176   9.415   2.826  14.482 -0.0267  0.0892 -0.1383
23643W        W43177   9.009  13.530   0.343 -0.2535  0.2407 -0.2429
23644W        W43178  15.998   6.963  17.076  0.2479 -0.2312  0.1239
23645W        W43179  16.829  17.419   4.091  0.3388 -0.0450  0.1499
23646W        W43180   0.968   7.293  15.555 -0.2319  0.0184  0.0549
23647W        W43181   9.189  16.469   4.493  0.0704  0.1141 -0.2550
23648W        W43182   4.216  17.286  13.214  0.4346  0.0147  0.0447
23649W        W43183  17.272   8.148   0.815  0.1507  0.0973 -0.2959
23650W        W43184   7.556  16.103   0.800  0.1400 -0.1740  0.1701
23651W        W43185  13.210  15.108   1.914  0.0453  0.2042 -0.1151
23652W        W43186  10.984  16.818  12.390  0.1826 -0.1624  0.2271
23653W        W43187   7.183   6.845  16.509  0.0792 -0.1606 -0.0288
23654W        W43188  11.022   4.817  15.230  0.2455 -0.1559 -0.0504
23655W        W43189  16.275   1.641   2.510 -0.0851  0.1425 -0.1517
23656W        W43190   9.111  10.020   0.537 -0.1190 -0.0382  0.0396
23657W        W43191   2.722  13.768  15.102  0.0320  0.2773  0.2302
23658W        W43192  13.454  16.178   3.664  0.0514  0.0468 -0.1170
23659W        W43193   8.826   6.139   0.225 -0.0772  0.2959  0.3528
23660W        W43194   8.533   7.626   3.233 -0.1730  0.1212  0.0721
23661W        W43195  16.064   2.738  12.191  0.2039 -0.1372  0.3035
23662W        W43196  16.004  10.344   2.376  0.0336 -0.2955  0.1637
23663W        W43197  10.395  10.062  16.544 -0.2321 -0.2454 -0.1262
23664W        W43198   1.766  13.203  15.958 -0.1126 -0.0072 -0.0422
23665W        W43199  10.223  12.414   0.918 -0.3742 -0.0637  0.0204
23666W        W43200  14.522  13.131   2.581 -0.1874  0.0960 -0.2330
23667W        W43201   4.458   0.653  14.571 -0.0949 -0.0392  0.0972
23668W        W43202   1.497  14.984  17.146  0.0505  0.0829  0.1167
23669W        W43203  11.583   6.138  14.156 -0.1821  0.0372 -0.0155
23670W        W43204   6.248  11.359   0.517 -0.2052 -0.0444 -0.4052
23671W        W43205   6.050   8.266  14.918  0.2611 -0.0249  0.1257
23672W        W43206  16.485  11.437   0.573 -0.2776 -0.0311  0.0604
23673W        W43207   9.302   1.404   3.301 -0.2709 -0.0407  0.1968
23674W        W43208   3.972   9.346   4.606 -0.1431  0.3123 -0.5899
23675W        W43209   7.007   1.559  15.251  0.0642 -0.0750 -0.1847
23676W        W43210   1.722   1.663   1.478  0.2021  0.1086  0.0875
23677W        W43211   0.358  15.741   0.016  0.0125  0.1034  0.1214
23678W        W43212  13.950  13.711   3.430  0.0312 -0.1268 -0.5108
23679W        W43213  16.462  12.711   2.653 -0.2096 -0.0198  0.1298
23680W        W43214   4.147  12.347   0.250  0.3469  0.4082  0.0595
23681W        W43215   5.910  13.865  14.979  0.1748  0.1265 -0.0656
23682W        W43216   9.035   6.813  15.865  0.4144  0.2363  0.2430
23683W        W43217  12.965  16.014  11.462  0.1665  0.2140  0.3689
23684W        W43218   6.688   8.079  16.500  0.0077 -0.2851 -0.2129
23685W        W43219   9.313   9.580  15.330 -0.2886 -0.1482  0.1031
23686W        W43220  16.614   5.640   1.666 -0.1764 -0.1385  0.0635
23687W        W43221  16.837   1.725  15.056 -0.0033  0.0992 -0.1808
23688W        W43222   7.525   5.024   0.524  0.0123  0.0722 -0.1045
23689W        W43223  13.712  17.368   4.118  0.0082  0.1902  0.2192
23690W        W43224   8.062  10.047  12.546 -0.2651  0.2860  0.2023
23691W        W43225   8.266  15.231  15.719  0.1816 -0.0609  0.0389
23692W        W43226   9.175   6.094  16.708 -0.1915 -0.1585  0.0269
23693W        W43227   1.654   7.567  16.215  0.0694 -0.1449 -0.2082
23694W        W43228   6.009  17.086  17.062  0.0733 -0.0582  0.0900
23695W        W43229   0.751   1.447   1.992  0.1384  0.1504 -0.1444
23696W        W43230  12.997   2.285  16.693  0.1910  0.0899 -0.6344
23697W        W43231   8.810   6.929  13.351 -0.0502 -0.1140  0.1122
23698W        W43232   6.572   1.736   2.503 -0.2311 -0.0926 -0.1896
23699W        W43233   4.594   7.577  14.409  0.0014 -0.0480 -0.1763
23700W        W43234   2.829   0.065  16.722 -0.0188 -0.1128  0.2129
23701W        W43235  16.985   0.474  15.222 -0.0107  0.0266 -0.3167
23702W        W43236   1.976  15.522   4.171 -0.1003  0.0754 -0.2213
23703W        W43237  10.056  16.118  14.329  0.0136 -0.4165 -0.1152
23704W        W43238  15.063   4.226  16.673  0.0996 -0.0519 -0.0660
23705W        W43239   5.419   1.320   2.133  0.3136  0.0630  0.4225
23706W        W43240  14.085   9.782  12.596 -0.1077  0.2740  0.3116
23707W        W43241  16.769   0.280   2.720  0.3261 -0.0723  0.1618
23708W        W43242  16.990   2.934   2.216  0.1429  0.1795 -0.4074
23709W        W43243   4.741  14.716   2.180  0.0053 -0.0574 -0.2012
23710W        W43244   8.819  16.726  17.243  0.1734  0.1892 -0.2181
23711W        W43245   5.467  14.394  12.795  0.2111  0.0801  0.0223
23712W        W43246   7.204   2.261   1.345 -0.1460  0.2095 -0.2069
23713W        W43247  14.290  14.759   4.955 -0.1877 -0.0771  0.0771
23714W        W43248  15.783  14.829  13.139 -0.1417  0.4270  0.0433
23715W        W43249  14.520  12.437  14.369  0.1223 -0.2282  0.1490
23716W        W43250   6.489   4.566  15.755  0.0062 -0.2729  0.1165
23717W        W43251  12.627   3.881   2.081  0.0399  0.2324  0.0707
23718W        W43252   9.285   9.374  16.231  0.1231  0.3277 -0.2060
23719W        W43253   5.515   0.123  16.916 -0.2957 -0.4034 -0.1311
23720W        W43254  16.453  16.923   3.917  0.1506  0.2835  0.1009
23721W        W43255   8.753   8.223  12.816 -0.1181 -0.2264  0.0028
23722W        W43256   8.141  11.999   0.763  0.3655 -0.1363 -0.1630
23723W        W43257  12.904   4.787   1.096  0.1183  0.2456  0.2651
23724W        W43258   0.846   6.229   3.383  0.3893 -0.2526 -0.2714
23725W        W43259   0.263   7.359   1.586  0.1060 -0.2184  0.0256
23726W        W43260  14.719   4.517   1.919  0.1202 -0.0477  0.3638
23727W        W43261   5.474  16.370   5.003 -0.2876  0.2086 -0.1661
23728W        W43262  10.136   8.255  16.227 -0.0560 -0.1527 -0.0610
23729W        W43263  13.638   5.386  17.284 -0.0091 -0.3067 -0.4230
23730W        W43264  12.733   2.116   2.952  0.0243 -0.2736  0.2690
23731W        W43265  16.677  14.859  16.518  0.0866  0.0691  0.1002
23732W        W43266  10.308  10.577  12.215  0.2363 -0.2232 -0.1471
23733W        W43267  14.493   0.349   0.409  0.0934 -0.2848  0.1410
23734W        W43268  10.305  17.251   1.176 -0.0002  0.0456 -0.0688
23735W        W43269   4.195   0.483  16.601 -0.0155 -0.1068 -0.2330
23736W        W43270   3.342  13.737  15.295 -0.0791 -0.1505 -0.1117
23737W        W43271   6.679   7.460   0.205 -0.3556  0.3501 -0.0170
23738W        W43272   2.005  15.924   2.882  0.0288  0.1727  0.3205
23739W        W43273   1.626   8.649   1.504  0.3426 -0.1203 -0.1077
23740W        W43274  15.571   6.213   4.683  0.0134 -0.0551  0.3880
23741W        W43275   3.232   9.450   1.195 -0.1667 -0.1016  0.0350
23742W        W43276   6.499  12.605   1.646  0.0274  0.0831 -0.2680
23743W        W43277   8.049  14.503  15.278  0.2530 -0.0251 -0.2891
23744W        W43278   7.567   7.629  16.933  0.1548 -0.1341 -0.0207
23745W        W43279  15.918  14.673   1.010  0.3537 -0.0864  0.2700
23746W        W43280   6.287   2.297   1.417  0.1489 -0.0265 -0.0790
23747W        W43281  16.602   5.311   4.588  0.3001  0.1836  0.1224
23748W        W43282  11.349  14.561  15.598 -0.1787 -0.0084 -0.0820
23749W        W43283   9.621   7.067   1.849  0.1894 -0.1436 -0.1993
23750W        W43284   6.778   6.247  15.345 -0.2500  0.1316  0.2238
23751W        W43285  15.085  11.513   2.573 -0.0297 -0.2642 -0.0008
23752W        W43286   0.064  13.499   1.875 -0.0448 -0.0335 -0.1368
23753W        W43287   4.939  15.227  14.578  0.0227  0.1043  0.1497
23754W        W43288   1.267   1.307   3.121 -0.1611  0.0575  0.1346
23755W        W43289  13.384   3.416  12.815  0.0869  0.2226 -0.0407
23756W        W43290   4.386  13.998  14.183 -0.2066  0.2289  0.1155
23757W        W43291   6.128   9.881  16.081 -0.2648 -0.0748  0.1427
23758W        W43292   3.230   9.964   0.227 -0.0065  0.0231 -0.1278
23759W        W43293  12.443   6.653  16.419  0.2911 -0.1452  0.0086
23760W        W43294  15.781   8.611   3.849  0.0533  0.0378 -0.1673
23761W        W43295  15.855  14.221  14.313 -0.2449 -0.1962 -0.1949
23762W        W43296   8.533   4.751  13.396 -0.1211  0.1597 -0.1091
23763W        W43297  13.837   6.780   1.453  0.3634  0.4339  0.0552
23764W        W43298  11.619   0.025  12.680 -0.3721  0.2296 -0.2466
23765W        W43299  16.516   8.058  12.310  0.0659  0.0130 -0.2008
23766W        W43300  12.847  15.228  16.872  0.1344  0.0448 -0.0975
23767W        W43301   4.439   3.816  16.698 -0.0546  0.0173 -0.0926
23768W        W43302  11.517   4.161  15.453 -0.3177 -0.2235  0.0893
23769W        W43303   4.821  13.085  12.909 -0.0382  0.1093  0.0613
23770W        W43304   0.172   4.122  13.683 -0.1361 -0.1968  0.2776
23771W        W43305  16.467  11.389   3.747 -0.0459  0.3342  0.2941
23772W        W43306  12.197   0.974  13.860  0.2478  0.1434  0.0539
23773W        W43307  14.050  16.286  14.149  0.2590  0.1064  0.0975
23774W        W43308   2.097   6.480   0.097  0.0008  0.0373  0.1038
23775W        W43309   2.858   7.579   3.727  0.1148 -0.0921  0.2144
23776W        W43310   7.231   6.611  16.036 -0.1806  0.0725  0.1634
23777W        W43311   1.126   2.095  13.957 -0.1575  0.1656 -0.1769
23778W        W43312  10.356   1.861   0.377 -0.0438  0.3640 -0.1378
23779W        W43313  12.436  12.043  12.675  0.1520 -0.0305 -0.1981
23780W        W43314  15.571   3.943  15.546  0.0560 -0.0407 -0.2138
23781W        W43315   7.902  10.901  14.476  0.1743  0.0479  0.2160
23782W        W43316   2.924   0.278   4.337  0.1033  0.4284 -0.1414
23783W        W43317   1.174  13.699   4.142 -0.0661  0.1115  0.2656
23784W        W43318   5.050   1.733   3.270 -0.2930  0.2180  0.2753
23785W        W43319  14.038   1.280  12.006  0.0720  0.0200 -0.1882
23786W        W43320  11.642   8.148   3.872 -0.1818 -0.0399 -0.2507
23787W        W43321   8.570  13.627  14.504  0.0222 -0.1094  0.1279
23788W        W43322   1.769  16.220   3.281  0.0758 -0.2533 -0.0246
23789W        W43323   8.512  13.975  13.612  0.1030  0.1330  0.1602
23790W        W43324  16.165   1.284   4.405 -0.1770  0.1240 -0.0532
23791W        W43325   7.913   8.853  16.076 -0.1490  0.1392 -0.0069
23792W        W43326   3.858   3.019   4.029  0.0573  0.3345 -0.1710
23793W        W43327   1.383   4.549  17.193 -0.1345 -0.2588 -0.3991
23794W        W43328  10.717   4.595  13.888  0.1633  0.0606  0.0805
23795W        W43329   8.686  16.365  13.543 -0.1353 -0.0445 -0.2119
23796W        W43330   9.040  16.188   2.129  0.1919  0.2351 -0.3109
23797W        W43331  13.753  14.366   5.671 -0.3581  0.0840 -0.3209
23798W        W43332  17.388  13.624   1.159 -0.1639  0.3652 -0.0564
23799W        W43333   4.000   8.771  14.356 -0.0417 -0.1392 -0.6949
23800W        W43334   7.102   5.948  15.586  0.2412  0.1150  0.2113
23801W        W43335  16.482   3.528   4.617 -0.4109 -0.0597  0.1943
23802W        W43336   0.942  14.692  15.006  0.1823 -0.0245  0.2291
23803W        W43337  14.398   9.375  12.652 -0.0712  0.0638 -0.0407
23804W        W43338  10.007  13.366   2.768  0.3871 -0.0013  0.3406
23805W        W43339   8.603  15.270   1.309 -0.1902  0.1627 -0.3108
23806W        W43340  17.149   3.622  14.985  0.3451  0.1591  0.0365
23807W        W43341   3.689   6.054   1.681 -0.1246  0.1474  0.1243
23808W        W43342   8.632   1.095  17.240  0.0179  0.2352 -0.1001
23809W        W43343   0.854  13.865  16.025  0.2674 -0.1134  0.0380
23810W        W43344  11.189  12.911   0.501 -0.1594  0.0602 -0.4370
23811W        W43345  16.111  11.985   4.676  0.1691  0.3338  0.0417
23812W        W43346   6.551   6.221  13.410  0.2104 -0.1507  0.0917
23813W        W43347   5.024   6.990   0.945 -0.3764  0.0751 -0.0238
23814W        W43348   9.864  14.649   0.794  0.2613 -0.0671  0.3237
23815W        W43349  14.362  16.037   4.986 -0.2405 -0.2479 -0.2382
23816W        W43350   0.660   1.049  14.925  0.2181 -0.0722  0.0562
23817W        W43351  14.182  13.801   1.613  0.2270  0.1961 -0.2411
23818W        W43352  10.647   9.065  15.434  0.1143 -0.1099  0.0739
23819W        W43353  14.319   1.646   0.561 -0.2034 -0.0749 -0.1211
23820W        W43354   6.057  11.941   3.745 -0.2054 -0.0912 -0.1282
23821W        W43355  12.467   4.485  15.766  0.1813  0.0743  0.1606
23822W        W43356   6.925   3.774  12.369 -0.2073 -0.1188  0.0470
23823W        W43357   7.597   2.330   1.632  0.1976  0.0187  0.0118
23824W        W43358  15.360   9.841   4.958  0.1831 -0.0852  0.0458
23825W        W43359   3.502   9.616  13.870  0.3802 -0.3456 -0.0343
23826W        W43360   2.378  11.534  14.824 -0.1322 -0.1022 -0.3112
23827W        W43361   6.491  15.811  16.913  0.2345  0.2807  0.1688
23828W        W43362   9.528   8.953   5.529  0.0520 -0.1462 -0.1511
23829W        W43363   9.720   9.205   2.503 -0.1637  0.1802 -0.0736
23830W        W43364   3.602   7.418  13.920 -0.5320 -0.1950 -0.2363
23831W        W43365  10.141   7.094   1.841  0.0670 -0.0746  0.0112
23832W        W43366  17.258   9.539  16.904  0.0445  0.0205 -0.2874
23833W        W43367  14.395  12.876  12.441 -0.3210  0.0364 -0.1546
23834W        W43368   2.860   0.957  16.971 -0.1459 -0.0727  0.0870
23835W        W43369  11.972  15.203   4.361 -0.0296 -0.0799 -0.1053
23836W        W43370  15.086  13.959  13.687 -0.1257 -0.1740  0.2033
23837W        W43371   0.615   8.935   0.209  0.3550  0.1418  0.4493
23838W        W43372   1.354   0.961   1.369 -0.1038  0.0137  0.0596
23839W        W43373   4.235   8.420  16.965  0.1224  0.0947  0.0247
23840W        W43374   1.405   8.744  16.262  0.2786  0.0937 -0.0287
23841W        W43375   0.929   8.327   0.875 -0.0225 -0.2155  0.2681
23842W        W43376   1.334   5.293  13.769  0.1410  0.0482 -0.0674
23843W        W43377  11.137   3.282   1.570 -0.1456 -0.2237  0.0911
23844W        W43378   2.065   1.302   0.504  0.0455 -0.0666  0.0828
23845W        W43379   9.343  16.512   2.548 -0.1313 -0.1198 -0.3523
23846W        W43380   7.167  12.076  15.023 -0.0089  0.1529  0.1465
23847W        W43381   1.690   6.057  12.677 -0.1874 -0.0616 -0.2303
23848W        W43382   9.522  10.666   2.598 -0.4419 -0.3764 -0.1299
23849W        W43383   5.933   3.789   4.925 -0.1413  0.4458  0.0265
23850W        W43384   0.681  11.617  14.503 -0.0033 -0.1170  0.0303
23851W        W43385  14.930   1.303   4.153  0.1353  0.0294  0.1280
23852W        W43386   0.128  12.493   2.816 -0.0094  0.0914 -0.0362
23853W        W43387  16.666   6.006  16.590  0.2161 -0.0009 -0.1962
23854W        W43388  12.612   4.028  14.399 -0.0000 -0.2059 -0.2031
23855W        W43389   6.976   6.109   0.737 -0.1836 -0.0269  0.1023
23856W        W43390  12.256   1.977   2.709  0.2282  0.1313 -0.2941
23857W        W43391   1.418  10.932   2.549 -0.2772 -0.0559  0.1908
23858W        W43392   7.007   8.290   0.972  0.0946  0.0910 -0.1004
23859W        W43393   6.375   3.740   3.473  0.1018  0.2414  0.2146
23860W        W43394   1.398  13.667   3.657  0.0502 -0.1821  0.3738
23861W        W43395   0.731  14.709   2.082 -0.1533 -0.1452 -0.0987
23862W        W43396   8.957   0.786   4.226  0.2463 -0.0296  0.0566
23863W        W43397   4.396  10.822   3.523 -0.0409 -0.1017 -0.0257
23864W        W43398  12.788   8.278   4.379 -0.2828  0.0247  0.0617
23865W        W43399   5.103   9.315   5.320 -0.1792  0.0934 -0.2071
23866W        W43400  15.451  13.978  12.685  0.1021 -0.0671  0.2225
23867W        W43401   4.566   6.561  15.072  0.3973 -0.2474  0.0340
23868W        W43402   0.301   7.705  13.979  0.0226 -0.1164 -0.1150
23869W        W43403   1.896  12.315   3.180  0.2079 -0.2607  0.5636
23870W        W43404  14.621  16.049  16.932  0.3408 -0.2274 -0.3237
23871W        W43405   4.563  11.988  14.536 -0.1751  0.1996 -0.0337
23872W        W43406   6.829  10.962  17.254 -0.3399 -0.1945  0.2122
23873W        W43407   1.108  12.279   0.146 -0.2458 -0.0256  0.0754
23874W        W43408  13.063  11.403   1.740 -0.1351  0.2292  0.0071
23875W        W43409  15.911  17.447   1.855  0.3244  0.1396  0.0945
23876W        W43410  16.200   6.827  12.844 -0.1488  0.2293  0.1285
23877W        W43411   2.433   2.200  16.740  0.2933 -0.0995 -0.2837
23878W        W43412  14.539   1.174  14.605 -0.0903 -0.0951  0.0298
23879W        W43413  13.273   0.271   2.995 -0.3642  0.0118 -0.0791
23880W        W43414  13.037  15.604  17.150  0.0028 -0.0244  0.1969
23881W        W43415   6.367   9.426   0.879 -0.0472 -0.0126  0.2216
23882W        W43416  16.790   6.495   1.107 -0.0069 -0.1592  0.1909
23883W        W43417   5.362  15.787  12.780  0.1563  0.2163  0.4480
23884W        W43418  12.234   0.453   4.997  0.1080  0.0587 -0.0286
23885W        W43419  12.365  14.746  12.973 -0.2775  0.1981 -0.0369
23886W        W43420  11.547   1.399  16.118 -0.0543  0.2906 -0.1889
23887W        W43421  12.448  16.775  13.298  0.1109 -0.1891 -0.1721
23888W        W43422   3.151   5.330   0.063 -0.0039 -0.1854  0.0599
23889W        W43423   4.791   6.192  14.300  0.1116 -0.0872 -0.2401
23890W        W43424  12.053   3.884  16.249  0.3556 -0.1442  0.1432
23891W        W43425   4.834   9.867  13.320  0.2413  0.1237  0.0322
23892W        W43426  13.848   6.243   0.942 -0.0262 -0.4543 -0.1123
23893W        W43427   4.809  13.984  14.439  0.2002  0.2992 -0.0325
23894W        W43428   3.626   6.175   4.925  0.0726 -0.0449  0.1425
23895W        W43429  17.269  15.397   4.602  0.3310 -0.1391 -0.0585
23896W        W43430  15.753  15.997   1.038 -0.1338 -0.2618  0.1686
23897W        W43431   6.035  11.612   4.124  0.2399 -0.2738  0.0591
23898W        W43432   6.949  12.872   3.476 -0.2703  0.0404  0.1932
23899W        W43433   6.643   8.652   2.888  0.1462  0.1982 -0.1588
23900W        W43434  10.956   9.684   4.640 -0.0973  0.0817  0.1962
23901W        W43435  12.263   1.962   1.024  0.0336  0.0680  0.2932
23902W        W43436   7.734   2.285  14.962  0.1049  0.0619 -0.1332
23903W        W43437  17.339  14.902  16.907  0.0724 -0.1526  0.0633
23904W        W43438   0.469  10.702  12.745 -0.0018  0.0150  0.1601
23905W        W43439   5.045  17.451  14.608  0.2119 -0.0743  0.1462
23906W        W43440  14.592   0.984  14.104  0.2134  0.1181 -0.0186
23907W        W43441  13.520   7.697   3.732  0.1357  0.0412 -0.0001
23908W        W43442   4.672  10.998  12.827  0.0976  0.0010 -0.3797
23909W        W43443   2.655   3.082  13.753  0.2670 -0.1417  0.0968
23910W        W43444  17.091  16.338  13.386 -0.1072 -0.2532  0.2421
23911W        W43445   3.129   6.125   1.731  0.1693 -0.2845 -0.0383
23912W        W43446   5.400   1.462  12.937  0.2577  0.4099  0.0591
23913W        W43447   9.614  16.150   2.706 -0.0277 -0.1323  0.0873
23914W        W43448   2.807  10.494   4.439 -0.0616 -0.1238  0.2920
23915W        W43449  11.961  16.751  15.460 -0.2408  0.2728 -0.2130
23916W        W43450  15.809   8.488   0.328  0.3474 -0.2138 -0.1786
23917W        W43451  11.336  11.492   0.943  0.1624 -0.2791 -0.1283
23918W        W43452  16.297  13.129  13.363 -0.0542 -0.2456  0.0401
23919W        W43453  16.191  10.175   2.784  0.2590  0.1724  0.0812
23920W        W43454  15.495   5.168   1.006  0.1890 -0.1566 -0.0533
23921W        W43455   7.345  10.146  17.045  0.0039  0.2714 -0.2027
23922W        W43456   4.169   8.816   2.635  0.1342  0.0238  0.0972
23923W        W43457   8.180   8.425  13.442 -0.2991  0.0349 -0.1123
23924W        W43458   5.296  16.201  14.578 -0.0251 -0.5230  0.0044
23925W        W43459  17.040   8.192  14.594  0.0543  0.0962 -0.0690
23926W        W43460   4.622   6.137  16.967 -0.1437 -0.3019  0.4303
23927W        W43461  17.157   6.485  15.323 -0.0232 -0.0624  0.1520
23928W        W43462   0.050   6.981  15.323 -0.4428 -0.2426  0.1675
23929W        W43463  15.959   9.288  14.059  0.1968 -0.0988  0.2459
23930W        W43464  11.861  17.366  11.853  0.1579  0.3408  0.0380
23931W        W43465   6.670   4.530  16.256  0.3543 -0.1917  0.0784
23932W        W43466   2.392   0.114  14.155 -0.2181 -0.1023  0.1928
23933W        W43467   6.936   8.552   2.330  0.1959  0.3586  0.4437
23934W        W43468   1.255  11.311   2.211  0.0419  0.0001 -0.1146
23935W        W43469  17.459  10.301  15.283  0.2157 -0.0495 -0.2457
23936W        W43470   2.851  11.002  11.341  0.3377 -0.2976  0.0279
23937W        W43471  12.038   7.038  15.679  0.0571  0.3981  0.0862
23938W        W43472   1.891   9.165   4.741  0.0699  0.0611 -0.2111
23939W        W43473   6.464   1.012  16.036  0.2526  0.1925  0.4075
23940W        W43474  14.066  14.645  15.187 -0.4072  0.1419  0.1935
23941W        W43475  13.951   9.600  13.390  0.0697 -0.1447 -0.0727
23942W        W43476  12.265  17.115   3.761  0.4760  0.0065  0.2229
23943W        W43477   7.601   7.044  14.812 -0.1716 -0.1106  0.2629
23944W        W43478   7.905   3.949  13.520 -0.1997 -0.1219  0.3283
23945W        W43479   9.304   4.781   2.717 -0.0221  0.2236  0.1996
23946W        W43480   1.418   4.438   1.118 -0.0858 -0.0735 -0.0611
23947W        W43481  15.681  10.949   0.533  0.2226 -0.0653  0.0853
23948W        W43482   3.025  15.308  14.940  0.0003  0.3568 -0.2883
23949W        W43483   3.548   8.701  14.077  0.0816 -0.1776 -0.2001
23950W        W43484   4.179  11.773   6.258 -0.0815 -0.1805  0.0553
23951W        W43485   2.557   4.738   1.988 -0.0450  0.1786 -0.2538
23952W        W43486  16.033   7.976   4.418  0.0502 -0.0958  0.1997
23953W        W43487   4.887  12.009   3.805  0.0862 -0.1549  0.5344
23954W        W43488  17.104  14.824   0.958  0.0906 -0.1270 -0.0678
23955W        W43489   8.621   8.527  13.677  0.0203  0.1672  0.2294
23956W        W43490  13.404  11.014   4.679 -0.0028  0.1481 -0.0132
23957W        W43491   6.148  15.008  16.402  0.2763 -0.1045  0.3435
23958W        W43492   8.707   9.794  12.430 -0.0026 -0.2677  0.0303
23959W        W43493   5.717  17.148   4.696  0.1578  0.0529 -0.1635
23960W        W43494   0.182  14.790  12.881  0.1689  0.1007  0.3111
23961W        W43495  15.613  12.211  12.972 -0.2765  0.1746 -0.1530
23962W        W43496   4.950  10.833   3.720  0.3264 -0.0490 -0.0859
23963W        W43497   5.898   3.060  16.427 -0.1196 -0.1982  0.0736
23964W        W43498   9.328   7.936  15.787  0.4403  0.0815 -0.0455
23965W        W43499   8.182   9.780  14.063 -0.2274  0.1093  0.2809
23966W        W43500   9.942  10.290  12.398  0.1457 -0.0858  0.0059
23967W        W43501   6.010  13.315   3.308  0.0326  0.0051  0.0454
23968W        W43502   3.776   0.521  14.501 -0.0967 -0.0113  0.2032
23969W        W43503  11.011   6.127   1.167  0.0272 -0.0814 -0.1772
23970W        W43504  13.321   3.609   2.571 -0.1006 -0.0312  0.0457
23971W        W43505  11.237   5.041   4.966 -0.2009 -0.0338 -0.0673
23972W        W43506  12.104   4.030  12.795 -0.0219  0.3183 -0.1518
23973W        W43507   7.943   5.326   0.568 -0.2098 -0.2481  0.1101
23974W        W43508   1.795   1.511   2.333 -0.0368 -0.0677 -0.1847
23975W        W43509  13.218   8.246  17.213 -0.0812  0.0216 -0.2522
23976W        W43510  12.246   3.345   4.920  0.0402  0.0588 -0.1528
23977W        W43511   6.598  11.625  16.677  0.1517  0.2303 -0.1743
23978W        W43512   7.232   7.836   2.497  0.0957 -0.1646 -0.2391
23979W        W43513  13.010   2.873   4.751  0.0637  0.2171  0.0606
23980W        W43514  15.573   4.442  13.661  0.0988  0.0775  0.0852
23981W        W43515   9.517   1.199   2.337  0.0866  0.2365  0.1863
23982W        W43516   3.039  12.066   4.716 -0.0630  0.0683  0.1886
23983W        W43517   1.861   7.910  15.890 -0.1944 -0.2111 -0.1477
23984W        W43518   1.077   6.837  14.165  0.0056 -0.0518 -0.0928
23985W        W43519  13.696   8.566   4.840 -0.0496 -0.2623 -0.0121
23986W        W43520   6.519  13.677   0.952  0.1459  0.0923  0.2376
23987W        W43521   3.365   5.686  12.741 -0.0436  0.0155 -0.2019
23988W        W43522  11.488  15.943  13.851 -0.0244  0.0574 -0.0272
23989W        W43523  10.664   3.055   2.544 -0.0683 -0.0420  0.0580
23990W        W43524  15.929   7.186  16.614  0.1717 -0.1564 -0.1054
23991W        W43525  16.221   9.260  12.877  0.1283  0.3684 -0.1167
23992W        W43526  12.132  16.493  16.877 -0.0544  0.2150  0.2442
23993W        W43527   9.135  11.985   4.120 -0.4466  0.0146  0.0262
23994W        W43528   6.223  15.303   3.630  0.0766  0.2160  0.1859
23995W        W43529  17.219   4.633  12.504 -0.0178  0.2859 -0.1687
23996W        W43530  10.910   2.207  15.368 -0.0921  0.0366 -0.1222
23997W        W43531  10.292   1.519  15.084 -0.2563  0.0706  0.1032
23998W        W43532  14.105   7.270   5.191 -0.2115 -0.0661  0.0894
23999W        W43533   2.234   2.325   4.479 -0.1912  0.2873 -0.1145
24000W        W43534  10.093   7.606  13.967 -0.2077  0.2814 -0.1659
24001W        W43535   5.331   9.208  15.277 -0.1097  0.0264  0.0620
24002W        W43536  15.707  16.240  13.373 -0.1769 -0.0703  0.1785
24003W        W43537  15.088  16.974   0.284  0.2817  0.1810  0.0512
24004W        W43538  16.055  14.824  15.965  0.0616 -0.2933  0.0959
24005W        W43539  10.394  12.151  16.099  0.0091 -0.0932  0.0660
24006W        W43540   2.036  16.639   4.112  0.1669 -0.1709 -0.1438
24007W        W43541  13.120  12.177   1.306  0.3961  0.3943  0.1015
24008W        W43542  10.547   7.216   2.865  0.1737 -0.0498 -0.1165
24009W        W43543  13.639   1.069  16.223 -0.0375  0.0322 -0.0664
24010W        W43544  13.892   1.612   3.304  0.0449  0.2925  0.1486
24011W        W43545   3.972  15.303   0.512  0.0456 -0.0228 -0.0556
24012W        W43546  13.078   1.572  12.226  0.3743  0.1727  0.0718
24013W        W43547  14.200   8.807  13.725  0.2799 -0.0987 -0.1081
24014W        W43548  11.137   5.247   3.386  0.1260 -0.0775 -0.1614
24015W        W43549   3.746  15.946  14.019 -0.3896  0.2492 -0.3916
24016W        W43550   4.553  15.350  13.174  0.2104  0.1400  0.0484
24017W        W43551  14.851   4.761  15.873 -0.1286 -0.2657 -0.1824
24018W        W43552   3.796   8.003   0.255 -0.0803  0.1688  0.1680
24019W        W43553  12.523  16.401   3.140 -0.3749 -0.1293 -0.0570
24020W        W43554   6.856  14.602  15.700 -0.0848 -0.1706 -0.2980
24021W        W43555   6.103  16.333   1.458  0.2607 -0.1173  0.0539
24022W        W43556   0.732  10.018  14.372  0.0356 -0.1197 -0.1318
24023W        W43557   3.219  10.623   1.818  0.0267  0.1701 -0.2054
24024W        W43558   2.259   0.790  11.788 -0.2173  0.2069  0.0135
24025W        W43559   6.440   9.948   0.644 -0.2621  0.0783  0.0170
24026W        W43560   7.517   7.344   0.204 -0.0675  0.2356 -0.0095
24027W        W43561  16.736   5.340   1.185 -0.0144 -0.3879  0.0442
24028W        W43562   1.621  14.049   1.474  0.0593 -0.0398  0.1866
24029W        W43563   2.297   5.816   1.986 -0.1070 -0.2185 -0.0585
24030W        W43564   7.922   1.095  15.176 -0.0471  0.1987 -0.0664
24031W        W43565  16.020  11.002  17.143  0.2212  0.0578  0.0077
24032W        W43566  14.770   1.470  15.179 -0.0350 -0.2852  0.1077
24033W        W43567   3.271   5.427  14.570 -0.4586  0.0709  0.2050
24034W        W43568   4.628  17.052  16.989  0.2194  0.3477 -0.0141
24035W        W43569   1.378   6.581  15.519  0.0104  0.1009 -0.1364
24036W        W43570  16.646  17.400  14.558 -0.3573  0.1008 -0.1010
24037W        W43571   9.191  12.946  15.104 -0.0346  0.2316 -0.0798
24038W        W43572   7.429  14.421  16.446 -0.4054 -0.1270 -0.2456
24039W        W43573   1.936  13.746   5.994 -0.0022 -0.0952  0.1257
24040W        W43574  16.358  16.640   4.327  0.2819  0.2663 -0.1343
24041W        W43575   7.662   7.295   5.029  0.1330 -0.0534  0.0204
24042W        W43576   8.219   1.512  14.948 -0.0714  0.1097 -0.3781
24043W        W43577   1.270   7.120   2.433 -0.0299  0.0941 -0.1526
24044W        W43578   5.826  10.798   4.997 -0.0050 -0.2513  0.0440
24045W        W43579   4.439  14.114  12.501  0.0394  0.0416 -0.2493
24046W        W43580   7.021   1.715  13.537 -0.0410 -0.0410 -0.0600
24047W        W43581  12.073   7.310   3.032  0.2030  0.2553 -0.1659
24048W        W43582   1.391   3.420   0.618  0.2660 -0.0071 -0.0700
24049W        W43583   9.535   3.475  12.318 -0.0213  0.0635  0.3072
24050W        W43584   6.815   9.819  13.286 -0.0895 -0.0538  0.1820
24051W        W43585  13.769   0.895  12.329 -0.0681 -0.0703  0.1004
24052W        W43586  15.503   0.893  13.156  0.0098 -0.0125 -0.2011
24053W        W43587  12.724  12.468  13.786 -0.0516  0.1777  0.1670
24054W        W43588   7.541  12.905  17.285  0.0184 -0.0100 -0.0682
24055W        W43589  12.806   8.298  13.248 -0.0870 -0.1706  0.1814
24056W        W43590  11.056   1.679  13.464  0.0831  0.2004  0.1765
24057W        W43591   3.726  12.585  15.040  0.0763 -0.1050  0.2637
24058W        W43592   4.792   7.808  12.148 -0.1995 -0.1242 -0.0984
24059W        W43593   6.590  16.208   1.239  0.1573 -0.1348  0.0932
24060W        W43594  15.300   0.095   5.993 -0.1893 -0.0507  0.0696
24061W        W43595   2.857   3.986   4.143  0.0740 -0.0271 -0.3405
24062W        W43596   2.907  13.108  16.589  0.1107  0.0657 -0.2074
24063W        W43597  13.704   8.731  14.649  0.1130 -0.2058  0.0885
24064W        W43598   2.514  16.250  15.286  0.2041  0.2051 -0.3008
24065W        W43599   7.408   8.718   3.227 -0.2117  0.2538 -0.1533
24066W        W43600   7.017  12.361   3.226  0.0991 -0.1200  0.0200
24067W        W43601  17.462  15.164   4.142 -0.1537  0.0135  0.2350
24068W        W43602   7.993  11.233  16.342 -0.1329  0.1364 -0.1972
24069W        W43603  13.052   1.699  16.423  0.0692 -0.0682  0.1234
24070W        W43604  10.561   6.159  13.013  0.2237  0.1113  0.0304
24071W        W43605  11.769   7.440  14.576  0.0716  0.2128 -0.0633
24072W        W43606   5.277   1.035  14.794 -0.1125 -0.2325 -0.1246
24073W        W43607   1.669   5.862  15.115 -0.3492  0.0637  0.2703
24074W        W43608   3.650   3.639   0.589 -0.3516  0.1216  0.0657
24075W        W43609   1.994   0.163   0.510 -0.1311 -0.0781 -0.0318
24076W        W43610   6.814  12.316  12.939  0.0772 -0.1372 -0.0040
24077W        W43611   0.488   8.455  12.636  0.0153  0.2560  0.6461
24078W        W43612   5.060  14.809  14.289  0.0960 -0.2904  0.2859
24079W        W43613   6.046   7.990   1.164  0.0943  0.0043  0.0197
24080W        W43614   0.516  11.525   0.442 -0.1423  0.0922  0.1740
24081W        W43615  11.093   8.870   3.497 -0.0692 -0.0694 -0.2270
24082W        W43616   1.192   2.158   4.200  0.2438 -0.3087  0.1815
24083W        W43617   3.419  10.477   0.018  0.2010  0.0575  0.1709
24084W        W43618   1.432  10.499   2.817 -0.2264 -0.1046  0.1965
24085W        W43619   6.545   8.587  16.445 -0.1255 -0.1629  0.1739
24086W        W43620  10.159   5.500   2.985  0.0719  0.2227 -0.1408
24087W        W43621   9.577   7.839   1.755  0.2508 -0.0360  0.2047
24088W        W43622   2.255  14.781  17.073  0.1621  0.1421 -0.2981
24089W        W43623   0.209  13.772   2.245  0.1959 -0.1907  0.0802
24090W        W43624   2.008  15.634   2.261 -0.0531  0.3986  0.1216
24091W        W43625  16.780   1.640   0.749  0.1789 -0.2702  0.0249
24092W        W43626   1.771  13.723  14.693 -0.2389 -0.0886 -0.1935
24093W        W43627   6.386   0.235   0.855 -0.0875 -0.0637 -0.0642
24094W        W43628  16.038  12.945   4.774 -0.2166  0.2066  0.2686
24095W        W43629   3.771  13.688   4.956 -0.1261  0.1401 -0.0478
24096W        W43630  17.065   1.339  13.260  0.0477  0.0931  0.1121
24097W        W43631   7.925   1.758  15.786  0.1823  0.0486 -0.0137
24098W        W43632   7.907   5.777  12.789 -0.3334  0.4426  0.0082
24099W        W43633  12.728  14.550   4.763  0.0322 -0.1274 -0.0838
24100W        W43634   0.095  13.386  13.003 -0.2020 -0.0950 -0.0016
24101W        W43635   0.307   4.605   4.560 -0.1249 -0.0657  0.1015
24102W        W43636   7.557   1.518   3.860  0.3079  0.0720 -0.0658
24103W        W43637  13.807   3.971   1.580 -0.2624 -0.0059  0.0140
24104W        W43638   5.779  14.022  13.072  0.0955 -0.0856  0.0931
24105W        W43639   4.167  16.539  16.321 -0.0482 -0.1120  0.1296
24106W        W43640  15.622   9.347   2.742 -0.0597 -0.1701  0.1723
24107W        W43641   3.342  13.942   1.389  0.1247 -0.0020  0.1409
24108W        W43642   6.808   0.962   3.609  0.1576  0.0057 -0.3221
24109W        W43643   6.202  14.069   0.343 -0.0610 -0.1805  0.0232
24110W        W43644   4.063  14.189   0.593  0.2560  0.1977  0.2539
24111W        W43645   2.278   9.783   2.385 -0.2102  0.0306 -0.1727
24112W        W43646  13.303  15.150  16.897 -0.1522  0.1778 -0.1804
24113W        W43647  12.762   9.809   4.421 -0.2330 -0.0155  0.0697
24114W        W43648   4.093  11.728  14.293  0.1736  0.1963 -0.0926
24115W        W43649  15.548  15.498   3.396 -0.2133  0.2596  0.0074
24116W        W43650  11.281  16.365  16.124 -0.0352 -0.1114 -0.2467
24117W        W43651  15.451   2.262   5.077 -0.3800  0.2141 -0.2405
24118W        W43652  13.159   9.361  12.938  0.3627 -0.1209 -0.1030
24119W        W43653   3.016   9.877   1.393 -0.1796 -0.0546  0.1677
24120W        W43654  15.062   6.178   1.516 -0.2189 -0.0056  0.0263
24121W        W43655   8.573  13.189  12.314 -0.2016  0.0020  0.3212
24122W        W43656  13.454  14.917   2.266 -0.1432  0.0537  0.2191
24123W        W43657  14.597   7.255  12.773 -0.0108  0.1777 -0.0435
24124W        W43658  11.039   0.562  14.472  0.2225  0.3986 -0.3958
24125W        W43659   2.490  11.400   1.723  0.0778 -0.0313 -0.0660
24126W        W43660   7.233  14.533  14.840  0.0503  0.0947 -0.2226
24127W        W43661  16.141   9.887   0.116 -0.0215 -0.0842  0.0116
24128W        W43662  10.244   9.377   1.868 -0.1000 -0.1919  0.2597
24129W        W43663  10.285   6.803   3.562  0.0288  0.3040  0.0925
24130W        W43664   4.773   2.617   4.861 -0.0457 -0.0782 -0.0166
24131W        W43665   6.834   3.405  16.479 -0.1614 -0.2148  0.2296
24132W        W43666  15.160  16.594  15.795 -0.6189  0.0761 -0.0946
24133W        W43667   6.434   2.079  12.644 -0.1018 -0.1557 -0.0949
24134W        W43668   8.455   3.601   5.067 -0.1209  0.5110  0.0642
24135W        W43669  10.451  17.132  16.796 -0.1324 -0.2769  0.1075
24136W        W43670  11.605   1.292   2.555  0.1069  0.1041 -0.0796
24137W        W43671   4.144  11.778  13.761  0.0312 -0.1247  0.1858
24138W        W43672   0.474   1.510   4.537 -0.1619 -0.1400  0.1525
24139W        W43673   7.742   9.658  13.661  0.1680 -0.1776  0.2928
24140W        W43674  14.366  14.257   3.726  0.0402  0.1548  0.2464
24141W        W43675   2.457   2.716  16.920 -0.1947  0.0009  0.1022
24142W        W43676  10.978   4.583   5.198  0.0236 -0.1833 -0.2098
24143W        W43677  15.139  15.392  16.323 -0.0269 -0.0137 -0.1473
24144W        W43678  16.931  13.573   3.296 -0.2025  0.2480  0.0365
24145W        W43679  16.748  16.165  12.176 -0.0411 -0.0924 -0.3005
24146W        W43680   3.608  16.108  14.502  0.1464  0.0042 -0.0019
24147W        W43681   3.552  15.720  11.292  0.0423  0.0136 -0.1441
24148W        W43682   5.899  11.570   2.378 -0.0692 -0.1545  0.0262
24149W        W43683   8.585   2.432   3.831  0.0823  0.1526  0.0654
24150W        W43684   7.930   1.183   3.779 -0.0261 -0.0868 -0.1500
24151W        W43685   7.462   2.347  15.766 -0.0312 -0.3143 -0.0158
24152W        W43686  11.969   9.656  13.404 -0.0877 -0.1308  0.0363
24153W        W43687  12.588  16.026  16.055 -0.1284 -0.1663 -0.2150
24154W        W43688   6.331   9.734  13.315 -0.0709  0.1788 -0.2263
24155W        W43689   7.291   4.501   3.142  0.3978 -0.0621 -0.1917
24156W        W43690   7.870   0.997   2.923  0.1368  0.0601 -0.3484
24157W        W43691   3.640  11.643  15.113 -0.1948 -0.2693 -0.1993
24158W        W43692  14.762   3.925  12.428  0.0641  0.1794  0.0156
24159W        W43693   6.145  10.533  13.502 -0.1668  0.0353 -0.0361
24160W        W43694   5.913  16.249   0.795 -0.0122 -0.0152 -0.1497
24161W        W43695   4.551   5.421   0.306  0.4816 -0.4327  0.0666
24162W        W43696  14.214  17.462  12.192 -0.3782 -0.0853  0.3249
24163W        W43697  13.993   5.220   4.391 -0.1066  0.1213  0.1089
24164W        W43698   2.175  15.121  15.507  0.0385  0.0302 -0.1714
24165W        W43699  11.967   1.888  15.233 -0.2516 -0.1628 -0.1109
24166W        W43700  13.083  13.814   4.161 -0.2771  0.0711  0.0432
24167W        W43701   1.108   0.602   2.140  0.2107  0.1547  0.1709
24168W        W43702   8.931   0.294  15.536 -0.1033 -0.0734 -0.0432
24169W        W43703   4.822  16.186  17.118  0.0155 -0.2500  0.1632
24170W        W43704  14.145   1.106  16.139  0.0314 -0.1956 -0.2333
24171W        W43705   5.496  12.472   4.531 -0.0087 -0.1491  0.0349
24172W        W43706   4.953  14.019  12.554  0.2668  0.0449 -0.1066
24173W        W43707   0.385  17.389   0.289  0.1045 -0.1210 -0.0465
24174W        W43708   9.376  16.829  12.708 -0.2679  0.1924 -0.0584
24175W        W43709  13.331  12.620   3.925 -0.2603  0.1303 -0.6540
24176W        W43710   9.346  10.518   4.737 -0.3973  0.1452 -0.0737
24177W        W43711  16.543  13.990  16.665 -0.0727 -0.2462 -0.3235
24178W        W43712   0.132   6.874  14.313  0.1099 -0.0776  0.0731
24179W        W43713  11.496   4.276   3.525 -0.0651 -0.0700  0.1037
24180W        W43714  13.250  14.920  15.616 -0.1560  0.1929 -0.0291
24181W        W43715   3.087   7.712  16.900 -0.1927  0.0842  0.2083
24182W        W43716  14.560  15.019   3.031 -0.0491  0.1054 -0.2819
24183W        W43717   4.830   2.782   4.052 -0.0543 -0.0467 -0.1570
24184W        W43718  12.493   7.740  15.800  0.1462 -0.1068  0.5888
24185W        W43719  13.520   1.703  13.549 -0.1170 -0.1480 -0.0364
24186W        W43720  12.419   3.402  12.500 -0.1332  0.2242 -0.0061
24187W        W43721   9.109  11.790   2.360  0.1969 -0.0693  0.1482
24188W        W43722  16.639   2.381  12.863 -0.0737  0.0656 -0.2636
24189W        W43723   9.598   0.876   4.986  0.1303 -0.1304  0.2635
24190W        W43724  16.378   7.488  17.035 -0.3568  0.2300  0.2629
24191W        W43725   6.943   6.299  13.632  0.0020 -0.0230 -0.1514
24192W        W43726   2.411   4.392   4.748  0.1448  0.0932  0.1413
24193W        W43727  10.923  13.305  16.449 -0.4364 -0.0453  0.2702
24194W        W43728   9.133  12.116  12.800  0.0970  0.0146  0.0674
24195W        W43729  16.132  16.684  15.433  0.1576  0.0259 -0.1343
24196W        W43730   7.411   3.128  14.909  0.3026  0.2896  0.2104
24197W        W43731   6.510   0.093   3.650 -0.1072 -0.0683 -0.0453
24198W        W43732   6.219   8.057  13.412  0.2100  0.2946 -0.2564
24199W        W43733   7.610  12.655   4.415 -0.1248 -0.2595 -0.1454
24200W        W43734   3.724   3.991   3.363  0.0213 -0.0547  0.1334
24201W        W43735   6.952  11.845  16.372 -0.0720  0.3806 -0.1830
24202W        W43736  15.516  10.703  13.116  0.2741 -0.0417  0.2307
24203W        W43737   4.348   7.973   4.602 -0.2520 -0.0860  0.2588
24204W        W43738   3.371   6.276   3.427 -0.1209 -0.0058 -0.5320
24205W        W43739   7.092   1.987   0.781  0.0743 -0.1078  0.0689
24206W        W43740   6.883   9.314   0.440 -0.2394  0.1095  0.0906
24207W        W43741  12.502   1.254   2.079  0.2582  0.1846  0.0656
24208W        W43742  12.542  16.006   3.604  0.2023 -0.0414  0.2709
24209W        W43743   9.934   4.144  13.110  0.1045  0.1108 -0.0825
24210W        W43744   9.424   1.496   3.839  0.0729  0.1626  0.2797
24211W        W43745  11.796   5.682  14.194  0.1027 -0.0599 -0.1357
24212W        W43746  15.683   3.947  13.905  0.1301  0.0370 -0.2159
24213W        W43747  10.553  14.643  13.821 -0.0417 -0.0187  0.0955
24214W        W43748   2.589   2.205   0.340 -0.0097 -0.1823 -0.4611
24215W        W43749  13.701  14.578   1.302 -0.0653  0.0278 -0.0725
24216W        W43750   9.787   1.355  12.246 -0.1491  0.2821  0.0083
24217W        W43751   7.722  12.465   1.012  0.1712  0.1477  0.1812
24218W        W43752   6.320   4.484   1.058 -0.0922  0.1454 -0.2317
24219W        W43753   9.542   6.448  15.135 -0.0080  0.1176 -0.0167
24220W        W43754   3.981   7.659   1.700 -0.5364  0.2426 -0.0058
24221W        W43755  14.706  11.559  16.996  0.1082  0.1879 -0.2631
24222W        W43756   6.301  16.717   2.363 -0.1357 -0.0542 -0.0599
24223W        W43757   4.621  13.539  15.733 -0.0824  0.2110  0.0946
24224W        W43758   9.135   5.463   2.388  0.1521  0.0129  0.3054
24225W        W43759   0.031   3.912   2.901 -0.0550  0.1654 -0.1145
24226W        W43760  15.106   9.484  16.506  0.1898  0.0002 -0.1371
24227W        W43761   9.088   3.539   0.615  0.3761 -0.0289 -0.1097
24228W        W43762   9.874   6.456   0.581 -0.1609 -0.2538 -0.1544
24229W        W43763   8.860   0.500   3.335 -0.1523  0.0167  0.2549
24230W        W43764   7.419  10.810   3.487 -0.0191  0.1282 -0.0505
24231W        W43765   0.359  16.968   3.251  0.0591 -0.1683  0.2130
24232W        W43766  17.440   3.069  15.083 -0.0474 -0.0053  0.0953
24233W        W43767  12.786   3.055  15.556  0.0272 -0.0364  0.5131
24234W        W43768  15.663   3.852  12.400 -0.0239 -0.0254 -0.1141
24235W        W43769   0.711  15.923  14.600 -0.2014 -0.0356  0.0514
24236W        W43770  16.367  16.034   1.386  0.2036 -0.1039 -0.0552
24237W        W43771  12.585   1.306   3.178 -0.0489 -0.1525 -0.2687
24238W        W43772  17.323  11.784   0.216  0.0831 -0.0533 -0.2531
24239W        W43773   5.983   7.713  16.491 -0.0922 -0.0240 -0.2176
24240W        W43774  14.299  14.892  13.766  0.1442 -0.3468 -0.0248
24241W        W43775  15.626  10.019  13.863 -0.2929  0.2040 -0.0520
24242W        W43776   4.602   4.707  12.720  0.0879 -0.2791 -0.1092
24243W        W43777   7.334   5.897   3.232  0.1415  0.0140 -0.0621
24244W        W43778   9.730   3.970   4.047  0.0798  0.0250  0.2053
24245W        W43779   7.540  17.358   4.270 -0.0197 -0.0576 -0.1149
24246W        W43780  13.108   9.811  15.560  0.1360  0.0167  0.0092
24247W        W43781  12.935  13.871   1.817 -0.1987 -0.1450  0.3196
24248W        W43782  13.442   8.774   0.093 -0.2443 -0.1019 -0.1029
24249W        W43783  17.144  17.468   3.221  0.2654  0.0527 -0.0776
24250W        W43784  12.084   0.836  15.852 -0.0444 -0.0146 -0.0839
24251W        W43785  10.450   7.092  16.712  0.1491  0.2324  0.0013
24252W        W43786   9.159   4.889   1.701 -0.0557 -0.4394  0.0099
24253W        W43787  11.180   9.620   0.097  0.1608 -0.3822  0.1703
24254W        W43788   7.293  12.200   2.332 -0.0670  0.0622 -0.1385
24255W        W43789   5.165  11.237  15.114 -0.1529 -0.0427  0.0734
24256W        W43790  10.117   4.653  12.825  0.2434  0.0266 -0.0863
24257W        W43791   2.574  15.061  15.900 -0.0905  0.1912  0.1160
24258W        W43792  10.674  11.916   2.539  0.0564  0.2067  0.2134
24259W        W43793   4.759   0.117   3.006  0.1757  0.0410 -0.0779
24260W        W43794  14.534   8.309  12.887 -0.3989  0.1016 -0.0804
24261W        W43795  10.674  11.285  14.715 -0.0555  0.3314  0.2698
24262W        W43796   0.215  16.540  14.162  0.1580 -0.0211  0.1365
24263W        W43797   6.793   1.114   4.743  0.0656 -0.4992  0.0246
24264W        W43798   7.055   4.877  14.972  0.1948 -0.1622 -0.0406
24265W        W43799  15.224   9.640   1.404 -0.1719 -0.0468  0.0285
24266W        W43800   7.155   2.750   1.176  0.0009  0.3662 -0.1596
24267W        W43801  13.390   2.490   2.719  0.0928 -0.1906  0.3368
24268W        W43802  14.750  10.855   2.173  0.1968 -0.3365 -0.2241
24269W        W43803   5.139  14.258   4.908  0.1248 -0.6755 -0.2061
24270W        W43804   0.703   2.101   2.612 -0.0341 -0.1497 -0.1138
24271W        W43805   6.862  12.831  13.364  0.0686  0.1399  0.0989
24272W        W43806  14.735   3.634   3.253 -0.1526  0.3049  0.1048
24273W        W43807   7.866   8.269   4.178 -0.0163  0.0979  0.1098
24274W        W43808   3.883  15.813   2.463  0.3968  0.2548 -0.2585
24275W        W43809   6.519  16.170  13.097 -0.3723  0.0945 -0.2072
24276W        W43810   7.696  11.834   0.827 -0.0523  0.0402 -0.0350
24277W        W43811  12.154  14.493  15.011  0.0109 -0.1841  0.0012
24278W        W43812   8.677  14.404  14.525  0.2554 -0.1429 -0.0867
24279W        W43813   8.628   7.521  16.333 -0.1154  0.3247 -0.1495
24280W        W43814  16.007  11.691  12.403  0.2296 -0.1298  0.2758
24281W        W43815   9.100   1.101   2.044  0.0954 -0.4214  0.1337
24282W        W43816   0.510  14.755   3.562  0.2091 -0.1060  0.1119
24283W        W43817   8.989   4.812   3.691  0.1023  0.1810 -0.0387
24284W        W43818   5.899   6.092   1.596  0.0423 -0.1878 -0.0086
24285W        W43819  12.898  11.964   5.030 -0.0961  0.2013 -0.0925
24286W        W43820   5.448  16.697   3.614  0.0133  0.1740 -0.0789
24287W        W43821  14.845   4.873  12.599 -0.1120 -0.2249 -0.1877
24288W        W43822   9.858  12.785   1.121 -0.3624 -0.0293  0.0741
24289W        W43823   1.945  14.953   4.101  0.0851 -0.1922 -0.1359
24290W        W43824   6.708   6.794  12.719 -0.0374 -0.1144 -0.1539
24291W        W43825   4.536   4.480  13.897 -0.2770  0.0928  0.1341
24292W        W43826   9.217   7.478  12.981  0.3189 -0.0055 -0.3373
24293W        W43827   4.985   2.836  14.068  0.1206 -0.3774  0.0416
24294W        W43828   2.580  12.734   1.072  0.3068  0.1895 -0.0763
24295W        W43829   3.855  10.415  13.831  0.2112  0.3927  0.1265
24296W        W43830  10.971   6.299   1.991 -0.3669 -0.3383 -0.0311
24297W        W43831  10.355   7.341  15.926 -0.2406  0.0798 -0.3652
24298W        W43832  16.629  12.961  14.057  0.4400 -0.0322 -0.1392
24299W        W43833   2.054   8.627  14.316  0.0935 -0.3208 -0.0684
24300W        W43834   5.218   8.082   4.403 -0.0123  0.1394  0.0982
24301W        W43835  15.371  10.797  15.939 -0.1363  0.0783  0.0030
24302W        W43836   2.031   0.164  15.803 -0.1106 -0.2308  0.0828
24303W        W43837   4.850  15.846   1.461 -0.2941 -0.0267 -0.1269
24304W        W43838   9.862  11.209  13.637  0.1954  0.1481 -0.1954
24305W        W43839   2.510   9.111  16.919 -0.3512  0.1737  0.2095
24306W        W43840  11.642  14.167   0.006 -0.3039  0.0650  0.0573
24307W        W43841  10.656   3.605  14.729 -0.1911 -0.2092  0.1385
24308W        W43842   3.616  17.174   1.460  0.0003 -0.0363 -0.0494
24309W        W43843  15.014   2.038  16.927 -0.1282  0.1224 -0.2313
24310W        W43844   9.063   8.480  14.615 -0.0444 -0.2561  0.0435
24311W        W43845  13.547  17.444  17.055 -0.1785  0.1469 -0.2340
24312W        W43846  11.957  15.479  13.629 -0.1280  0.1121 -0.0035
24313W        W43847   9.458   4.761   4.447  0.2884 -0.0459 -0.2085
24314W        W43848   4.170  16.987  15.540  0.1119  0.2421 -0.1814
24315W        W43849   6.732  10.719   1.734 -0.0510  0.1713  0.0145
24316W        W43850   0.055   7.580  16.109  0.0720  0.0793  0.0508
24317W        W43851   7.087   2.315   3.606 -0.1619 -0.0844  0.0652
24318W        W43852  15.639  16.972  15.298  0.1202 -0.2707  0.1466
24319W        W43853  17.332   4.127   3.485  0.2081 -0.1656 -0.0462
24320W        W43854  13.694   7.028   5.097  0.0455 -0.0889  0.0952
24321W        W43855  16.704   8.011   3.286  0.0227 -0.0298 -0.1439
24322W        W43856   2.822   8.764   4.953 -0.3192  0.1164  0.0511
24323W        W43857   3.546  12.844   4.063  0.2193 -0.1553  0.2763
24324W        W43858   9.687   7.052  12.481  0.2521  0.0673 -0.2147
24325W        W43859   9.411   1.380  13.140  0.0745 -0.1529  0.2960
24326W        W43860  16.443  13.920  15.533 -0.3203 -0.3634 -0.4340
24327W        W43861  13.169  10.304   2.501 -0.0488  0.0280 -0.1345
24328W        W43862  13.702   4.492   4.322 -0.2121  0.0978 -0.0484
24329W        W43863  13.813  15.040   1.528  0.0911 -0.1921 -0.2122
24330W        W43864   0.497  12.053  15.665 -0.1247 -0.2880  0.3690
24331W        W43865   1.643   8.852   2.342  0.2534  0.0926 -0.0224
24332W        W43866  14.238  15.698   1.845 -0.0317  0.1493 -0.2822
24333W        W43867   2.270  17.284   3.616 -0.1010  0.0405 -0.1376
24334W        W43868   9.812   8.275  12.839 -0.2341  0.0000 -0.0479
24335W        W43869   2.120   8.619  15.752 -0.0546  0.0780  0.3483
24336W        W43870  10.907   0.682  12.335 -0.1012  0.2634 -0.1970
24337W        W43871   0.446   5.475   2.450 -0.0830 -0.0472 -0.0911
24338W        W43872  16.997  15.686  13.560  0.2090 -0.0969 -0.1179
24339W        W43873   7.091  16.495  14.564 -0.0443  0.1185 -0.0310
24340W        W43874  14.403   4.073  15.841 -0.3264 -0.0856  0.0420
24341W        W43875  12.327   5.959   3.543  0.0892 -0.0263  0.0544
24342W        W43876  10.990  12.870   4.492  0.2539 -0.0513  0.0402
24343W        W43877  17.444   3.015   3.511 -0.1422  0.2320 -0.0055
24344W        W43878   2.287  15.368   0.655 -0.0852 -0.1319  0.1126
24345W        W43879   5.143   9.448  13.593 -0.1180 -0.0224 -0.0054
24346W        W43880  13.278  16.453  14.214 -0.0230  0.0286  0.2812
24347W        W43881  14.557   1.445  16.111  0.1340  0.0613 -0.3229
24348W        W43882   3.485  15.221  15.820  0.1701  0.1400  0.1207
24349W        W43883   5.915   6.679   0.788  0.0471  0.0865  0.0068
24350W        W43884  11.288   1.997  14.516 -0.1347  0.1440 -0.2666
24351W        W43885  11.694   3.589  16.215  0.1113 -0.0076  0.0108
24352W        W43886   8.259  14.879   0.102  0.0969  0.1443 -0.0153
24353W        W43887   2.638   2.518   1.809  0.1746 -0.2266 -0.2963
24354W        W43888   3.236  16.115   1.603  0.1441 -0.2908  0.0785
24355W        W43889   0.539   3.352  13.017  0.2945  0.2093  0.0822
24356W        W43890  15.495  12.359  16.913  0.1066 -0.2498 -0.0692
24357W        W43891   1.961   7.043   1.637  0.0462  0.1429  0.0725
24358W        W43892  15.227   4.675  14.139 -0.0316 -0.0824  0.0572
24359W        W43893   6.807  15.205   4.125  0.1027 -0.1201 -0.1532
24360W        W43894   7.083   2.480  14.318  0.2939 -0.2126 -0.1275
24361W        W43895   4.828   5.695  17.242 -0.2516 -0.0611 -0.4054
24362W        W43896  12.550  11.521  13.490  0.2808  0.2419 -0.0496
24363W        W43897  17.279  17.022  13.055 -0.0205  0.3548 -0.3121
24364W        W43898  10.102   2.640  15.764 -0.0203 -0.0690  0.0410
24365W        W43899   4.500   1.772  13.379  0.1284 -0.0222 -0.1842
24366W        W43900   4.801   1.254   1.325  0.0930  0.3740  0.3306
24367W        W43901   5.796   7.775   0.751 -0.0213  0.1006  0.0478
24368W        W43902   9.494  14.479   1.415 -0.2019  0.2732 -0.0365
24369W        W43903  10.005   7.354  12.856 -0.2401 -0.0805  0.1599
24370W        W43904  13.179  16.338   2.715 -0.0682  0.3830  0.1023
24371W        W43905  15.803   4.562  17.121  0.1242  0.0538 -0.0046
24372W        W43906   9.815   3.205   3.718 -0.1555 -0.0046 -0.0115
24373W        W43907  15.057  16.557  14.473  0.2139  0.1037  0.0761
24374W        W43908   2.502   3.767   1.369 -0.0504  0.0018 -0.0783
24375W        W43909  17.011  16.099  13.905 -0.3953  0.0795 -0.0833
24376W        W43910   1.018  16.197   4.387 -0.3165 -0.0558 -0.3084
24377W        W43911  12.219   5.765  16.649 -0.2520 -0.3197 -0.0175
24378W        W43912   2.253  16.095   3.452 -0.0104 -0.1058  0.2047
24379W        W43913   4.281   7.477  17.197 -0.2198 -0.1067  0.2363
24380W        W43914  13.828   9.574   0.562 -0.1073 -0.2325  0.1153
24381W        W43915   1.364  10.488  16.745 -0.1043 -0.2763 -0.1995
24382W        W43916   1.497  14.280  17.120 -0.0826 -0.0107  0.0719
24383W        W43917   7.183   1.492  12.255 -0.3450  0.0205  0.1776
24384W        W43918   5.352   5.734  16.497 -0.1309  0.2085  0.2169
24385W        W43919   4.644   0.149  14.863 -0.2016 -0.2006 -0.3143
24386W        W43920  12.403   0.107   3.021  0.1142  0.0723  0.3064
24387W        W43921  16.010   5.995  12.829  0.0435  0.0717  0.1787
24388W        W43922  13.401  13.707   5.055 -0.0343 -0.0617  0.0017
24389W        W43923   8.917   4.948   0.729 -0.4495 -0.0563  0.0685
24390W        W43924  11.140   0.390   2.382 -0.2149  0.1031 -0.0118
24391W        W43925   7.890   1.060  16.579  0.1222 -0.2422  0.0765
24392W        W43926   9.133   7.653  13.998  0.4369 -0.2591  0.2782
24393W        W43927  13.868   5.034  16.959  0.2464  0.1538 -0.3001
24394W        W43928  11.499   1.566   3.486  0.1976  0.1294  0.0519
24395W        W43929  11.486   5.255   2.192 -0.1602  0.0019 -0.3902
24396W        W43930   3.599  12.439   0.928  0.2556 -0.2286  0.1472
24397W        W43931  11.864   2.097  13.652  0.0563 -0.0610 -0.0605
24398W        W43932   9.747  13.651   1.290 -0.1206  0.2796  0.0730
24399W        W43933   9.651  15.157  12.123 -0.0530 -0.3244  0.0558
24400W        W43934   3.970  10.873  14.197 -0.1993  0.1398  0.0068
24401W        W43935   7.480   2.675  14.703 -0.1689  0.0434  0.3556
24402W        W43936   5.227   5.816   0.889  0.1015  0.2663 -0.0888
24403W        W43937  15.272  13.192  13.909  0.4164  0.1670 -0.0394
24404W        W43938   5.661  11.172  14.754  0.0828 -0.1137  0.1907
24405W        W43939  16.617  14.646   1.730  0.0916  0.3032 -0.0239
24406W        W43940   0.352  15.007  12.468 -0.1719 -0.2037  0.3378
24407W        W43941  14.434  13.468   1.303 -0.0146  0.0267  0.0318
24408W        W43942   2.505   9.459  13.042  0.1155  0.0729 -0.3786
24409W        W43943   8.399   4.267  13.536  0.2395 -0.2640 -0.0483
24410W        W43944   2.402   7.354  15.107  0.0114  0.1785 -0.0214
24411W        W43945  13.830   2.930   2.072 -0.0187 -0.0398 -0.1790
24412W        W43946   6.107  13.619   1.749 -0.0222  0.3826 -0.0669
24413W        W43947   8.893  11.624  14.722 -0.1758 -0.2553 -0.0984
24414W        W43948  14.199   3.898   4.077  0.0417  0.0697  0.0675
24415W        W43949  10.006   7.802  12.660  0.3500 -0.2068 -0.0013
24416W        W43950   8.479   3.361   2.350 -0.2554 -0.0203  0.0329
24417W        W43951   9.292   1.801  13.881 -0.1900 -0.3017  0.1292
24418W        W43952  11.023   8.157  13.456  0.3039  0.1083  0.4011
24419W        W43953   5.866  12.383   0.629  0.0694  0.4851 -0.0461
24420W        W43954  14.610   5.164  14.615 -0.1706  0.3587  0.3653
24421W        W43955   7.518   5.266   3.157  0.1713 -0.0780  0.0004
24422W        W43956   1.707   8.673  15.225 -0.0549  0.2000 -0.1087
24423W        W43957  10.812  15.725   1.906 -0.0232 -0.0852 -0.2352
24424W        W43958  14.873   5.474   2.158  0.1890  0.1785  0.2054
24425W        W43959  13.997  12.645   0.977 -0.1013  0.1953  0.1833
24426W        W43960   5.073  15.393  16.755 -0.0562 -0.0514  0.0924
24427W        W43961  13.063   1.972  13.469 -0.0334 -0.2006  0.0641
24428W        W43962  11.028  13.413   4.643  0.0011  0.0054  0.1419
24429W        W43963   4.303   3.996  16.189 -0.2548  0.0243 -0.1344
24430W        W43964   3.129   1.367  12.089  0.0220  0.0894  0.4377
24431W        W43965  16.042   8.610   2.857  0.1628 -0.2374  0.1140
24432W        W43966  15.680   3.865  16.012  0.1024  0.0038 -0.4978
24433W        W43967   3.153   8.429   4.485  0.0366  0.0123  0.0847
24434W        W43968   3.595  17.458   4.504 -0.0488 -0.0045  0.0049
24435W        W43969  16.040  15.888   2.285  0.0290 -0.0152 -0.0684
24436W        W43970   5.150   6.412   2.328 -0.1839  0.1524 -0.0469
24437W        W43971   8.153  12.536   2.728  0.1189  0.0133  0.1392
24438W        W43972  12.337   4.463   3.633 -0.0593  0.0850  0.5070
24439W        W43973   1.579   4.074  17.215  0.3163 -0.0629  0.2619
24440W        W43974   7.328  15.197   4.975  0.1487  0.1503  0.0317
24441W        W43975  10.382   4.308   0.825  0.2350 -0.1859 -0.1145
24442W        W43976   9.614   5.519  15.310  0.1142  0.2086  0.0359
24443W        W43977   4.639   7.972  13.722 -0.2527 -0.2619 -0.0077
24444W        W43978  16.579  14.046   0.766 -0.2646  0.0385 -0.2723
24445W        W43979  14.514  11.384   0.193  0.0402  0.0520 -0.1161
24446W        W43980   6.171   6.916  12.743  0.0298 -0.2889  0.0272
24447W        W43981   3.145  13.190   0.315  0.3218  0.3483  0.2456
24448W        W43982   8.824   8.154   2.586 -0.0315 -0.3057  0.0702
24449W        W43983   6.125  10.201  13.039 -0.0221  0.2010  0.0868
24450W        W43984  11.413   8.101  14.325  0.0510  0.1759  0.2698
24451W        W43985   9.446  14.596   2.575 -0.1136 -0.0499 -0.2707
24452W        W43986   3.663  13.244  15.822 -0.0351  0.1731 -0.0498
24453W        W43987  13.093  16.952   2.361 -0.1654  0.1130  0.0388
24454W        W43988   2.764  10.694  13.393 -0.0037 -0.2508 -0.2582
24455W        W43989  17.078  15.948  13.130  0.0589  0.2403  0.0511
24456W        W43990  17.448   5.144   0.752  0.2639  0.0927 -0.3988
24457W        W43991   8.433   7.952   2.854  0.0602  0.0235  0.1852
24458W        W43992  15.394   4.464  14.728 -0.1259  0.1134  0.1550
24459W        W43993  17.291   5.947   0.515 -0.0215 -0.3255  0.1499
24460W        W43994   1.795   2.468  12.435  0.0340 -0.0737 -0.0115
24461W        W43995   0.368   2.296  16.776  0.0311  0.1944  0.3312
24462W        W43996  13.191  15.611   3.094 -0.1452 -0.2230  0.1770
24463W        W43997  14.024   3.823  12.343  0.0651  0.0730 -0.0246
24464W        W43998   9.270   6.191   4.522 -0.1319 -0.0908 -0.1145
24465W        W43999   8.045   5.518   1.105 -0.0248  0.1816  0.0636
24466W        W44000  16.986  11.746   4.232 -0.2322  0.2310 -0.2268
24467W        W44001  14.952   2.592  16.698 -0.1227 -0.2958  0.0249
24468W        W44002  11.246  16.797   2.622 -0.3725  0.1571  0.2642
24469W        W44003   8.960   8.601  12.523 -0.1357 -0.2305  0.2986
24470W        W44004   6.161  17.210   2.826 -0.0643 -0.0975  0.0992
24471W        W44005   2.239   8.522   1.109  0.1732 -0.0987  0.1469
24472W        W44006  10.543  17.159   4.575 -0.0883 -0.0119  0.2616
24473W        W44007   0.853  16.691   2.155 -0.2047  0.2008 -0.0599
24474W        W44008   2.215  11.619  14.210 -0.1280 -0.1613 -0.1592
24475W        W44009   8.748  11.352   2.260  0.1998 -0.2413 -0.2347
24476W        W44010   7.639  12.413  12.417  0.0651  0.0146  0.0579
24477W        W44011  12.532  17.134  15.990  0.2033 -0.0246 -0.1052
24478W        W44012   1.940  16.007  15.091 -0.0850 -0.2483 -0.0339
24479W        W44013  10.051   1.316  12.718 -0.2087  0.0003 -0.2088
24480W        W44014  12.699  13.441  16.544 -0.1904 -0.0098 -0.0692
24481W        W44015  16.403  12.258   3.933 -0.0554  0.1131  0.2822
24482W        W44016  12.227   3.092  15.526  0.1368 -0.0363  0.0434
24483W        W44017  16.140   3.856   1.607  0.0055  0.1304 -0.0393
24484W        W44018  16.962  11.384   4.635 -0.1071 -0.0728  0.0550
24485W        W44019   6.630   7.235   3.406  0.2957 -0.3970  0.2023
24486W        W44020  12.487   3.610   1.136  0.0160 -0.1448  0.0332
24487W        W44021   3.280  13.279   0.760  0.0758 -0.1726 -0.1813
24488W        W44022  15.987  13.778  15.284  0.0960  0.0076 -0.1551
24489W        W44023   9.938   7.645   4.400 -0.0383 -0.1616  0.1051
24490W        W44024   9.595   3.296  14.920  0.1436 -0.2222  0.1133
24491W        W44025   4.204  14.506   2.290 -0.3041  0.3957 -0.1396
24492W        W44026  13.587   2.495   2.240 -0.3805 -0.2566  0.2710
24493W        W44027   4.905  17.475   2.196  0.1193 -0.0103 -0.0679
24494W        W44028   8.865   0.238  11.388 -0.0684  0.0953 -0.1320
24495W        W44029   3.100   7.059  12.614 -0.0313 -0.0682 -0.1475
24496W        W44030   4.047   8.384   2.426  0.1770 -0.0445  0.2266
24497W        W44031  17.284  16.785  14.343 -0.0617  0.2625  0.1946
24498W        W44032   0.382  14.436   1.346  0.0696 -0.0055  0.2223
24499W        W44033  16.934   5.012  16.549  0.1028  0.4250  0.0086
24500W        W44034  16.206   2.134  15.667  0.1253  0.1223  0.1127
24501W        W44035   4.448  15.480   5.288 -0.1332 -0.1255  0.0581
24502W        W44036   1.559  14.361  12.154 -0.1251  0.2237  0.0637
24503W        W44037   6.838   8.972   2.542 -0.4107 -0.1809 -0.0935
24504W        W44038   3.830   8.166   3.858  0.1013  0.0297 -0.1533
24505W        W44039   0.670   9.919   4.173 -0.0806  0.1347 -0.4539
24506W        W44040  11.590   2.928   0.834  0.0115 -0.0917 -0.2667
24507W        W44041  11.267  14.201   3.229 -0.2995  0.1537  0.2438
24508W        W44042  16.351   1.573  13.890 -0.0851 -0.1293  0.1917
24509W        W44043   9.780  11.182  15.628 -0.0772  0.0549  0.1624
24510W        W44044  13.980   0.192  16.428 -0.0518 -0.1971  0.2951
24511W        W44045  11.650   5.088   5.319  0.0476  0.0291  0.0313
24512W        W44046  10.400  15.730  14.355 -0.2125  0.0030  0.3744
24513W        W44047   7.621  14.338   3.772  0.0703 -0.6466 -0.1059
24514W        W44048  11.849   9.412  15.556 -0.2553  0.0840  0.2144
24515W        W44049   1.956  15.419   1.081  0.0365  0.0630 -0.0188
24516W        W44050  15.205   8.154   2.442  0.0568 -0.1587  0.1432
24517W        W44051   8.577  16.840  13.823 -0.1759 -0.0057 -0.1461
24518W        W44052   1.123   0.288  16.015 -0.2293  0.2635  0.3054
24519W        W44053   7.689   4.631  16.274  0.0092 -0.0535  0.3035
24520W        W44054  12.011  11.325  14.919  0.0142 -0.1401  0.0665
24521W        W44055   3.082  15.981  14.669 -0.2240  0.1804 -0.0035
24522W        W44056  12.291   8.628   0.417  0.0408 -0.0061 -0.0279
24523W        W44057   8.133  10.569   2.449 -0.1913 -0.1228  0.0235
24524W        W44058   9.865   2.699   1.446 -0.2053 -0.3072  0.0764
24525W        W44059   5.867  14.558  17.090 -0.0411 -0.0744  0.2958
24526W        W44060  10.638   2.714   5.049  0.0263  0.1630 -0.1142
24527W        W44061  16.733   4.322   3.059  0.4371  0.1087  0.1601
24528W        W44062   0.295   2.857  15.462 -0.1627  0.0422 -0.2775
24529W        W44063  11.759  17.067   3.225 -0.1041 -0.3100 -0.0656
24530W        W44064   9.543   4.652  12.726  0.0147  0.3294 -0.2681
24531W        W44065  13.563   2.062   3.036  0.0312  0.0374  0.0474
24532W        W44066   9.456  11.611  14.930  0.1882  0.2009  0.0505
24533W        W44067   1.661  14.499  13.996 -0.2343  0.2469 -0.0074
24534W        W44068  17.460  15.894  13.532 -0.1992  0.1241 -0.0926
24535W        W44069   8.440   2.639  14.982 -0.0578 -0.1868  0.1807
24536W        W44070   2.710   5.127  15.667 -0.1977  0.2300 -0.1504
24537W        W44071   5.764  10.235  13.667 -0.2382  0.1869  0.0824
24538W        W44072  10.207   4.868  16.303  0.1828 -0.1979  0.2996
24539W        W44073  13.387  12.299   4.721  0.0758 -0.0175  0.0172
24540W        W44074   2.003   4.091  15.568 -0.3185  0.3221  0.0392
24541W        W44075   1.865  17.068  14.982  0.0027  0.0552 -0.2088
24542W        W44076   1.358   8.231  16.466  0.2173  0.2561 -0.0641
24543W        W44077   6.108   3.638   1.484 -0.1784 -0.0097  0.2333
24544W        W44078   2.857  14.752  12.479 -0.2676 -0.2531 -0.0662
24545W        W44079   6.844   0.341  16.538  0.3547 -0.1858  0.1432
24546W        W44080   5.286  13.282  13.003 -0.2372  0.2862 -0.1103
24547W        W44081   6.354   8.970  12.585  0.2160 -0.1216  0.3747
24548W        W44082  12.271   6.148  16.291  0.0621 -0.0972  0.1329
24549W        W44083   4.484  17.192  14.667  0.1420 -0.1569  0.1181
24550W        W44084  11.864   7.364   0.120  0.0053 -0.0608 -0.0187
24551W        W44085   5.035  10.782  15.613  0.2668  0.0692 -0.1698
24552W        W44086   1.936  10.344   2.196 -0.0425 -0.0041 -0.1650
24553W        W44087  16.215   5.815   5.251 -0.0921 -0.1874  0.1683
24554W        W44088   7.467   7.477   2.314 -0.1686 -0.1010  0.1680
24555W        W44089  16.435   7.466   2.050 -0.0422  0.3585 -0.2917
24556W        W44090   7.934  10.136  13.054 -0.2146 -0.0382  0.2399
24557W        W44091  14.890  15.034  14.391  0.2535  0.1151  0.1118
24558W        W44092   5.206   2.566  15.902 -0.2011 -0.0076  0.1918
24559W        W44093  15.947   7.749   1.969 -0.0968 -0.1082 -0.4218
24560W        W44094   3.387  15.704  11.870 -0.2291  0.1626 -0.4044
24561W        W44095  11.518   7.917   1.758 -0.2244  0.0249 -0.1186
24562W        W44096  10.675  16.825  14.573 -0.0452  0.2622  0.2640
24563W        W44097   7.450  10.648  16.680 -0.0781  0.1176  0.0776
24564W        W44098  10.228   6.829   4.781 -0.0291 -0.1517  0.2443
24565W        W44099   4.291   1.556  14.103  0.0820 -0.1964  0.0281
24566W        W44100   9.694   3.653   3.546 -0.0100 -0.2463  0.2064
24567W        W44101   7.057   3.941  13.523  0.3581  0.1171  0.2563
24568W        W44102   4.755   8.760   1.644 -0.1225  0.2084  0.2576
24569W        W44103  13.658  15.511  14.243  0.1839  0.0197  0.1561
24570W        W44104   6.926  14.365  16.556  0.1452 -0.0223 -0.1966
24571W        W44105   2.954   7.871  14.387 -0.0325 -0.1384 -0.3873
24572W        W44106   1.067   8.550  13.153  0.0856 -0.3136  0.2033
24573W        W44107  11.505   0.004   3.318 -0.1791  0.0129  0.2868
24574W        W44108   6.154   8.224  16.342  0.0706  0.0071  0.1824
24575W        W44109   0.919   5.417   4.201 -0.2932 -0.1108  0.1596
24576W        W44110   0.122  13.217  12.078 -0.1822 -0.1292  0.3642
24577W        W44111   3.781   9.636   2.054 -0.1569  0.0936  0.0445
24578W        W44112   4.347  16.560   3.678  0.0482 -0.1007 -0.0246
24579W        W44113  17.182  10.578   2.740  0.2783  0.0952  0.1189
24580W        W44114  13.006  12.983  16.894 -0.0868  0.0183  0.0386
24581W        W44115  14.622  11.799  14.506 -0.3139 -0.1543 -0.1165
24582W        W44116   2.327   2.516   4.993  0.0048 -0.1935 -0.2566
24583W        W44117  11.420   3.989   0.585 -0.0924 -0.0733 -0.2477
24584W        W44118  17.465  11.186   2.153 -0.0628  0.0874  0.0348
24585W        W44119   5.989   8.621   4.242  0.1875 -0.2025 -0.0350
24586W        W44120  16.825  15.268  13.138  0.1694 -0.1421  0.2866
24587W        W44121  10.989  10.999   2.729  0.1792 -0.0041  0.2325
24588W        W44122  10.264  15.199  12.310 -0.2830  0.1025  0.1073
24589W        W44123  12.484   8.019   0.397  0.1881 -0.1515 -0.1247
24590W        W44124   2.119   7.767  14.913 -0.1323  0.1259 -0.1048
24591W        W44125   0.054   2.114  13.803 -0.2153 -0.0788  0.1212
24592W        W44126   4.213   2.558   4.726 -0.0833 -0.1102 -0.0651
24593W        W44127  17.256   3.410  15.411  0.2875  0.0584  0.0661
24594W        W44128  17.039  13.710   5.872 -0.3244 -0.1425  0.3677
24595W        W44129  16.215  17.316  15.931 -0.0430  0.1097 -0.1156
24596W        W44130   0.783  10.448   3.087 -0.1040 -0.0876  0.2543
24597W        W44131  12.308   4.309   2.338 -0.0735  0.0839  0.2217
24598W        W44132   3.962  11.011   0.763  0.1447  0.2267 -0.0169
24599W        W44133   8.084   2.619   1.603 -0.1049  0.0487  0.3567
24600W        W44134   8.511  16.845   5.172 -0.2819 -0.1511  0.0595
24601W        W44135   4.617   4.339   1.214  0.0606 -0.0659  0.2182
24602W        W44136   5.132   7.338  14.459 -0.1811 -0.0714  0.2905
24603W        W44137   4.601   7.146  14.660  0.1457  0.0251  0.1937
24604W        W44138   2.382  10.211  16.998  0.3148 -0.5169 -0.1270
24605W        W44139  15.568  13.396   4.244 -0.1300  0.1193  0.1343
24606W        W44140   8.679  15.617   1.828 -0.1730  0.1005 -0.2058
24607W        W44141   5.697  12.862   1.482  0.0109  0.0032 -0.0955
24608W        W44142  13.500  11.276  15.408 -0.3084 -0.1774  0.1833
24609W        W44143  14.216  14.606   3.031  0.0300  0.1085  0.3218
24610W        W44144   2.392   0.759  17.264  0.1811  0.0857  0.1706
24611W        W44145   4.368  16.056  17.207  0.0385 -0.2826  0.2572
24612W        W44146  15.543  13.256  16.624 -0.1114  0.2726  0.1102
24613W        W44147   7.027   0.855  16.551 -0.0275 -0.1055  0.3343
24614W        W44148  16.532   7.987  13.306 -0.0183 -0.1633 -0.0629
24615W        W44149   3.729   4.787   3.328 -0.3277  0.1002  0.3491
24616W        W44150  10.470  11.217   0.700  0.0215  0.0030 -0.1948
24617W        W44151  17.423   9.122  13.805 -0.1107 -0.0555  0.0502
24618W        W44152   4.952   4.348   0.713 -0.1822  0.1351  0.5137
24619W        W44153   2.292  15.278   3.844 -0.2245  0.1505 -0.0247
24620W        W44154  13.448  10.721   2.281  0.2129 -0.2578  0.0020
24621W        W44155  10.641   2.240   2.063  0.2722  0.0528  0.2287
24622W        W44156  11.583  14.411   0.760  0.1568 -0.0792 -0.0154
24623W        W44157   6.325   0.663  13.413  0.1008  0.0063 -0.2014
24624W        W44158  15.969  15.245   2.684 -0.1649  0.0809  0.0649
24625W        W44159  10.844   8.392   1.496  0.0472  0.0793  0.0439
24626W        W44160   5.358   5.158   3.973 -0.3577  0.0594 -0.0965
24627W        W44161  16.217   6.642  15.971 -0.0620 -0.1789  0.2273
24628W        W44162   8.229   0.123   0.478  0.1587 -0.1141  0.0290
24629W        W44163   5.474   0.937  13.906  0.2409 -0.1864  0.0315
24630W        W44164  10.353   5.771  14.299  0.1252  0.2506  0.1721
24631W        W44165  15.142   2.306  15.794 -0.0140  0.0404  0.2420
24632W        W44166   0.865  15.183   2.017  0.1976 -0.1128  0.2033
24633W        W44167  13.424   4.825  13.291 -0.0675 -0.1321  0.0956
24634W        W44168  17.420  11.299  15.632  0.2089 -0.1005  0.0610
24635W        W44169   6.805  10.369  14.449  0.0471  0.0504  0.0366
24636W        W44170  14.079  16.643   2.806  0.0221 -0.1408 -0.2813
24637W        W44171   3.302   8.261   0.081 -0.0115  0.1089  0.0889
24638W        W44172   5.289  16.859   0.495 -0.1065 -0.1101  0.0813
24639W        W44173   5.893   0.807   3.760  0.0193  0.1146  0.0963
24640W        W44174   5.509  15.851   4.785  0.0653  0.0258  0.0422
24641W        W44175  17.450   9.420   0.826  0.2735  0.1619 -0.0756
24642W        W44176   9.506   6.778   1.444 -0.0253 -0.0279  0.1125
24643W        W44177  16.532  13.880   4.353  0.2478 -0.2030 -0.3970
24644W        W44178  11.902   8.887   0.186  0.1118  0.0237 -0.0638
24645W        W44179  15.684   6.550  15.730  0.0574  0.2258 -0.2753
24646W        W44180   2.522   8.603  16.110  0.2620  0.1727 -0.0012
24647W        W44181  16.977   3.875  13.037  0.3089  0.0721 -0.0538
24648W        W44182  10.986   1.290  13.141  0.1400 -0.0986 -0.2306
24649W        W44183  17.051  16.548   1.661 -0.2656  0.1098 -0.2475
24650W        W44184   5.242   6.623   0.149 -0.0737  0.0128 -0.2219
24651W        W44185  12.791   0.462   1.590  0.3203 -0.2116 -0.6987
24652W        W44186   0.478  10.405   3.469  0.1923  0.2485 -0.2240
24653W        W44187   8.535  12.405  15.631  0.0254 -0.1287 -0.0928
24654W        W44188  17.021   2.199   5.522 -0.1458  0.3645 -0.1768
24655W        W44189   4.978  10.124  14.829 -0.0655  0.1071 -0.0674
24656W        W44190   0.412  10.448  16.817 -0.1079  0.2709  0.3366
24657W        W44191  14.190  10.288   3.867  0.0991 -0.1144 -0.2991
24658W        W44192  12.243   3.048  13.685 -0.2693 -0.0186  0.1974
24659W        W44193   0.551  15.128   0.008  0.2248  0.0231 -0.2924
24660W        W44194   1.942  14.696   5.064  0.2098  0.0480 -0.0719
24661W        W44195   9.329  11.256  15.925 -0.2399 -0.0478 -0.1889
24662W        W44196   7.906  14.850  16.351 -0.0485  0.0126 -0.1476
24663W        W44197   7.076   5.503  13.043  0.0697  0.0919  0.4001
24664W        W44198  16.413  15.990  14.088  0.0946  0.1418  0.0252
24665W        W44199   9.512   2.104  13.039  0.0713  0.1150 -0.0308
24666W        W44200   6.985  15.592  16.165  0.2104  0.1900 -0.1127
24667W        W44201   0.598   6.715  14.358 -0.1030  0.0067 -0.1751
24668W        W44202   8.514  10.564   0.156 -0.1766  0.0283  0.0771
24669W        W44203  14.377   2.190  13.095 -0.1451 -0.1296 -0.1876
24670W        W44204  10.654   4.805   0.104 -0.4880  0.0801 -0.0246
24671W        W44205   7.316  12.505   2.725 -0.0083  0.3212 -0.0271
24672W        W44206  16.056   9.068  11.907 -0.1249 -0.1677 -0.0042
24673W        W44207   1.833  10.059   2.675  0.0221  0.2199  0.0888
24674W        W44208   5.979  13.824  16.446  0.0651  0.1455 -0.0420
24675W        W44209  14.151   3.080   5.062 -0.3234  0.1922 -0.3642
24676W        W44210  15.605   8.100   4.741 -0.0471 -0.0902 -0.2135
24677W        W44211   7.778   5.111   3.606 -0.0916 -0.1431 -0.2622
24678W        W44212  11.992   6.950   3.421 -0.0314 -0.0021 -0.0761
24679W        W44213  11.713   8.209  12.373 -0.0333 -0.2886 -0.1257
24680W        W44214   6.722   6.106   3.879 -0.2939 -0.0578  0.1357
24681W        W44215   7.930   0.314   2.087  0.0027 -0.2396 -0.1090
24682W        W44216   3.374  14.465   2.231 -0.4017 -0.3005  0.2380
24683W        W44217   6.926   6.067  14.043  0.1756 -0.0264 -0.0508
24684W        W44218  11.663  13.765   0.792 -0.1212 -0.0392 -0.1452
24685W        W44219   9.279  11.954   5.182 -0.0614 -0.2855 -0.1466
24686W        W44220  10.939   5.567   0.821 -0.1287 -0.1548 -0.2126
24687W        W44221   2.200   2.392   3.506 -0.0108 -0.0002 -0.1955
24688W        W44222   4.503  11.426  17.109 -0.0074  0.2615 -0.1129
24689W        W44223  12.767  15.618  13.187  0.0929  0.0169  0.0109
24690W        W44224   6.236   8.333   1.547 -0.2154 -0.3022  0.2984
24691W        W44225  12.276  15.510  12.537  0.2189 -0.3228 -0.1136
24692W        W44226   7.614   5.105   5.175 -0.0371  0.0990 -0.3506
24693W        W44227  13.316   2.420  14.720  0.0792  0.1411 -0.2183
24694W        W44228  12.372   4.083  16.589  0.0631 -0.0432  0.1185
24695W        W44229   4.467   4.278   1.760 -0.0042 -0.1966 -0.1008
24696W        W44230  14.060  17.078   1.387  0.3600 -0.1875  0.4255
24697W        W44231   9.580  12.901  15.449 -0.0951  0.0132 -0.0001
24698W        W44232  10.922   7.257  16.959  0.1433  0.0803 -0.2491
24699W        W44233   0.899  11.665  16.386 -0.1879  0.0883  0.0983
24700W        W44234  14.837   3.161   3.142  0.0158 -0.0817  0.0740
24701W        W44235  15.859  15.845  15.895 -0.0779 -0.1247 -0.0312
24702W        W44236   7.309  13.573  16.111  0.0715 -0.0025 -0.1069
24703W        W44237   8.941   7.337   0.680  0.0327  0.1251 -0.2141
24704W        W44238  15.017  14.024  15.527 -0.1327 -0.1339 -0.1763
24705W        W44239  10.634   6.083  14.018 -0.0220  0.3290  0.1640
24706W        W44240   6.223   6.507   0.377 -0.0375  0.0305  0.0903
24707W        W44241   3.796  15.779  14.974  0.1169  0.0472  0.0924
24708W        W44242  11.905   7.936  16.744  0.1354  0.3378  0.0446
24709W        W44243   8.939  12.244   2.030  0.2156  0.1595  0.1998
24710W        W44244   5.608   0.302  14.291 -0.1136 -0.2661  0.2602
24711W        W44245   7.270   0.940   2.658 -0.0705  0.1961 -0.1182
24712W        W44246   9.751   1.541   2.643 -0.0200 -0.0011  0.2164
24713W        W44247  15.828  10.139   3.211  0.0019  0.2553 -0.3723
24714W        W44248  15.609   8.543  16.264  0.2424 -0.2335 -0.0289
24715W        W44249  14.065   2.653  12.288 -0.2249 -0.0717  0.1610
24716W        W44250   3.304  14.939  17.224 -0.2292  0.1583 -0.1602
24717W        W44251   9.606   3.591   4.510 -0.0337  0.0905 -0.0173
24718W        W44252  15.505   0.413  13.007  0.1392  0.4257  0.2267
24719W        W44253   1.095  11.547  14.230 -0.2068  0.0719  0.2469
24720W        W44254  11.814   1.869  16.212  0.1049 -0.0818  0.0520
24721W        W44255  10.319   2.204  14.462  0.0112 -0.0962 -0.0797
24722W        W44256   0.943  13.784   4.590  0.0703 -0.1068 -0.1247
24723W        W44257   5.095  12.625   0.311  0.0330  0.0192 -0.0605
24724W        W44258  11.773   2.512  13.361  0.1246 -0.0747 -0.0966
24725W        W44259   5.142   1.484  15.030  0.0780  0.1163 -0.5022
24726W        W44260   2.647  13.133   3.884 -0.1082 -0.0936  0.0772
24727W        W44261  12.589   1.590  14.710  0.0562 -0.1901  0.1283
24728W        W44262   3.912   4.842   1.161  0.0790  0.1044  0.0000
24729W        W44263   5.089   8.186  12.825  0.2724  0.0428 -0.0279
24730W        W44264  15.968  14.247   3.499  0.0364 -0.0334 -0.1935
24731W        W44265  14.685   6.131   6.320 -0.0732  0.1396 -0.4002
24732W        W44266  13.530   0.230  14.648 -0.3667  0.0821  0.1625
24733W        W44267  10.661  15.929  13.914 -0.1443  0.0924 -0.0213
24734W        W44268   5.266  11.983   3.078 -0.1433 -0.0129 -0.1156
24735W        W44269  14.836  12.632  12.199  0.2253 -0.2192  0.1251
24736W        W44270   4.146   4.878   4.140 -0.2754  0.0923  0.0494
24737W        W44271   6.366   5.395   1.335 -0.1503 -0.0126 -0.0353
24738W        W44272  16.386   5.649  16.428  0.2134  0.4237 -0.1839
24739W        W44273  13.377   0.846   0.242  0.0033 -0.0915 -0.0571
24740W        W44274   8.104  11.339  14.652 -0.1904 -0.0041 -0.1910
24741W        W44275   4.505  17.119   0.922 -0.0816  0.1908 -0.1156
24742W        W44276   0.686   0.257   4.088  0.0353 -0.2082 -0.1775
24743W        W44277   1.034  16.126  14.901  0.1073  0.1066 -0.2581
24744W        W44278   9.927  13.863  14.193 -0.1920  0.1044 -0.0653
24745W        W44279   6.318  15.578  13.743  0.0126  0.1481  0.0151
24746W        W44280   1.343  17.194  17.162  0.1979  0.3170  0.1388
24747W        W44281   2.093   1.137  15.201 -0.2348  0.0865  0.3046
24748W        W44282  10.335   3.011   1.034 -0.0858 -0.0506  0.1410
24749W        W44283  13.925  14.782   0.923  0.2027  0.0483 -0.1881
24750W        W44284  17.049   2.558   4.853 -0.0790  0.2538  0.0574
24751W        W44285  10.250   3.395   3.794  0.0170 -0.1574 -0.3819
24752W        W44286  12.751   5.696  12.890  0.0494 -0.3046 -0.0313
24753W        W44287   6.217  16.217   3.640  0.2011  0.2802  0.1298
24754W        W44288   6.086   6.917  16.902  0.0405 -0.0634 -0.1172
24755W        W44289   7.410  10.902  14.688  0.4242  0.1103  0.1772
24756W        W44290   2.767  17.412  12.460 -0.2916  0.2779  0.1705
24757W        W44291   2.559  14.548  11.496 -0.2746  0.0100 -0.4591
24758W        W44292   5.932   6.442  12.682 -0.1032 -0.3100  0.0692
24759W        W44293   9.183   3.450  15.142  0.2243 -0.1919  0.2775
24760W        W44294   1.309   7.800  11.354 -0.2220  0.1341  0.4382
24761W        W44295  16.984   5.960  15.366 -0.0486 -0.0555  0.2035
24762W        W44296   5.999  14.525   3.804  0.1217  0.0304  0.2215
24763W        W44297   0.486  13.670  15.256  0.1678 -0.0363 -0.2404
24764W        W44298  16.057   2.771   4.224 -0.1212 -0.0824  0.2068
24765W        W44299  12.955  15.055   0.469  0.0777  0.1272  0.0623
24766W        W44300   1.297  10.469   4.793 -0.0366 -0.2986  0.0149
24767W        W44301   0.819   8.363   4.047 -0.0959  0.0317 -0.1621
24768W        W44302   7.062  13.987  16.151  0.0748 -0.3434  0.1389
24769W        W44303  15.358  17.059  15.785 -0.1513 -0.1411 -0.0849
24770W        W44304   5.950  10.053  16.570 -0.0185 -0.1705 -0.0973
24771W        W44305   8.491  11.300  16.525  0.3783  0.3317 -0.0765
24772W        W44306   1.307   1.052  12.066  0.2824 -0.0968 -0.1919
24773W        W44307  10.260   6.841  15.573 -0.0847  0.0610  0.2546
24774W        W44308  11.025  13.806   2.926  0.1407  0.1995  0.1653
24775W        W44309   6.867  10.990  14.857 -0.0953 -0.0278  0.2090
24776W        W44310   8.194   5.517   2.839 -0.1195 -0.0857  0.2443
24777W        W44311  17.293   0.879  15.086 -0.1096  0.0577 -0.0625
24778W        W44312   8.489  15.238  16.486 -0.0536  0.0641  0.1123
24779W        W44313   2.736   1.604  14.062  0.1777  0.5268  0.0751
24780W        W44314   0.498   5.929   1.159  0.3418  0.1847  0.2143
24781W        W44315  17.433   9.097  16.698  0.0172 -0.0260 -0.2333
24782W        W44316  15.872  16.422  12.921 -0.0198  0.1634  0.3813
24783W        W44317   8.651  14.230  12.361  0.2364 -0.1652  0.3830
24784W        W44318   5.138   8.620  14.918  0.0381 -0.0263  0.0210
24785W        W44319   0.032   1.134  12.856  0.3095  0.1170 -0.1191
24786W        W44320  15.957  12.564   3.897  0.0139  0.2994  0.2819
24787W        W44321  14.129   0.113  13.367 -0.4694  0.1342 -0.0692
24788W        W44322   8.347  17.101   3.922  0.1086 -0.1634 -0.3241
24789W        W44323  14.318  10.210   2.803 -0.4121  0.1564  0.1075
24790W        W44324  12.813   8.229  12.699 -0.0394  0.1858 -0.1626
24791W        W44325   6.668   5.937  16.460  0.0303  0.0163  0.0352
24792W        W44326   3.932   1.846   2.550 -0.0211  0.1260  0.1636
24793W        W44327   0.874   1.090   1.075 -0.0955  0.4233  0.1438
24794W        W44328  10.368   3.789   4.111 -0.1401 -0.3263  0.1315
24795W        W44329   5.182  12.792  13.821 -0.3369 -0.0499 -0.0605
24796W        W44330  11.801   5.991   1.656  0.3482 -0.2420 -0.1203
24797W        W44331   1.180  15.314  12.600 -0.1580 -0.2376  0.0321
24798W        W44332  13.975  12.340   1.384 -0.1693 -0.0084  0.2058
24799W        W44333  14.038   6.947  14.288 -0.2414  0.0016 -0.0675
24800W        W44334   9.148  15.089   3.411  0.3390 -0.2790  0.3650
24801W        W44335   5.826   2.276   2.540  0.2126 -0.1386  0.3077
24802W        W44336  12.464  11.051  16.229  0.3426 -0.0714  0.2246
24803W        W44337  17.049   7.409   4.031  0.1617 -0.0578 -0.2700
24804W        W44338  12.799  16.083   0.627  0.3760 -0.0750 -0.0376
24805W        W44339  17.080   7.202   3.557 -0.0080  0.2671  0.0697
24806W        W44340   7.656   5.145  17.077 -0.0544 -0.2215 -0.0458
24807W        W44341   2.660   1.268   2.956 -0.2488 -0.0228  0.1078
24808W        W44342  16.623   7.206   2.536 -0.3315  0.1517 -0.2843
24809W        W44343   7.718   3.918  14.134 -0.0584  0.0453  0.2708
24810W        W44344   8.258  15.247   0.864 -0.0488 -0.1345 -0.1590
24811W        W44345   4.887  16.833   2.061  0.3460 -0.1605 -0.0276
24812W        W44346  14.262  12.990   2.151  0.2804  0.1256  0.0844
24813W        W44347  17.086   9.649  15.051  0.2295  0.1914 -0.1579
24814W        W44348  10.365  11.226   2.785 -0.2365 -0.1013  0.3259
24815W        W44349  15.064   1.115  14.365  0.0731 -0.1068 -0.0757
24816W        W44350   9.069   0.281   1.574  0.3052  0.0811  0.0973
24817W        W44351  11.392  10.521   1.270 -0.1441  0.0313 -0.2106
24818W        W44352   6.218  13.030  14.884  0.1049  0.4218 -0.0324
24819W        W44353   2.205   6.185   0.463 -0.1116  0.1273  0.0684
24820W        W44354  16.412   6.948  16.815  0.2052 -0.0074 -0.0309
24821W        W44355  15.349  15.751   0.880 -0.0100 -0.0357  0.0930
24822W        W44356   4.398   3.322   2.451 -0.0125 -0.1347 -0.2841
24823W        W44357  13.158  10.864  14.581 -0.0493  0.1047 -0.3015
24824W        W44358   6.968  11.187  13.979  0.0871  0.0294  0.0113
24825W        W44359   6.042  12.195  16.213 -0.0922 -0.0432  0.1491
24826W        W44360  14.930   8.002  16.946  0.0662 -0.6172  0.0165
24827W        W44361   3.440   4.668  12.005 -0.0271  0.1272 -0.2949
24828W        W44362   2.741  10.724  14.625 -0.0229  0.2129  0.0859
24829W        W44363   4.675   8.844  13.503  0.0793  0.1082 -0.0992
24830W        W44364   1.695   8.822  15.818 -0.0306  0.3561 -0.0382
24831W        W44365  15.173   0.795  16.020 -0.3272 -0.0143  0.2531
24832W        W44366  14.219   7.018   1.777 -0.0705 -0.1670 -0.2538
24833W        W44367  12.759  16.645  14.843  0.4007 -0.0540  0.2045
24834W        W44368   8.684   4.204  14.227  0.0915  0.0547 -0.2662
24835W        W44369  13.344  12.484  16.781 -0.1524  0.0176  0.0892
24836W        W44370   2.260  11.075   0.101  0.1163  0.4537 -0.1380
24837W        W44371   5.743   9.073  16.164  0.2764 -0.4440  0.0908
24838W        W44372   5.399   8.973  16.946 -0.1296  0.1632 -0.1037
24839W        W44373  13.671   8.629  12.847 -0.0501  0.1252 -0.0984
24840W        W44374   9.892   4.027  15.394 -0.0354 -0.0186 -0.0241
24841W        W44375   6.239  17.191   3.874 -0.0962  0.0112  0.0405
24842W        W44376   3.437  16.986   3.991 -0.1668 -0.0542  0.0605
24843W        W44377   2.037  12.705   0.730 -0.0207  0.1225 -0.0861
24844W        W44378   5.536  13.752  14.174 -0.1414  0.1255  0.6438
24845W        W44379  16.393   5.579   4.251  0.1793 -0.0622  0.4992
24846W        W44380  10.675  12.672   2.207 -0.0788 -0.2540  0.2061
24847W        W44381   4.027   2.984  13.682  0.2284 -0.0599 -0.1363
24848W        W44382   2.530   0.145   4.725 -0.0088  0.0481 -0.1566
24849W        W44383   5.462  10.183  16.678  0.0556 -0.1207  0.1213
24850W        W44384  10.144   1.005  17.115 -0.0067  0.0394  0.3562
24851W        W44385   0.725  15.456   4.794 -0.1816 -0.4965  0.1306
24852W        W44386  13.132   3.510  13.793  0.1536  0.1442  0.1660
24853W        W44387   9.962   0.221  13.910 -0.1611 -0.0057  0.0596
24854W        W44388  14.548   3.493   0.991  0.3137  0.1092 -0.0948
24855W        W44389   8.660   0.993  12.855 -0.1282 -0.0268 -0.1792
24856W        W44390   9.627  11.238  14.657  0.3932  0.0208  0.0836
24857W        W44391   1.448  10.178   2.413  0.2085  0.0994  0.1197
24858W        W44392   1.313  10.230   0.095 -0.0353 -0.0128 -0.1176
24859W        W44393   8.884  15.091  15.233 -0.3333 -0.1065  0.2074
24860W        W44394  10.483  13.139  13.808  0.1924  0.1753 -0.0292
24861W        W44395   9.594   3.409  16.319 -0.0308  0.1517 -0.1747
24862W        W44396  16.225   8.860  13.251 -0.4271 -0.1739  0.0454
24863W        W44397  17.428  17.240   2.467 -0.0449 -0.3800  0.1839
24864W        W44398   7.837  11.892  12.607  0.2009 -0.1505  0.1469
24865W        W44399   2.310   7.064  16.632  0.1791 -0.1478  0.0815
24866W        W44400  16.685  13.114   4.299 -0.1162 -0.1039  0.0548
24867W        W44401   7.766   7.782  16.096  0.0826  0.1510 -0.2091
24868W        W44402   7.953   8.317   1.233  0.2101 -0.0146  0.1459
24869W        W44403  14.619  16.243   1.234 -0.0915  0.0376 -0.1347
24870W        W44404   8.034  10.541  15.902  0.0073  0.0770  0.3263
24871W        W44405   6.511  16.642  14.189 -0.0927 -0.1689  0.2522
24872W        W44406   6.070  12.201   3.208 -0.1118 -0.2111 -0.0360
24873W        W44407  12.701   8.053   3.534 -0.2161  0.1038 -0.1805
24874W        W44408  11.835  11.446   3.849  0.3067 -0.0975 -0.1373
24875W        W44409   4.186   5.618   2.898  0.2099  0.1142 -0.1733
24876W        W44410   5.039   9.754   2.124 -0.0554 -0.2062 -0.0246
24877W        W44411   6.857  12.152  14.086 -0.0781 -0.0628  0.2470
24878W        W44412  14.513  11.691  15.012 -0.0263  0.2265  0.0778
24879W        W44413   3.173   7.468  14.177  0.0225  0.0139 -0.1589
24880W        W44414   8.966  16.741  15.568  0.0345  0.0826 -0.1866
24881W        W44415   8.952  12.832  16.927 -0.0576 -0.3292  0.0017
24882W        W44416   0.039   3.502  14.208 -0.0430  0.2833  0.1087
24883W        W44417   4.186   7.425   2.710 -0.2077  0.1454 -0.0746
24884W        W44418   5.675   7.356  14.452  0.4144 -0.1678 -0.1996
24885W        W44419   0.290   0.458   4.268 -0.2497  0.0997 -0.0035
24886W        W44420  12.302   0.520   3.319 -0.1920  0.1135 -0.0236
24887W        W44421   7.551  17.109  16.680 -0.0295  0.1319 -0.1420
24888W        W44422  12.449   2.835  15.883 -0.1426  0.0959 -0.1669
24889W        W44423  10.661  14.235   4.282 -0.0461  0.0632 -0.1504
24890W        W44424   8.892   9.527  17.101  0.0072  0.0963  0.1018
24891W        W44425  10.460   1.966   1.628  0.1239  0.1674 -0.1816
24892W        W44426  11.640  11.729  16.505  0.0137 -0.1876  0.2146
24893W        W44427  15.392   3.500  16.191 -0.2562  0.0763 -0.2459
24894W        W44428   8.581   6.540  13.643  0.1113  0.2917  0.2260
24895W        W44429   8.562   0.465  13.950 -0.0737  0.0120  0.0488
24896W        W44430   1.501   7.306   3.376  0.0239  0.4977 -0.2734
24897W        W44431   3.430  13.625  13.899 -0.1101 -0.0983 -0.3216
24898W        W44432   0.794  12.552  14.647 -0.0771 -0.0122 -0.3597
24899W        W44433  10.221   6.338  14.808 -0.0564  0.2245  0.0637
24900W        W44434  13.275  12.351   0.309 -0.0304 -0.0570 -0.0405
24901W        W44435   7.758   6.603  14.566 -0.3587 -0.0201 -0.1599
24902W        W44436  16.649   0.760   2.846 -0.2903  0.0053  0.2126
24903W        W44437  10.660   8.248  16.112 -0.0460  0.1811  0.1699
24904W        W44438   9.950   9.925  16.272  0.1456 -0.1424  0.0943
24905W        W44439   9.224   0.571  15.047  0.4549 -0.0055 -0.1860
24906W        W44440   2.525  16.949  15.667  0.2204 -0.3040 -0.1322
24907W        W44441   5.133   2.925   1.154 -0.1232 -0.0709 -0.1048
24908W        W44442   7.628   0.595  15.933 -0.2764 -0.1285 -0.0826
24909W        W44443  14.771   4.314   0.547 -0.2943 -0.1073  0.0778
24910W        W44444   0.326   1.808   0.775  0.0963  0.1335 -0.0684
24911W        W44445   3.299   3.179  14.963  0.0610 -0.0575  0.2827
24912W        W44446   8.239   4.297   4.106 -0.2209 -0.1535  0.0280
24913W        W44447   3.566   8.726   5.213  0.0967  0.2311  0.1513
24914W        W44448  12.692  11.351   0.737 -0.0304  0.1475  0.1515
24915W        W44449  14.136  15.522  14.321  0.3036  0.0950  0.0998
24916W        W44450  13.015  14.979  12.353 -0.1468 -0.0348  0.0927
24917W        W44451   5.968   4.608  15.993  0.0290  0.1335  0.1368
24918W        W44452   5.261  10.378  15.285 -0.1560 -0.0654 -0.0969
24919W        W44453  17.312   9.251   2.143 -0.0419  0.2630  0.1629
24920W        W44454   2.859   3.989   1.630 -0.3180 -0.0128 -0.0200
24921W        W44455   1.309  11.822   1.955 -0.1735  0.0464  0.0485
24922W        W44456  11.032   3.534   3.461 -0.0927 -0.1177 -0.2409
24923W        W44457   7.523   0.377  14.751 -0.0841 -0.1201  0.1049
24924W        W44458   8.775   3.311   0.949  0.1493 -0.2750  0.0656
24925W        W44459  13.364  16.628  13.539 -0.0833  0.2291  0.3121
24926W        W44460   4.996   7.441   1.167  0.1286 -0.4372 -0.0147
24927W        W44461  14.123   8.043  16.363 -0.2344  0.0885 -0.1557
24928W        W44462   4.839  14.908   3.584 -0.1831 -0.1703  0.0135
24929W        W44463   2.695  16.312  11.806  0.1724 -0.1203 -0.0160
24930W        W44464   7.639   4.325  14.379 -0.0474 -0.0469 -0.2184
24931W        W44465  12.854  13.835   2.339 -0.0668 -0.2990 -0.1233
24932W        W44466  10.828   0.258  17.095  0.0402 -0.0611 -0.2668
24933W        W44467   1.731  10.897   4.128  0.2701 -0.3664 -0.2614
24934W        W44468   9.506   3.046   4.262  0.0011 -0.1745 -0.0665
24935W        W44469   9.465  16.585  13.815 -0.3114 -0.1723  0.0767
24936W        W44470  13.297  16.066  13.276  0.2359  0.1696  0.2884
24937W        W44471   5.511   9.400  16.525 -0.3480  0.1336  0.1876
24938W        W44472  17.107   1.179  16.389  0.0852 -0.3471  0.0250
24939W        W44473   9.822   1.245   1.335  0.3598 -0.0419 -0.0418
24940W        W44474   3.337   2.199   3.903 -0.2330 -0.2904  0.1106
24941W        W44475   4.230   6.535  11.246 -0.1264  0.2703  0.0159
24942W        W44476  12.264  12.089   4.798  0.1138 -0.2372  0.0052
24943W        W44477   9.721  15.615  13.310  0.4942  0.1716  0.0833
24944W        W44478  11.015  16.836   0.121  0.2318  0.0385 -0.1472
24945W        W44479   0.041   8.662  14.023  0.0419 -0.2299  0.0307
24946W        W44480   4.541   6.366   1.254  0.0030 -0.1994  0.1178
24947W        W44481   4.064   2.391  12.530  0.0057 -0.3522  0.2079
24948W        W44482  16.360   4.498  15.550 -0.0170 -0.2742  0.0424
24949W        W44483   4.348  15.835  14.815  0.0513 -0.0529  0.0787
24950W        W44484  12.303  13.235  12.671 -0.1098  0.0361  0.2823
24951W        W44485   8.306   6.016  13.060  0.4706 -0.2106  0.1220
24952W        W44486  14.028   7.945   1.636  0.2563  0.0953  0.1597
24953W        W44487  14.888   0.416  12.807 -0.0229 -0.2706 -0.2132
24954W        W44488   2.482   8.991   2.043  0.3310  0.0922  0.0349
24955W        W44489   3.229   8.489  16.127 -0.4066  0.0605 -0.1016
24956W        W44490   1.162  10.323  13.075  0.5149  0.1202  0.1791
24957W        W44491   8.107   8.745   3.904  0.4021 -0.0368  0.3915
24958W        W44492   0.832  16.236   1.017  0.2153  0.0065 -0.1247
24959W        W44493  11.573   7.297   5.137  0.2286  0.2773  0.1175
24960W        W44494   2.311   5.943  13.561 -0.0448 -0.0638 -0.0702
24961W        W44495   6.717   1.112  14.252 -0.0795 -0.1790 -0.1835
24962W        W44496  17.328   7.381  12.674  0.3737  0.1894  0.1080
24963W        W44497   4.597   5.581   1.439  0.1684 -0.4157 -0.1218
24964W        W44498  16.891  15.581   0.667 -0.0261 -0.0907  0.0741
24965W        W44499   6.778   5.142  12.306  0.1783 -0.0015  0.2645
24966W        W44500   6.758  16.054   4.627  0.0434 -0.3184  0.0915
24967W        W44501  14.698   9.139   4.354  0.0944 -0.0684 -0.2087
24968W        W44502  12.333  16.227  12.037  0.1000  0.2428  0.4482
24969W        W44503  12.729   2.959  12.469 -0.0641  0.3773 -0.0731
24970W        W44504  16.990   7.883  12.374  0.0061  0.1653  0.0851
24971W        W44505  13.694   9.639   2.808 -0.0936  0.0452 -0.0702
24972W        W44506   3.253   5.813  12.136 -0.0933  0.2042  0.1408
24973W        W44507  12.787   1.106  14.655 -0.2750 -0.0145 -0.0582
24974W        W44508   4.297   5.279  14.328 -0.0737 -0.1725  0.1074
24975W        W44509   0.863  16.154   2.909  0.1191  0.1333  0.0450
24976W        W44510   6.634   2.406   3.925 -0.0988  0.0552  0.1773
24977W        W44511  15.759  14.119  17.216  0.0171  0.3106 -0.5199
24978W        W44512  10.454  11.532  13.101 -0.0630  0.2329 -0.1588
24979W        W44513   8.150   4.721  13.760  0.1076 -0.0451  0.1664
24980W        W44514  15.301   2.494   3.739  0.2441  0.0841  0.2614
24981W        W44515   1.885  11.087   3.006  0.0829  0.0233 -0.0657
24982W        W44516   5.920   9.149   1.931 -0.2643 -0.0934 -0.0452
24983W        W44517   9.651  10.679  13.710  0.0248  0.1783  0.2638
24984W        W44518   7.071   2.958  15.274  0.4984 -0.2521 -0.1300
24985W        W44519   4.907   2.125  16.336 -0.0027 -0.0031  0.1365
24986W        W44520   9.318  10.464   5.647 -0.0083 -0.2337 -0.1494
24987W        W44521  14.849   9.624   3.499  0.2766 -0.0499  0.4692
24988W        W44522   0.525   2.389   0.078  0.1698  0.2233  0.1764
24989W        W44523   6.464   1.993  17.193 -0.0610  0.1927 -0.2167
24990W        W44524  10.608  10.679  16.454 -0.0051 -0.0918  0.1372
24991W        W44525   9.264  12.692  13.937  0.2240  0.1227  0.2302
24992W        W44526  16.593  11.398   2.787 -0.1921 -0.2172 -0.2221
24993W        W44527   0.703  12.164  17.205  0.0325  0.2011  0.3839
24994W        W44528   3.107   0.501  16.519  0.1375 -0.2085  0.2073
24995W        W44529   0.260  16.735   4.733 -0.2807  0.1341 -0.4051
24996W        W44530  15.353   5.280  16.717 -0.1063 -0.1405  0.0414
24997W        W44531  12.691  14.296  14.536  0.0441  0.1604  0.0563
24998W        W44532   7.206  12.523   4.143  0.1061  0.1365  0.0397
24999W        W44533  13.727   8.529  13.521 -0.0290 -0.1544 -0.0650
25000W        W44534   1.527  17.040  15.316  0.1748  0.1452  0.1661
25001W        W44535  16.076   8.244   1.934 -0.0391  0.2666 -0.0708
25002W        W44536   6.825  10.696   5.643 -0.0939  0.1160 -0.1177
25003W        W44537   7.222   6.476   2.360 -0.0433  0.3385 -0.3465
25004W        W44538   0.167  10.233   0.740  0.3516 -0.3108  0.0815
25005W        W44539  13.872   3.497   4.133 -0.0325 -0.0612 -0.1070
25006W        W44540   5.215   1.965  12.221  0.0654  0.1808 -0.0170
25007W        W44541   1.669  11.460   5.281 -0.0249 -0.0198  0.1505
25008W        W44542   4.056   3.059   3.501 -0.0880 -0.1712  0.0560
25009W        W44543   9.543  12.931   4.129  0.0164  0.2279  0.2746
25010W        W44544   9.313   3.711  16.667  0.1536 -0.0030  0.2659
25011W        W44545  11.613  12.418  15.305  0.0236 -0.1212 -0.2969
25012W        W44546  13.889   9.165   4.697  0.3329  0.0849  0.0262
25013W        W44547  12.439  10.389  15.656 -0.1804 -0.2173  0.2392
25014W        W44548  11.744   4.654  16.234 -0.1858 -0.3625  0.0406
25015W        W44549   1.268   4.055   4.096  0.0470 -0.1718 -0.2643
25016W        W44550   4.532  15.440   1.828  0.0455 -0.1252 -0.0389
25017W        W44551   4.125   6.565   0.946  0.1022  0.2816  0.1298
25018W        W44552   6.306   7.618  13.077  0.4002 -0.1120  0.2110
25019W        W44553   1.861   2.525   3.097 -0.1282  0.2026 -0.1953
25020W        W44554  11.153  15.202   2.442  0.2037 -0.1330  0.0055
25021W        W44555   0.068   8.533   1.649  0.1409  0.0818 -0.1095
25022W        W44556   2.252   1.949  14.798 -0.2557 -0.1336 -0.0428
25023W        W44557   1.634  15.637   4.522 -0.0899  0.0064 -0.1510
25024W        W44558  15.740   3.310  12.917 -0.0851  0.0522 -0.3969
25025W        W44559   6.818   0.827   4.137  0.0294  0.1217 -0.4499
25026W        W44560   2.442  14.760   4.833 -0.1086  0.0179  0.0400
25027W        W44561   6.687   4.118   3.375 -0.0828 -0.2085  0.0044
25028W        W44562   4.628   7.721   2.573  0.2726  0.0514  0.0919
25029W        W44563   3.788   1.038  14.415 -0.2991 -0.0791 -0.3633
25030W        W44564   5.801  12.928  14.665 -0.1018 -0.1759  0.1383
25031W        W44565  13.628   9.143  12.842  0.0913  0.1814 -0.1926
25032W        W44566  10.023   0.554  16.405  0.1019  0.0510 -0.0508
25033W        W44567  11.684   8.875   3.959 -0.0466 -0.0334 -0.0912
25034W        W44568   6.478  13.684   2.321  0.3523  0.2377  0.2272
25035W        W44569  12.223  10.510   1.425  0.3595 -0.0304  0.2269
25036W        W44570   5.889   6.363   4.572  0.0715 -0.0226 -0.1595
25037W        W44571  10.295  12.149   4.419 -0.0188  0.1164  0.1422
25038W        W44572  11.680  10.337   5.026  0.2989  0.1976 -0.1511
25039W        W44573   0.609   6.743   4.099  0.1709 -0.3053 -0.2236
25040W        W44574   5.996  13.748   1.248  0.1109  0.0776 -0.1122
25041W        W44575  12.074  14.610   2.145 -0.2887  0.0718 -0.0280
25042W        W44576   0.009   7.101  13.366  0.0231 -0.1686 -0.1596
25043W        W44577   9.756   9.643   1.751  0.1630  0.0887  0.2920
25044W        W44578  15.048   3.892   0.325  0.0957  0.1187  0.1531
25045W        W44579  10.247   3.178  12.430  0.1363  0.2020 -0.0265
25046W        W44580   8.338   2.084  15.698  0.1401  0.0696  0.1172
25047W        W44581   5.371   8.431  12.445 -0.0114 -0.2179 -0.0245
25048W        W44582   1.054  12.371  13.230 -0.1516 -0.1216 -0.1324
25049W        W44583   3.638  16.122  16.842  0.0363 -0.2424  0.1311
25050W        W44584   7.255  17.063  12.463  0.2454  0.1667  0.1248
25051W        W44585   6.509  14.537   1.666 -0.2508  0.2351  0.0542
25052W        W44586  17.358  13.582  16.802 -0.0127  0.2584 -0.0743
25053W        W44587   0.296   9.794  12.916 -0.1271  0.1083 -0.0595
25054W        W44588  14.395  12.669   2.812 -0.1278  0.2921  0.0029
25055W        W44589  12.343  10.728  16.704 -0.1003 -0.1126  0.3701
25056W        W44590  15.481   9.839   3.485  0.3500 -0.2138 -0.0813
25057W        W44591   4.476   8.101   1.003  0.0738 -0.0751 -0.2538
25058W        W44592   6.456  10.018   3.324 -0.0784  0.1339 -0.1630
25059W        W44593  11.945   1.139   0.586  0.0257 -0.0358 -0.2284
25060W        W44594   6.895   7.787  16.225 -0.1935  0.0316  0.0570
25061W        W44595  14.400  10.111   2.308 -0.0855  0.0524 -0.1003
25062W        W44596  16.684  15.326  15.325 -0.2291 -0.0150  0.1342
25063W        W44597  11.626  12.422  14.142  0.0657  0.1345  0.3261
25064W        W44598   9.296   6.055  16.127 -0.2287 -0.0963 -0.0832
25065W        W44599   8.965  11.922  14.283 -0.3065  0.0241 -0.5612
25066W        W44600  15.490   1.471   5.503 -0.1619 -0.1336  0.0631
25067W        W44601  13.609  14.588   3.296  0.2460  0.1050  0.4865
25068W        W44602   0.334  10.746  14.431  0.2732  0.2185  0.0271
25069W        W44603   9.756   5.414   3.782 -0.1699  0.3227 -0.0403
25070W        W44604  16.899  16.979  14.856 -0.2071 -0.0700 -0.2606
25071W        W44605  11.398   6.375  12.732  0.0845 -0.2534 -0.0444
25072W        W44606  14.649   6.820  14.715 -0.0525  0.1787  0.1548
25073W        W44607   1.436  11.388   0.724 -0.1766 -0.1116 -0.1197
25074W        W44608   3.214   5.673  15.093  0.0265  0.2990  0.0203
25075W        W44609  12.200   7.818  14.992  0.1304 -0.1255 -0.2511
25076W        W44610  10.859   0.458  13.999  0.2013 -0.2126 -0.1150
25077W        W44611  13.907   6.020   0.489  0.0773 -0.0831  0.2837
25078W        W44612  12.390  15.898  13.833  0.0456 -0.0014  0.1842
25079W        W44613   7.244   7.922  15.903 -0.0077 -0.1994  0.1242
25080W        W44614   0.026   2.030   3.378 -0.3008 -0.0415  0.1845
25081W        W44615  14.666   6.250  14.853  0.0872  0.0991 -0.2794
25082W        W44616   2.442   5.200   0.563 -0.1067 -0.0806 -0.1713
25083W        W44617  11.350   3.609   2.553  0.1119 -0.1072  0.1678
25084W        W44618   8.955  15.593   3.455 -0.3580 -0.0154 -0.1543
25085W        W44619   9.997  14.516   1.630 -0.0253  0.0464  0.3213
25086W        W44620   5.653  15.815  16.931 -0.0104  0.0972  0.2491
25087W        W44621  15.923  12.593  12.250 -0.3059  0.3994 -0.2868
25088W        W44622   9.153   6.233   5.317 -0.0219  0.1394  0.3865
25089W        W44623   9.937  10.199  12.978 -0.0386  0.0531 -0.2031
25090W        W44624   7.814   4.301   1.885 -0.1096 -0.2064 -0.2957
25091W        W44625  14.021  12.390  14.225  0.0831 -0.0686 -0.0112
25092W        W44626  11.933   4.514   1.810 -0.3229 -0.0694 -0.1224
25093W        W44627   1.425   9.027   1.074 -0.2050  0.1098 -0.2031
25094W        W44628   5.241   3.077   2.015 -0.1094  0.0742 -0.0164
25095W        W44629  12.286  16.311  14.082  0.0131 -0.1374 -0.2983
25096W        W44630   9.730  15.907  16.225 -0.2215 -0.3274 -0.0348
25097W        W44631   9.256   0.668   0.671 -0.0424 -0.3105 -0.3850
25098W        W44632   5.283  11.004   3.389  0.0323 -0.2032 -0.0049
25099W        W44633  12.432  16.591  15.656 -0.1050  0.1446 -0.1201
25100W        W44634   2.838   7.396   5.053  0.1325 -0.0535 -0.0720
25101W        W44635  10.344   8.117   0.932 -0.0120  0.1895 -0.0831
25102W        W44636  16.366  14.398   4.103  0.0128 -0.0075 -0.1354
25103W        W44637  17.221  10.999   2.984  0.3363  0.1095  0.0634
25104W        W44638   4.700   8.960  12.981  0.1171 -0.0096 -0.1321
25105W        W44639   1.009  16.097  12.123  0.1058  0.4211 -0.0029
25106W        W44640   0.440   8.775  16.656  0.0173 -0.2196  0.2845
25107W        W44641  16.814  12.560  13.728 -0.1862  0.1101  0.0520
25108W        W44642   0.350  10.308  14.198 -0.1478 -0.1479  0.0171
25109W        W44643  16.732  17.441  15.509 -0.2506 -0.2812  0.2726
25110W        W44644  11.552   5.079  16.954 -0.0573 -0.0006 -0.0377
25111W        W44645   5.355   3.665   2.855 -0.0637 -0.2557 -0.1900
25112W        W44646   0.366  15.061   2.082  0.0317 -0.0275 -0.0224
25113W        W44647  17.104  10.544  13.427  0.2369  0.3578 -0.1375
25114W        W44648   5.672  14.970  16.892  0.2871 -0.1529  0.1567
25115W        W44649  16.926  16.622  12.909 -0.4270  0.2365  0.0298
25116W        W44650  16.106   3.259   4.380  0.1017  0.0244  0.2671
25117W        W44651   5.765   6.511  14.522 -0.1080  0.0583  0.0416
25118W        W44652  15.419   5.761  15.503  0.1825  0.2401  0.2384
25119W        W44653   7.033  11.727  15.795  0.1029  0.0641  0.1069
25120W        W44654   7.724   3.822   4.623  0.4167 -0.0363 -0.1786
25121W        W44655   9.694  17.055  13.082 -0.1134 -0.0015  0.1292
25122W        W44656  10.847  11.739   3.761 -0.3980  0.4331 -0.1062
25123W        W44657   9.353   4.429   1.390  0.1507  0.0448 -0.1357
25124W        W44658  13.135   6.585  15.557  0.0313  0.0140 -0.3365
25125W        W44659  12.038  16.284   3.827 -0.1668  0.0573  0.0701
25126W        W44660   8.303  12.708  13.623 -0.4747 -0.1177  0.1687
25127W        W44661  14.668  17.094  15.301 -0.0326 -0.1720 -0.1246
25128W        W44662   0.010  13.824  13.609 -0.0733 -0.0181 -0.0102
25129W        W44663   0.852  13.505   0.737 -0.0717  0.1213 -0.3793
25130W        W44664  16.080   9.268  12.387 -0.3232  0.0778  0.3374
25131W        W44665   9.583   1.125  15.043  0.1748  0.1450 -0.0864
25132W        W44666   7.692  12.670   3.102 -0.1118 -0.0923 -0.1281
25133W        W44667  15.293   1.124   0.930 -0.1161  0.1855  0.1993
25134W        W44668  12.205   8.574  14.536  0.0014 -0.0816 -0.1119
25135W        W44669   0.094   0.429  16.392 -0.0693 -0.6624  0.3568
25136W        W44670   0.075  13.899  13.043  0.4755 -0.0995 -0.0530
25137W        W44671  10.792   4.474  14.361 -0.2984  0.0418 -0.3711
25138W        W44672   7.157   5.417  12.546 -0.0674  0.2878 -0.0347
25139W        W44673   1.125   5.863   3.957 -0.0352  0.1282 -0.1616
25140W        W44674  12.168   0.514  12.251 -0.0613  0.0490  0.0276
25141W        W44675   6.526   5.913   0.764 -0.0609 -0.0710 -0.3666
25142W        W44676   8.784   2.672   3.043  0.3458 -0.0275  0.0753
25143W        W44677   9.188   6.295   2.139  0.0818  0.0630 -0.1734
25144W        W44678   3.074   4.803   1.913  0.0981 -0.1377 -0.1660
25145W        W44679  13.851  13.700   1.967  0.2576  0.0387 -0.0486
25146W        W44680  12.206   5.439   0.535 -0.1622  0.1532  0.0203
25147W        W44681   9.167  14.791   1.654 -0.0529  0.0141 -0.1626
25148W        W44682   2.068  12.103  14.969 -0.0107 -0.2675  0.1922
25149W        W44683   6.832   8.571   4.695  0.0900  0.0197  0.2432
25150W        W44684   4.189   3.433   4.812 -0.1416 -0.1665 -0.0401
25151W        W44685   5.924   8.363  13.227  0.0431 -0.3230  0.1536
25152W        W44686  16.389  11.546  12.729  0.1112 -0.0891 -0.0244
25153W        W44687   0.488   8.586  17.174  0.0774  0.0041  0.0486
25154W        W44688   5.213   4.075   0.334 -0.0235 -0.0956 -0.1073
25155W        W44689  14.950  16.932  14.111  0.2017 -0.1980 -0.4281
25156W        W44690   1.851  15.584   3.241 -0.0452  0.0906  0.0297
25157W        W44691   9.865   4.249   1.003 -0.0012  0.2136  0.1507
25158W        W44692   3.743  16.136  15.489 -0.0837 -0.2165 -0.0087
25159W        W44693   9.254   0.154   3.315 -0.0443 -0.0969  0.1945
25160W        W44694   5.882  13.732   4.698 -0.3642  0.0756 -0.1926
25161W        W44695  16.779   3.670   0.274  0.2448  0.4400 -0.0075
25162W        W44696  14.225   8.128  17.256 -0.2696  0.0417  0.2868
25163W        W44697   9.861  15.377  16.287  0.1262  0.2047  0.0053
25164W        W44698  17.149  14.104   4.174  0.0021  0.1653  0.1400
25165W        W44699   2.316  17.336  13.767 -0.0400 -0.0900  0.1548
25166W        W44700  14.842  10.844   4.205  0.3050 -0.3742  0.1926
25167W        W44701  10.664  16.600   3.453  0.0605 -0.2545 -0.3840
25168W        W44702  16.268  12.476  14.000  0.1593 -0.0245  0.0736
25169W        W44703   3.073  15.702   4.459 -0.2434 -0.0604 -0.2677
25170W        W44704   9.166  13.373  14.676 -0.0980 -0.0656  0.2007
25171W        W44705   5.504  12.573  12.403 -0.0824  0.0352  0.0155
25172W        W44706   8.308  15.029  12.354  0.2302 -0.1732  0.2962
25173W        W44707  14.730   2.451  14.258 -0.0545 -0.0699 -0.1014
25174W        W44708   7.865  10.546   4.448 -0.0701 -0.4635 -0.2008
25175W        W44709  16.350   1.079   3.317  0.0110 -0.0591  0.1726
25176W        W44710   6.090  13.237  12.334  0.1774  0.2701  0.1214
25177W        W44711   6.441   7.872   5.025  0.2028 -0.0923 -0.0328
25178W        W44712   9.910   7.919   0.815  0.0086 -0.0707 -0.0011
25179W        W44713  11.636   4.028  16.544  0.1740 -0.1062 -0.1157
25180W        W44714  11.246  14.624   1.241 -0.0959  0.2221  0.2097
25181W        W44715  13.983   7.656   3.190 -0.0234  0.0348 -0.0850
25182W        W44716   4.549   5.117   1.756 -0.0983 -0.0076 -0.3882
25183W        W44717  14.893  14.147  14.960  0.2210  0.1591  0.0801
25184W        W44718   2.587   3.376   2.167  0.1552  0.0039  0.0332
25185W        W44719  13.278   2.705  16.457  0.1282 -0.1319 -0.0925
25186W        W44720   6.357  10.982  17.040 -0.1844 -0.1991 -0.1572
25187W        W44721   4.392   1.669   4.605  0.4742 -0.1054  0.0326
25188W        W44722  17.175  10.363  16.747 -0.1658 -0.1143 -0.0199
25189W        W44723   6.246   4.178   3.155  0.3210 -0.2062 -0.1880
25190W        W44724   1.131   1.540  12.123 -0.0452 -0.1466 -0.1028
25191W        W44725   1.529  11.311   4.032  0.3982  0.2413  0.0268
25192W        W44726  13.940   6.251   2.636 -0.2723  0.3765 -0.2423
25193W        W44727  10.388   4.505  16.051 -0.0994  0.3087 -0.0876
25194W        W44728  15.468   0.917  14.137 -0.2206  0.0388 -0.0341
25195W        W44729  10.133  13.410   0.337  0.0561 -0.3410 -0.1970
25196W        W44730  15.462  17.207  12.562 -0.0438 -0.0431 -0.1405
25197W        W44731  14.222   7.599  16.741  0.0139 -0.4145 -0.0652
25198W        W44732   0.266  10.207   3.988  0.0374 -0.0270 -0.0600
25199W        W44733   9.672   3.012  15.340 -0.0481 -0.1345 -0.2825
25200W        W44734   5.433   7.802  15.613  0.2777  0.0802 -0.3212
25201W        W44735  16.716  12.018  15.236  0.1054  0.0339 -0.0626
25202W        W44736  14.485  11.975  16.907 -0.1197 -0.2701 -0.2636
25203W        W44737   3.664   4.191  12.523  0.1021  0.1468 -0.2461
25204W        W44738   6.924   5.720  12.224 -0.2833 -0.0165  0.1700
25205W        W44739  10.886   6.035   3.680  0.2160 -0.3068  0.0940
25206W        W44740   5.245   5.781   4.310 -0.0847  0.2202  0.1838
25207W        W44741   2.193   0.193  16.345  0.2482  0.2112  0.0783
25208W        W44742   8.429  14.382   0.692  0.0418 -0.1265 -0.0469
25209W        W44743  12.041   1.651   1.309 -0.1589 -0.0315 -0.2817
25210W        W44744  13.264   0.869  12.970 -0.0796  0.1122 -0.1173
25211W        W44745   5.394   8.045   0.502  0.1487  0.0026 -0.0380
25212W        W44746   7.910  11.961  16.035 -0.0224  0.3041 -0.4286
25213W        W44747   0.319  16.975  15.998  0.2302  0.0685 -0.2045
25214W        W44748  10.707   3.335   4.785 -0.0608 -0.2783  0.0053
25215W        W44749   0.697  16.835   4.153 -0.1263 -0.1360  0.0932
25216W        W44750  13.536   9.971  15.123 -0.0722 -0.0275  0.2895
25217W        W44751   3.031  12.546  15.672  0.0692 -0.0820  0.1307
25218W        W44752   9.219  11.778   0.303  0.0080 -0.0743  0.0336
25219W        W44753   7.508   6.095   0.019 -0.1449  0.2509 -0.3271
25220W        W44754   8.198  11.227  14.209 -0.0817  0.0500 -0.0473
25221W        W44755  16.987   8.674  15.180  0.1717  0.0825 -0.0610
25222W        W44756   3.817   5.310  12.608 -0.1123  0.1596  0.1175
25223W        W44757  10.111  12.903   4.726 -0.2803  0.1082  0.1831
25224W        W44758  10.780  14.924   3.700  0.2349 -0.2590 -0.1886
25225W        W44759   2.914   7.599   0.587  0.1223 -0.0697  0.0502
25226W        W44760   7.185  12.891  16.346 -0.1882 -0.1106  0.2129
25227W        W44761   2.268   7.693  14.167  0.2913 -0.0692  0.3345
25228W        W44762   2.421   4.260  14.454  0.0510 -0.0069  0.0661
25229W        W44763   2.336  14.782   3.861 -0.1360 -0.0651 -0.0426
25230W        W44764  15.937  13.062   1.749 -0.0788  0.1523  0.0194
25231W        W44765   5.225   2.383  15.408  0.3221 -0.3336  0.0897
25232W        W44766   5.996   7.555   5.166  0.0752  0.0841  0.1267
25233W        W44767   1.098  16.472  16.633  0.0645  0.0035 -0.0649
25234W        W44768   6.315   3.570   1.966 -0.0782 -0.1025 -0.1784
25235W        W44769   8.638   2.270   2.032  0.1088  0.1064 -0.0011
25236W        W44770   9.001   2.521  17.215 -0.1009 -0.1818 -0.0986
25237W        W44771   6.164  11.157   4.801 -0.1171 -0.1220  0.2258
25238W        W44772  13.258   0.009  11.863  0.0143  0.0474  0.1763
25239W        W44773  11.613  11.980  12.449  0.3831  0.0189  0.1056
25240W        W44774   3.683   0.810   4.155 -0.0984 -0.0694  0.1299
25241W        W44775   6.273   3.603   4.645 -0.0548 -0.1898 -0.1448
25242W        W44776   5.243  15.005  13.824  0.1271 -0.0668 -0.0060
25243W        W44777  15.575  13.706  15.958 -0.0283 -0.3312 -0.1983
25244W        W44778  15.920  11.598   2.851 -0.0559 -0.0728 -0.1094
25245W        W44779  16.984   6.963  13.443  0.1443 -0.2241 -0.0148
25246W        W44780   2.632   0.628   4.629  0.3781  0.0385  0.0099
25247W        W44781  12.479   5.644  13.341  0.3681 -0.0317  0.2614
25248W        W44782  13.797  11.688  16.869  0.0003 -0.1863 -0.2624
25249W        W44783   6.678  12.687  16.833  0.0619 -0.0668 -0.0550
25250W        W44784  14.888   9.216   3.900  0.0503  0.0740 -0.1277
25251W        W44785  11.933   7.435  13.873 -0.0115  0.0195 -0.3217
25252W        W44786  10.199   8.786  15.477  0.4055  0.3307 -0.1181
25253W        W44787  10.428   6.865   2.434  0.3097  0.1314 -0.1789
25254W        W44788   7.097   0.215   4.635 -0.1688  0.0320 -0.2357
25255W        W44789   8.346   1.845  15.265  0.1802 -0.0772 -0.0040
25256W        W44790  14.773   9.372   2.961  0.0204 -0.0517 -0.2618
25257W        W44791   2.232   2.867  16.471 -0.4548 -0.0495  0.2831
25258W        W44792  17.041   3.916  15.377 -0.0276  0.0325  0.2230
25259W        W44793  14.921   7.714   2.725  0.1190  0.1136 -0.2539
25260W        W44794  11.969   8.761   4.752  0.0506  0.0391 -0.0734
25261W        W44795   2.814   7.056   3.741 -0.0068 -0.2742 -0.0632
25262W        W44796   6.334   3.317  16.463 -0.2581 -0.0050 -0.1822
25263W        W44797   0.099  16.027  15.942 -0.1462  0.2999 -0.2821
25264W        W44798  15.096   9.928   1.787 -0.1933  0.0724  0.1057
25265W        W44799   1.582   7.361  14.926 -0.1455 -0.0064 -0.1165
25266W        W44800   8.300  11.038   0.341  0.0882 -0.0023 -0.2247
25267W        W44801   5.316   9.870  15.136  0.1363 -0.0674  0.0157
25268W        W44802   1.397   7.050  15.348  0.0527 -0.3843  0.0940
25269W        W44803   5.956  12.254   4.675  0.1212 -0.0395  0.1888
25270W        W44804   7.541   9.998   3.064 -0.0273 -0.4004 -0.0281
25271W        W44805   6.060  14.462  13.601  0.0729 -0.2054  0.1637
25272W        W44806  15.704   4.855  13.963  0.1506 -0.1447 -0.3889
25273W        W44807   5.893   5.597  15.905  0.2431 -0.2629  0.3499
25274W        W44808   0.273   2.065   4.386 -0.0166 -0.1673  0.2345
25275W        W44809   9.174  15.647  14.069 -0.0457  0.0046 -0.1534
25276W        W44810   7.605  16.511  12.509 -0.0154 -0.1214 -0.1004
25277W        W44811   0.768   6.306   1.350 -0.0713  0.1829 -0.2029
25278W        W44812  10.881  16.210  12.997  0.1349  0.0777 -0.1093
25279W        W44813   8.200   9.117   1.219 -0.6999  0.0464 -0.0773
25280W        W44814  13.553   2.205   4.671 -0.1950 -0.1416 -0.1462
25281W        W44815   1.166  14.932  15.743  0.0124 -0.2345  0.0273
25282W        W44816  15.736   1.383   2.686  0.1734  0.0042 -0.2930
25283W        W44817   8.668   8.105  16.334  0.0169  0.0069 -0.1088
25284W        W44818   8.434  15.898  12.668 -0.0937 -0.0759 -0.1500
25285W        W44819   6.674   9.435  13.043  0.0475  0.0110 -0.1036
25286W        W44820  16.351   8.549  15.773 -0.1151 -0.1641 -0.0210
25287W        W44821   6.237  13.009  15.398 -0.0662 -0.1467 -0.1312
25288W        W44822  14.331   9.085   3.017  0.0998 -0.2178 -0.3180
25289W        W44823   5.801  11.061   3.498  0.1016 -0.1013  0.1311
25290W        W44824   4.619   9.731   1.825  0.1689  0.1110  0.0851
25291W        W44825   2.617   2.960   5.028  0.2262  0.0481 -0.0177
25292W        W44826  17.127  16.279   1.205  0.0992 -0.0717 -0.1361
25293W        W44827  14.688   9.107  13.586  0.0741 -0.1339  0.1000
25294W        W44828  13.453   6.932  13.031 -0.2656 -0.4177 -0.0391
25295W        W44829   3.536   4.586  13.410 -0.4110 -0.0863  0.0294
25296W        W44830   9.624   9.889   4.246 -0.2134 -0.1497 -0.0573
25297W        W44831   6.499  10.949  12.555 -0.0240  0.1713  0.1503
25298W        W44832   0.938  11.845  13.162 -0.1492  0.3738 -0.1523
25299W        W44833   6.716   4.778  15.307 -0.1787  0.2543  0.0512
25300W        W44834   2.798   4.786   3.389 -0.1182  0.2937 -0.0053
25301W        W44835   2.066   1.916   3.203 -0.0694  0.2481  0.1117
25302W        W44836  13.230   8.219  13.532 -0.2702 -0.2323  0.1261
25303W        W44837   3.082  14.132  15.428  0.2726 -0.1330 -0.0250
25304W        W44838   3.013  10.133   1.950 -0.1200  0.2457 -0.0939
25305W        W44839   4.148   3.288  15.562 -0.0651 -0.0669  0.4522
25306W        W44840   7.600  12.978   1.032  0.0958  0.0698 -0.0526
25307W        W44841  11.644   2.093   3.428 -0.1835 -0.0500 -0.0693
25308W        W44842   7.237   7.157  13.928  0.2022 -0.0319  0.0174
25309W        W44843  14.697  12.108   4.680 -0.0199 -0.0127 -0.0254
25310W        W44844   5.888   6.730  13.783 -0.0953  0.0165  0.1358
25311W        W44845  14.965   9.499   4.624  0.1235 -0.2476 -0.2067
25312W        W44846   6.617   4.207  15.433  0.0306  0.3166  0.2526
25313W        W44847  14.068  13.617  14.092  0.0447 -0.1161 -0.2450
25314W        W44848  10.780  15.354  17.300 -0.0050  0.0026  0.1963
25315W        W44849  15.389   6.568   3.436 -0.3227  0.0372 -0.1426
25316W        W44850   9.776   1.640  12.991  0.5027  0.2691 -0.0599
25317W        W44851  13.752   0.343  13.660  0.0660  0.1762  0.0040
25318W        W44852  11.625  11.266   5.056  0.1167  0.1173  0.0718
25319W        W44853   3.742   8.515   2.835 -0.1823  0.2812  0.1825
25320W        W44854   4.404   3.689  15.282  0.1078  0.2279  0.2892
25321W        W44855   5.147   2.041   4.907  0.1686 -0.3116  0.1946
25322W        W44856  15.844  15.267  12.350 -0.0932 -0.0613 -0.1358
25323W        W44857  16.339   1.469  12.276 -0.0118 -0.0302  0.1933
25324W        W44858  15.689  11.190  15.768  0.0089  0.1166 -0.0427
25325W        W44859   5.654   1.909   2.952 -0.2494 -0.0630 -0.1337
25326W        W44860   4.918  11.275   5.010  0.1165  0.1142 -0.3252
25327W        W44861   5.896   6.411   1.218 -0.5369  0.2823  0.0949
25328W        W44862   2.665   4.856  13.600 -0.0024 -0.2138  0.2930
25329W        W44863  16.587   2.554   0.748  0.0483 -0.0606  0.3788
25330W        W44864   2.804   5.710  16.579  0.2610 -0.0962  0.1182
25331W        W44865   9.658  17.463  16.202  0.1270  0.0642  0.4333
25332W        W44866   4.890   5.554  16.735 -0.2211 -0.1548 -0.1862
25333W        W44867   2.251   2.902   0.054 -0.1557  0.3266 -0.1160
25334W        W44868   7.883   6.505  17.058  0.2844 -0.0751 -0.0110
25335W        W44869  13.117  12.199  12.924  0.3918  0.0637  0.3143
25336W        W44870   1.288   2.799  17.300  0.0017 -0.2758  0.0078
25337W        W44871  11.173   9.152   0.934 -0.1561 -0.0025  0.1522
25338W        W44872   2.532  12.859  17.233 -0.1131  0.2134 -0.3369
25339W        W44873   1.687  10.932   0.754 -0.1661 -0.0476  0.0018
25340W        W44874   3.028  12.012  12.282 -0.1378 -0.2596  0.3584
25341W        W44875  16.159  16.693  13.238  0.3148 -0.1275  0.0368
25342W        W44876   8.686  15.029   0.507 -0.0247 -0.0976  0.1349
25343W        W44877   1.255   4.160  14.572  0.0507 -0.0024  0.0791
25344W        W44878   8.572  10.313  14.492 -0.1704  0.2403 -0.2610
25345W        W44879  13.676   0.331   2.502  0.0138 -0.2060 -0.1040
25346W        W44880   1.444   0.994   2.371  0.1741  0.1373 -0.0157
25347W        W44881   9.776   5.375   5.186  0.0913  0.0162 -0.0960
25348W        W44882  11.357  11.300  15.431  0.0503  0.2086 -0.1139
25349W        W44883  11.485   5.402  12.478 -0.2609 -0.1159  0.0137
25350W        W44884   5.098  12.549   2.045 -0.0448  0.1654  0.0567
25351W        W44885   9.102   1.716  15.471 -0.0878  0.1521  0.0322
25352W        W44886  16.652   2.547  16.270  0.3637 -0.0930  0.0161
25353W        W44887   2.180   3.227   4.174  0.1056 -0.0090 -0.1251
25354W        W44888   3.443   3.256   4.097 -0.0751  0.1709  0.3218
25355W        W44889  16.184   8.637   1.635 -0.0227  0.1843 -0.0141
25356W        W44890  10.095  17.182   3.329  0.2190  0.1802 -0.1110
25357W        W44891  14.091   2.640  13.039  0.2223  0.0397 -0.0393
25358W        W44892  11.835   4.690   1.251  0.2118 -0.0823 -0.2988
25359W        W44893  12.897   9.079   4.997  0.0740 -0.0579 -0.2179
25360W        W44894  13.333  11.643  12.352  0.0054 -0.1572 -0.0832
25361W        W44895   2.238  10.747   2.341  0.1688  0.0601 -0.1354
25362W        W44896  12.390  10.436   4.696 -0.0124 -0.2457 -0.1397
25363W        W44897  11.636  13.333  13.511  0.0750  0.0315 -0.0190
25364W        W44898   9.120   1.797   4.258 -0.0457  0.0490  0.0194
25365W        W44899   2.354  14.240  17.044 -0.0912  0.2677  0.3588
25366W        W44900   7.346  16.605   2.482 -0.1338  0.0944 -0.0353
25367W        W44901  11.254   4.717   3.585  0.1182  0.1861  0.2755
25368W        W44902   0.173   7.815   0.965  0.2695 -0.3206  0.0596
25369W        W44903   9.687  11.910   0.471 -0.1070  0.1471 -0.1282
25370W        W44904  13.366   3.998   1.265  0.2942  0.0409 -0.5135
25371W        W44905   3.360  16.415  15.485  0.3142 -0.0911  0.0149
25372W        W44906   9.789  12.447   2.820  0.2013  0.0238  0.1206
25373W        W44907  14.879   5.720   3.187 -0.0705 -0.1163 -0.1425
25374W        W44908  16.771   0.455  13.608 -0.3356 -0.1355  0.1790
25375W        W44909   0.860   7.491  14.234 -0.1336 -0.0720 -0.0840
25376W        W44910  14.462   0.038  16.464  0.0034 -0.1210 -0.0101
25377W        W44911   4.882  15.804   3.175 -0.1197  0.1807 -0.1670
25378W        W44912   4.448  10.474  14.963  0.0665  0.2545  0.1860
25379W        W44913  11.937   5.382   4.045  0.1484  0.0524 -0.0233
25380W        W44914  16.095   6.689   4.953  0.2040 -0.0209 -0.0894
25381W        W44915  15.609  11.890  16.828 -0.2279  0.2864  0.0199
25382W        W44916   2.649  13.803   1.418 -0.3429 -0.1928 -0.0541
25383W        W44917  15.226   4.717  13.374  0.0514  0.0606  0.1069
25384W        W44918   1.819   4.679  15.603  0.1433  0.1760  0.0133
25385W        W44919   5.581   8.209   4.686 -0.2421  0.1958  0.0206
25386W        W44920   3.159   9.746   4.934  0.0797  0.0837  0.2361
25387W        W44921   6.636   5.490  12.620 -0.3826  0.1710  0.1628
25388W        W44922   3.583   2.632   4.080  0.0486 -0.0041  0.1400
25389W        W44923  16.880   0.007   4.565  0.0869  0.1631 -0.2024
25390W        W44924   6.807  14.180  13.114  0.3692  0.1738  0.0906
25391W        W44925   9.828  14.730   2.901  0.1940 -0.0127 -0.3967
25392W        W44926  13.316   1.202  16.597 -0.0582  0.1867 -0.0101
25393W        W44927   7.742  13.241  13.454 -0.0286 -0.0279  0.2577
25394W        W44928  10.138   6.137  16.554 -0.1818 -0.0257  0.1594
25395W        W44929  14.182   9.085  15.268  0.1350  0.0383  0.1199
25396W        W44930  17.447   4.768   1.087  0.1904 -0.0263 -0.0604
25397W        W44931   7.203   7.126   1.819 -0.0763 -0.0963 -0.2473
25398W        W44932   2.095  10.882   1.172 -0.0992  0.1207 -0.0954
25399W        W44933   9.879   1.365   3.541 -0.1399 -0.2122 -0.0570
25400W        W44934   7.140   3.407   0.281  0.1922  0.2475  0.1665
25401W        W44935   4.180   4.995  12.457  0.0919 -0.0375  0.2368
25402W        W44936   7.128   7.954  12.948  0.0776 -0.0874 -0.2367
25403W        W44937  16.290   4.531   0.557  0.0267 -0.0838 -0.0911
25404W        W44938   9.705   6.664  13.336  0.1052 -0.0427 -0.0102
25405W        W44939   0.346   4.928   2.613  0.0746  0.2130  0.1412
25406W        W44940   2.697   8.800   4.465 -0.1868  0.0821 -0.1809
25407W        W44941   9.800   3.795  15.801  0.3994  0.2205 -0.2032
25408W        W44942   8.750  13.218  16.627 -0.1566  0.0263  0.0049
25409W        W44943   1.658   9.862  15.589  0.0145  0.1349 -0.1279
25410W        W44944  14.834  10.186  17.200  0.0999  0.1454 -0.0877
25411W        W44945   3.855  10.018   0.020 -0.2516 -0.0860 -0.0307
25412W        W44946   4.457   3.926   0.893 -0.0659 -0.1644 -0.2113
25413W        W44947  16.199  16.123  12.273 -0.1319  0.1400  0.0757
25414W        W44948   9.773   1.892  14.452 -0.1386 -0.0803 -0.0036
25415W        W44949  11.535  17.380   4.361 -0.0724 -0.1871  0.0027
25416W        W44950   7.579   5.513   4.070 -0.1189  0.0064  0.0649
25417W        W44951   3.100   1.608  15.988 -0.0557  0.0164  0.2259
25418W        W44952   7.565   6.924   0.519 -0.3463  0.2832 -0.0655
25419W        W44953   2.458   1.272   1.980 -0.1764  0.1150 -0.1682
25420W        W44954   4.968   7.742  12.628  0.0406  0.1731  0.2351
25421W        W44955  14.801  14.195  14.066 -0.2109  0.1044  0.1339
25422W        W44956   4.413  17.023  11.844  0.1459  0.1712 -0.4188
25423W        W44957   1.633  12.402  16.835 -0.1192 -0.2421 -0.2176
25424W        W44958   6.799  13.669  16.439  0.1072  0.0098 -0.0187
25425W        W44959   2.389   7.947   2.495  0.2423  0.1470  0.1524
25426W        W44960   5.475   9.400  17.282  0.1276 -0.0013 -0.0559
25427W        W44961  16.335  14.596  13.068 -0.2230  0.0677  0.1125
25428W        W44962  10.267   2.924   2.160 -0.3121 -0.0994 -0.0918
25429W        W44963  11.372  16.454   0.806 -0.0567 -0.3655  0.0085
25430W        W44964   7.425  12.352   1.829  0.0218  0.0968 -0.6496
25431W        W44965   1.141   9.631  15.255  0.3432  0.4998  0.1181
25432W        W44966  13.645   3.431   0.618  0.2627  0.3286  0.1049
25433W        W44967  13.859   5.544  15.682  0.0109  0.0052  0.0222
25434W        W44968  17.091   9.180   5.136 -0.1731 -0.1526  0.1371
25435W        W44969   0.351   1.579   5.225 -0.3162 -0.2857  0.0736
25436W        W44970   9.185   8.526  13.972  0.1062 -0.1272  0.2185
25437W        W44971   3.128  17.091  12.335  0.2725 -0.0105 -0.1313
25438W        W44972   1.305   8.120  13.212  0.0659  0.3687 -0.0002
25439W        W44973  12.762  15.170  15.602  0.0743 -0.0204 -0.1116
25440W        W44974   0.960  16.259   3.903  0.5645  0.1659 -0.0289
25441W        W44975   4.231  10.304   4.457  0.0830  0.0155  0.2082
25442W        W44976   5.730  10.580  16.238  0.0686  0.1916 -0.0796
25443W        W44977   5.792   0.732   1.633 -0.0652  0.1517  0.1321
25444W        W44978   4.667   9.570   0.103  0.1466 -0.2860  0.3307
25445W        W44979   0.955  10.469  15.140  0.0850  0.2337 -0.2544
25446W        W44980  13.206   6.673   3.178 -0.2363 -0.0272  0.1799
25447W        W44981  11.557  12.049  16.080  0.2123 -0.0437  0.0629
25448W        W44982   9.640   7.140   0.114  0.2599 -0.0095 -0.0489
25449W        W44983   4.483   8.440   2.005 -0.1613 -0.4123 -0.0963
25450W        W44984   9.258   8.888   0.475 -0.2594 -0.1224  0.1227
25451W        W44985   3.034   5.036   4.511 -0.1876  0.1338  0.0938
25452W        W44986   4.640   2.406   2.354  0.2387  0.1690  0.3175
25453W        W44987   2.862  13.777   2.435  0.3047  0.0439 -0.1291
25454W        W44988  10.388  17.224  14.934 -0.0742  0.0706 -0.0386
25455W        W44989  10.047  10.310   1.632 -0.0618 -0.0439 -0.1802
25456W        W44990   9.488  12.532  17.016 -0.4064  0.0283 -0.5283
25457W        W44991   5.881   7.015   3.944  0.0610 -0.2669 -0.1239
25458W        W44992  16.478  14.121   3.085 -0.0944 -0.0187  0.0890
25459W        W44993   5.860   9.099  15.171  0.1740  0.1560  0.1017
25460W        W44994   6.738   1.587   5.021 -0.2780 -0.0260 -0.0273
25461W        W44995   7.038   5.244   2.058  0.0675 -0.0398  0.1968
25462W        W44996  14.937   7.419  16.226 -0.1519 -0.1043  0.1813
25463W        W44997   5.787  14.972  14.556  0.1392 -0.2960  0.4021
25464W        W44998   9.928   4.489   3.366  0.0597  0.0411  0.0076
25465W        W44999  12.514  16.533  17.250  0.3863  0.3555  0.0569
25466W        W45000   7.811  15.073  17.201 -0.0491  0.0460 -0.1302
25467W        W45001   2.183  16.254  17.002 -0.3246 -0.2040 -0.0768
25468W        W45002  12.101  14.005   3.720  0.1000  0.1852  0.0324
25469W        W45003   4.751   3.787   1.351 -0.3481  0.3998 -0.1016
25470W        W45004  14.638   6.738   2.586  0.1250  0.2411  0.1482
25471W        W45005  13.674   0.054  12.670  0.0376  0.0169  0.1529
25472W        W45006   0.686  15.910   2.460  0.1149 -0.2068 -0.0447
25473W        W45007  14.047  13.459  12.165 -0.0342 -0.1007  0.2559
25474W        W45008   8.092   1.032   0.061 -0.0667  0.1339  0.0715
25475W        W45009   7.185  15.307   3.814  0.1492  0.1478  0.0833
25476W        W45010  16.989  16.279   2.143 -0.1301  0.2074 -0.0676
25477W        W45011   5.492   8.772  15.609 -0.1696 -0.1952 -0.0726
25478W        W45012   2.474   3.391   3.598  0.4277  0.0380 -0.0355
25479W        W45013   4.587   9.707   5.049 -0.1007 -0.1374  0.2378
25480W        W45014   5.453   0.634  17.132  0.1292  0.1770 -0.1957
25481W        W45015  13.476   5.893   3.289 -0.0703 -0.0421 -0.1287
25482W        W45016   9.456  14.309  16.841 -0.1014 -0.3720 -0.2364
25483W        W45017   8.537  13.668   0.800 -0.1077  0.3438 -0.1959
25484W        W45018   2.024  15.149   5.285 -0.3348  0.3400 -0.2402
25485W        W45019   3.137  15.841   0.393 -0.2395  0.0820 -0.3476
25486W        W45020  13.997   6.089  12.987 -0.2973 -0.0551  0.4127
25487W        W45021   8.428  12.432   1.282 -0.2751 -0.0419 -0.1095
25488W        W45022  10.424   9.019  12.497 -0.1334 -0.1555 -0.2901
25489W        W45023  16.664  14.624  14.467  0.2471 -0.0294  0.0286
25490W        W45024   0.175  16.139  12.550 -0.5229 -0.1401  0.2251
25491W        W45025   0.072  15.227  16.434 -0.0946  0.0123  0.0686
25492W        W45026  12.498   2.460   0.720  0.2091  0.1544 -0.0091
25493W        W45027  15.339  12.587   4.966 -0.1374 -0.0432 -0.0720
25494W        W45028   8.244   5.044   4.850  0.1765 -0.0787 -0.1763
25495W        W45029  12.561   9.503   2.668 -0.2364 -0.0196 -0.3017
25496W        W45030  11.169  15.571   1.115 -0.0725  0.1537  0.0198
25497W        W45031   4.430  13.714   3.518  0.0297 -0.0023  0.2823
25498W        W45032   0.123  15.433   3.019 -0.2662  0.0160 -0.0087
25499W        W45033   7.181   3.141  16.158  0.3226  0.3383 -0.0427
25500W        W45034  14.270  13.451   5.201  0.3427 -0.0043  0.2286
25501W        W45035   8.663   3.137  13.314 -0.0330 -0.0812 -0.1629
25502W        W45036   3.771   7.182   3.548 -0.1321 -0.1542  0.0674
25503W        W45037   7.904  13.345   2.484 -0.2852  0.1198 -0.0820
25504W        W45038   2.188   7.693  12.944 -0.2548 -0.1442  0.0367
25505W        W45039  16.673  12.248   4.478  0.0595  0.1464  0.2056
25506W        W45040   7.966   4.141   2.720  0.3013 -0.1737  0.1437
25507W        W45041   7.333   7.163  16.138  0.1656 -0.0266 -0.3191
25508W        W45042   8.188  11.576  15.131 -0.0742  0.2411  0.0807
25509W        W45043  16.954  15.524   1.147  0.0708  0.0002 -0.1018
25510W        W45044   0.662  16.423  14.965 -0.1525 -0.2254 -0.0867
25511W        W45045  12.743   9.273   0.911  0.2148 -0.0422 -0.0863
25512W        W45046   3.356   1.259   1.218  0.0107  0.1694 -0.1060
25513W        W45047   6.499  14.576   2.878 -0.2209 -0.2947 -0.2716
25514W        W45048  11.613   9.838  15.690 -0.1950 -0.1826 -0.3617
25515W        W45049   3.594   9.877  12.359  0.1399  0.1422 -0.0471
25516W        W45050  10.016  11.489   0.589  0.0215 -0.1020 -0.1139
25517W        W45051   8.988  15.096  13.353  0.4994  0.0490  0.0094
25518W        W45052  11.256   2.697  14.592  0.1737 -0.2912 -0.0451
25519W        W45053  16.338   6.796   3.360  0.0996  0.1663  0.0844
25520W        W45054  15.969  15.759   3.688  0.2886 -0.1335  0.2912
25521W        W45055   3.901   1.622   4.684 -0.0490 -0.0678 -0.0295
25522W        W45056  10.606   1.677   0.769  0.0618 -0.2772  0.1354
25523W        W45057   1.715  10.629   3.175  0.0870  0.0298 -0.0569
25524W        W45058  10.428   5.878  14.794  0.1844 -0.0963 -0.2243
25525W        W45059  11.813  16.202  11.986  0.1523 -0.1472  0.0096
25526W        W45060   1.216   5.022   2.870 -0.0152  0.2792  0.0005
25527W        W45061   9.228   4.577  15.071 -0.1593 -0.1063  0.1497
25528W        W45062  15.102  11.888  12.598  0.0338  0.0353  0.1090
25529W        W45063   2.776   4.726  14.071 -0.1943  0.0582 -0.2096
25530W        W45064   3.534   5.670  15.544  0.1011  0.1110  0.0272
25531W        W45065   0.179  10.852   3.749  0.2612  0.2206  0.0083
25532W        W45066  12.413   0.308  13.056  0.3673 -0.3243  0.0170
25533W        W45067  15.358  12.351   1.852  0.0607  0.1244  0.0237
25534W        W45068  12.682   7.109   0.427 -0.0750  0.1807 -0.0920
25535W        W45069   8.491   6.183  15.589  0.2354 -0.1671 -0.2093
25536W        W45070  10.579  12.226   3.179 -0.0618 -0.1167 -0.1491
25537W        W45071   2.920   8.153   1.286 -0.0008  0.0960 -0.1112
25538W        W45072   2.441   4.343   0.821  0.1592  0.0453  0.0024
25539W        W45073   8.651  11.211  14.523  0.2300 -0.2634  0.1051
25540W        W45074  12.844   9.686   0.449 -0.1456 -0.0295 -0.0086
25541W        W45075   9.834   0.300   4.755  0.1206 -0.2023 -0.1080
25542W        W45076  13.938   7.427  15.612  0.1823  0.1389  0.0800
25543W        W45077   0.779  14.667   4.636  0.0173  0.1552  0.1532
25544W        W45078  17.129   2.698   0.589  0.1623  0.1523  0.0023
25545W        W45079   6.829   4.874  17.185 -0.1197 -0.2035 -0.0033
25546W        W45080   2.007  13.502   4.461  0.0366  0.2463 -0.0559
25547W        W45081   8.253   7.603   5.129 -0.3333 -0.0844 -0.4480
25548W        W45082   5.399  16.133   1.192 -0.0392 -0.1574 -0.1283
25549W        W45083  13.716   7.529   4.976  0.0312 -0.0264  0.2154
25550W        W45084  16.633   7.446  15.521  0.6304  0.0644  0.1848
25551W        W45085   9.187  11.721  16.847 -0.1978 -0.1337 -0.1498
25552W        W45086  17.204  11.296   0.085  0.2283  0.0215 -0.0527
25553W        W45087   7.190  13.747  12.998  0.1149 -0.1995  0.0660
25554W        W45088   3.419  10.209   3.193 -0.0461 -0.0519  0.3538
25555W        W45089   5.494  16.416  15.534  0.1628 -0.0222 -0.1027
25556W        W45090  11.084   0.793   1.938  0.0549  0.1220 -0.1634
25557W        W45091   1.075  14.978   1.048 -0.0067  0.0919  0.1065
25558W        W45092   9.483  16.813   1.371  0.0249 -0.0078  0.0797
25559W        W45093   4.337  14.521   0.028 -0.2103  0.0844 -0.0836
25560W        W45094   4.354   9.334  12.942 -0.1523  0.2558 -0.0310
25561W        W45095  15.134   0.539  17.058  0.0943 -0.4389 -0.0751
25562W        W45096  14.302  17.143   4.777  0.0141  0.4454  0.1372
25563W        W45097   6.984   8.956   0.792 -0.4154  0.1387 -0.2278
25564W        W45098  12.306  10.024   4.328  0.1263  0.0055  0.2015
25565W        W45099  14.621   0.715  15.289  0.0134 -0.3489 -0.0278
25566W        W45100  13.947   4.060   5.010  0.0240  0.0000  0.1626
25567W        W45101  11.905  16.500   1.543 -0.2213  0.0229  0.1907
25568W        W45102   7.465   5.053  12.359  0.1187 -0.0611 -0.1041
25569W        W45103   2.159  15.092  13.592  0.1515 -0.1376  0.2594
25570W        W45104   1.324  16.339   4.798 -0.1617 -0.0725 -0.0557
25571W        W45105  14.732  11.255   1.551 -0.0610  0.2030 -0.0068
25572W        W45106   6.293  12.184  14.495 -0.4854  0.0733  0.1386
25573W        W45107   5.799   3.813  14.221 -0.2104 -0.0989 -0.0746
25574W        W45108   4.653  11.129   0.231 -0.1671  0.1661  0.4172
25575W        W45109   8.900   1.124  15.717 -0.1324 -0.0314 -0.1267
25576W        W45110   2.259   9.013  12.971  0.0046  0.0646  0.0323
25577W        W45111  10.820  11.583   2.866 -0.0529  0.2476 -0.1697
25578W        W45112   2.769   4.715   4.788  0.1332 -0.1984 -0.0105
25579W        W45113  11.245  10.254   2.088 -0.0074 -0.0227 -0.0980
25580W        W45114   2.147  17.419  14.631  0.2146  0.0357  0.2180
25581W        W45115   0.620   5.906  14.493 -0.3147  0.3122 -0.2760
25582W        W45116  13.442   4.293  13.442  0.1228  0.0230  0.0206
25583W        W45117  13.844   7.863   4.131  0.0799 -0.0626 -0.2119
25584W        W45118   1.615   6.940   3.790  0.1020 -0.2023  0.3937
25585W        W45119  16.505   0.408  15.321  0.0479 -0.0864  0.0675
25586W        W45120  12.597  10.320   2.548 -0.0508  0.1772  0.0202
25587W        W45121   3.376   6.751  15.896  0.2156  0.1122  0.0328
25588W        W45122  16.601   4.799   4.708  0.2056  0.1831 -0.0107
25589W        W45123  17.085  11.357  12.616  0.0368 -0.0552  0.1781
25590W        W45124   9.898   9.758   3.756 -0.0428  0.3242  0.0343
25591W        W45125   2.442   5.380   1.530  0.0144  0.0732  0.1529
25592W        W45126  12.362  16.034  16.616 -0.2529  0.1020 -0.1732
25593W        W45127   4.821  15.899   2.595  0.0243  0.0658 -0.0832
25594W        W45128   1.946  11.300   0.943  0.1664 -0.3219 -0.0808
25595W        W45129   3.189  11.922  11.327 -0.1867 -0.1808 -0.0405
25596W        W45130  15.815   5.539   5.039  0.2325  0.1188 -0.0838
25597W        W45131   1.624  16.457  15.298 -0.3924 -0.0801  0.1193
25598W        W45132   0.021  12.742   1.183  0.1562  0.2252 -0.0254
25599W        W45133   1.067  14.428  14.184  0.3150  0.2963  0.1147
25600W        W45134  12.833   7.997   4.829 -0.1067  0.2482 -0.1655
25601W        W45135   9.317   1.368   2.799  0.0599  0.2008 -0.0380
25602W        W45136   6.097   4.564   4.845  0.0535  0.0290 -0.1863
25603W        W45137   2.075  15.013   0.311 -0.2758  0.1043  0.2233
25604W        W45138   2.784   1.699   4.852 -0.1386  0.3034 -0.2304
25605W        W45139  17.407   2.609  13.260  0.0435 -0.1663 -0.0278
25606W        W45140  16.623   1.233   4.197  0.0032  0.0601 -0.0918
25607W        W45141   3.579   7.650   2.582 -0.2914  0.3369 -0.0298
25608W        W45142   7.779   6.638  12.458 -0.0889  0.2861  0.1703
25609W        W45143  14.892  12.666   1.617 -0.2038  0.1563 -0.0041
25610W        W45144  16.510  12.944  14.896  0.0545  0.0028 -0.1560
25611W        W45145   4.628  10.448  15.463 -0.0323 -0.0690 -0.0753
25612W        W45146   5.292  17.232   4.364 -0.2480  0.0354  0.1435
25613W        W45147  14.646  15.197   1.090  0.2522 -0.1637  0.2413
25614W        W45148   1.481   7.574  11.808  0.2437 -0.1489 -0.0606
25615W        W45149  17.164   0.403  12.147  0.0969 -0.1804  0.0489
25616W        W45150  12.022   2.718   0.680 -0.1461 -0.2971  0.4609
25617W        W45151  15.634   2.607   1.491 -0.1741  0.2856  0.0110
25618W        W45152   4.311  14.306  16.123 -0.2249  0.0779  0.0936
25619W        W45153  12.529   3.714   4.729  0.1068 -0.1227 -0.0592
25620W        W45154  15.608  10.666   0.010  0.0236 -0.2154 -0.2544
25621W        W45155  17.300  15.104   0.516  0.1612 -0.0960  0.0220
25622W        W45156   7.367   3.522   4.421  0.1017  0.0580 -0.0704
25623W        W45157  10.726  11.575   0.407 -0.0073 -0.3002 -0.0259
25624W        W45158   9.442   2.196  14.687  0.1290 -0.1447 -0.1199
25625W        W45159  12.875   9.314  13.364  0.0903 -0.0177 -0.1961
25626W        W45160  10.777   7.038   0.102 -0.1308 -0.1059  0.3186
25627W        W45161  13.687  13.569  14.538  0.2448  0.2969  0.1761
25628W        W45162   1.582   8.091  13.647  0.1418  0.0013 -0.1199
25629W        W45163  11.600   1.694  12.807  0.0598  0.1858  0.0220
25630W        W45164   1.633   2.980   3.311  0.0585  0.3317  0.0239
25631W        W45165   8.107   4.466  15.293 -0.4267 -0.2144 -0.0884
25632W        W45166   4.300  15.028   0.162  0.0393 -0.0538 -0.0096
25633W        W45167  17.031  13.123  15.875  0.3257  0.0135 -0.0627
25634W        W45168   7.593   0.783   0.147  0.1590  0.0966  0.2037
25635W        W45169   1.113   7.204  13.265  0.4189  0.0241  0.1821
25636W        W45170   3.578   8.301   3.437  0.0682  0.1370  0.2132
25637W        W45171   5.915  14.161   4.460 -0.2368  0.0516 -0.0306
25638W        W45172   1.926  15.746   3.718  0.1872  0.0268  0.1172
25639W        W45173   5.641  16.718  15.083  0.1599 -0.1354  0.1935
25640W        W45174   8.070   2.883   1.100 -0.0265  0.1097 -0.3184
25641W        W45175   2.160   5.462   2.408  0.0425  0.1293 -0.0655
25642W        W45176  14.987   6.855  16.147 -0.2441  0.0513  0.0671
25643W        W45177   9.304   8.233  12.803  0.3396 -0.0760  0.0475
25644W        W45178  12.971  16.167   1.629 -0.1029  0.0992  0.2434
25645W        W45179  15.516   1.082  15.778 -0.0852 -0.1791 -0.3774
25646W        W45180  13.832   0.621   0.043  0.2758  0.0263 -0.0056
25647W        W45181  13.152  17.047  13.397 -0.3845  0.1048  0.1562
25648W        W45182   6.857   4.458   0.227  0.0346 -0.1081 -0.0375
25649W        W45183  10.745  10.378   0.385 -0.0083  0.0076 -0.4113
25650W        W45184   4.686   4.039  15.111 -0.0004  0.1446 -0.1004
25651W        W45185   8.666  13.747   2.254 -0.0270  0.0236 -0.1494
25652W        W45186   9.929  14.543   5.574 -0.1445 -0.0435 -0.2386
25653W        W45187   6.222   2.900   3.697  0.3916  0.0843  0.1885
25654W        W45188   8.536  17.405  15.097  0.3692  0.0016  0.1208
25655W        W45189  13.588   4.663   0.789  0.0747  0.0909 -0.0062
25656W        W45190   2.923  14.089   1.061  0.0960 -0.1090 -0.0182
25657W        W45191   5.418  14.299  13.343 -0.0476 -0.2146 -0.1483
25658W        W45192  10.823   9.441  17.026 -0.0941 -0.0756  0.1102
25659W        W45193   4.528  13.119  17.106 -0.1857 -0.0364 -0.1967
25660W        W45194  15.964  17.193  12.332  0.0571 -0.0019 -0.0301
25661W        W45195   8.574  12.323   4.251  0.2555 -0.1490 -0.1666
25662W        W45196   8.436  16.608   0.384  0.0131 -0.0976  0.2236
25663W        W45197   9.863  11.316  13.127 -0.0534 -0.0899  0.1178
25664W        W45198   8.413   5.204   0.290 -0.1024 -0.2496  0.0740
25665W        W45199  11.919  15.748   4.443 -0.1053  0.0485 -0.0100
25666W        W45200   3.821   0.399   3.006  0.1888  0.2504 -0.1582
25667W        W45201   6.155   1.716  12.960  0.0155  0.2093 -0.1497
25668W        W45202  14.066   3.011  16.608 -0.0390 -0.1097  0.1180
25669W        W45203   3.723  15.320  14.253  0.0737 -0.0891  0.0715
25670W        W45204   7.682  12.565   5.137 -0.0079 -0.4671  0.1277
25671W        W45205   4.317  11.344   3.448  0.2244  0.5139 -0.1487
25672W        W45206   8.310  14.883   4.314 -0.0901 -0.3450 -0.2605
25673W        W45207  11.793   4.840   0.246  0.2306  0.2389 -0.0876
25674W        W45208   6.854  16.990  12.757  0.1665  0.0892  0.0755
25675W        W45209  10.129   0.202  15.989 -0.1791 -0.0663  0.3364
25676W        W45210  10.988   7.880   1.639 -0.0811 -0.2000 -0.3638
25677W        W45211   6.385   4.847  12.788  0.0102 -0.0139 -0.0518
25678W        W45212  12.478   7.426   4.651  0.1134 -0.2002  0.1998
25679W        W45213  14.261  12.299   4.985  0.1973 -0.1946 -0.2879
25680W        W45214  15.725  12.949   0.881  0.1158 -0.1119  0.0112
25681W        W45215  14.945   4.598  11.956  0.0623  0.2900  0.1980
25682W        W45216  10.642   0.071   1.607  0.1179  0.1340  0.0438
25683W        W45217   1.468   3.601  14.180 -0.0015 -0.2246  0.0546
25684W        W45218  10.013  11.102   0.915  0.2182  0.0451 -0.3177
25685W        W45219   1.970   0.747  14.766  0.0332 -0.0816  0.1383
25686W        W45220   5.089   6.395   2.866  0.2203 -0.2293  0.3096
25687W        W45221   2.246   5.885   5.088  0.0773 -0.0714  0.2056
25688W        W45222   0.342  10.069   2.110  0.4210  0.0808 -0.1284
25689W        W45223  11.199  16.750  16.969  0.1141 -0.2111 -0.1536
25690W        W45224   1.896   9.567  14.822 -0.0973  0.3097 -0.1361
25691W        W45225   0.361   2.794  17.039  0.1004 -0.0231 -0.0508
25692W        W45226   8.231  14.462  16.498 -0.0830 -0.0793  0.0702
25693W        W45227  14.786   2.007  14.457 -0.0491 -0.1104  0.0843
25694W        W45228   1.425  12.846  13.021  0.1697  0.2704  0.1757
25695W        W45229  17.194  16.061   1.691 -0.0680 -0.3145 -0.1974
25696W        W45230   6.199   5.038  17.243  0.1435  0.0542  0.1221
25697W        W45231  15.948   2.645  11.535  0.1441  0.2221  0.3050
25698W        W45232   2.287   8.828   1.581  0.0430  0.1212  0.1428
25699W        W45233  13.342   5.696  15.869  0.2012 -0.1299  0.0262
25700W        W45234  11.592  14.130  16.707 -0.1442 -0.1171  0.2009
25701W        W45235   6.793   8.010  16.977  0.1318  0.1589 -0.5104
25702W        W45236   4.013   8.171  16.597 -0.1703  0.4840  0.1425
25703W        W45237  16.864  15.327   3.450  0.0110 -0.3467  0.1799
25704W        W45238  16.350  10.699  14.657  0.3002  0.3182  0.0023
25705W        W45239   1.910  12.994   2.381 -0.2260 -0.2556  0.0600
25706W        W45240  14.196  14.796   1.358 -0.1307 -0.1559 -0.0102
25707W        W45241  11.992  11.604   3.361  0.0080 -0.0417  0.1539
25708W        W45242   8.976   0.263   0.108  0.1094 -0.0548  0.3071
25709W        W45243  11.465  15.300   5.172 -0.2511 -0.0792  0.0547
25710W        W45244   5.072   7.670   0.231 -0.4895 -0.1411  0.1514
25711W        W45245   1.081   9.987  16.389  0.1430  0.0209  0.3199
25712W        W45246   3.926   3.660  13.158 -0.0675  0.0860 -0.2976
25713W        W45247  16.778  13.977   2.217  0.1310  0.1101 -0.2097
25714W        W45248   8.690   8.658   2.446  0.2252  0.0293  0.4746
25715W        W45249   3.292  16.630  12.101  0.0601  0.1047  0.2619
25716W        W45250   7.552   4.097  16.454 -0.1940  0.2706  0.0249
25717W        W45251   3.315  11.454   2.014 -0.1141  0.1806 -0.1648
25718W        W45252   8.873  13.845   3.912 -0.1873 -0.0128 -0.3876
25719W        W45253   8.773   2.099  15.526 -0.0302 -0.0455  0.2415
25720W        W45254  12.450   5.189  13.097 -0.3783  0.0671  0.1174
25721W        W45255  13.075   9.723   2.099 -0.0254 -0.0756  0.0842
25722W        W45256   9.820   5.341  15.789 -0.1120  0.1872  0.0968
25723W        W45257  11.709   1.488  16.571 -0.0461 -0.1103 -0.1882
25724W        W45258  17.402  12.999   3.667 -0.1759 -0.0692 -0.2666
25725W        W45259   8.142   7.984  14.212 -0.0623  0.0041  0.2014
25726W        W45260   1.285  14.773   4.685 -0.2136  0.1181  0.0815
25727W        W45261   4.121   8.101   1.915 -0.1403  0.1253 -0.0141
25728W        W45262  17.180  10.201  12.303 -0.2009  0.2150  0.1519
25729W        W45263   7.956  13.709  15.400 -0.0352  0.2460  0.0498
25730W        W45264   9.975   0.671   2.906  0.3606 -0.0254  0.0070
25731W        W45265   1.935   1.392   4.436  0.0730 -0.0930 -0.0391
25732W        W45266   4.710  12.549  15.356 -0.3034  0.2333  0.0742
25733W        W45267   0.985  16.798  14.132 -0.2519 -0.1810  0.1572
25734W        W45268   1.544  12.695  12.490  0.0804  0.0793 -0.0983
25735W        W45269   0.032   6.376   3.255 -0.3956  0.1264  0.1625
25736W        W45270   2.028   9.370  12.646  0.1835 -0.2287 -0.1262
25737W        W45271   6.273   0.468  15.306  0.1427  0.0233 -0.2130
25738W        W45272   6.201  15.580   2.675  0.0303  0.2587  0.1308
25739W        W45273   3.280  11.962  16.236 -0.0229 -0.0562 -0.2526
25740W        W45274  16.554   8.877  15.014  0.3520 -0.2557 -0.3127
25741W        W45275   0.073   2.665   1.485  0.0234  0.0244 -0.1530
25742W        W45276   5.565  12.055  13.735 -0.0056 -0.3329 -0.2723
25743W        W45277   3.712  11.938  12.980 -0.0717 -0.0909  0.1675
25744W        W45278   1.869  11.259   0.428 -0.3242 -0.0850  0.1050
25745W        W45279   8.726  17.136   2.980 -0.0115  0.0028  0.1001
25746W        W45280   9.199   1.793  12.818 -0.2163  0.1334  0.0560
25747W        W45281   8.714   4.739   1.988  0.2327  0.0316  0.0605
25748W        W45282   9.583  13.905  12.538 -0.3382 -0.0038 -0.1518
25749W        W45283   8.800   1.989   1.632  0.0582 -0.0162 -0.2002
25750W        W45284  17.331   6.296   0.925 -0.2196  0.1734 -0.1925
25751W        W45285  16.597  16.778   2.302  0.2800 -0.1444 -0.1288
25752W        W45286  17.464  15.951  14.047  0.2215  0.0768  0.0317
25753W        W45287   8.729   9.832   3.627 -0.0458 -0.1468  0.0626
25754W        W45288   5.910  17.082   1.032 -0.0788  0.3349 -0.0741
25755W        W45289  11.044  15.314   3.926  0.2938 -0.0598 -0.0663
25756W        W45290   4.731   4.180  17.025 -0.1026 -0.2323 -0.0879
25757W        W45291  10.472  15.203   1.206 -0.0796 -0.0589  0.2714
25758W        W45292   1.150  12.715  12.161  0.2429  0.3905  0.0928
25759W        W45293   6.764  14.663   4.174 -0.0569  0.1213 -0.0026
25760W        W45294  10.791   4.573   3.793  0.0425  0.2944  0.1913
25761W        W45295   3.634  15.083   5.014  0.2404  0.2424  0.1347
25762W        W45296   2.794  15.885  15.399 -0.0480 -0.1185 -0.0877
25763W        W45297  11.763  16.401   2.553  0.4806  0.0757 -0.4109
25764W        W45298   5.927  16.271   3.253 -0.0986  0.0267  0.2633
25765W        W45299   2.838   4.978  12.653 -0.0641 -0.2152 -0.1132
25766W        W45300   6.234   7.400   0.411 -0.1110  0.0516 -0.0437
25767W        W45301   5.198  15.167  15.902 -0.3563  0.0966 -0.2992
25768W        W45302  11.026   7.933  14.975  0.0577 -0.3067 -0.2040
25769W        W45303  10.874   9.562   0.943  0.3252 -0.2012  0.0470
25770W        W45304   3.860   9.671   1.090 -0.0817 -0.2333 -0.0191
25771W        W45305   1.254  17.199   0.342  0.1327 -0.1829 -0.2139
25772W        W45306  13.012   5.327   4.957  0.0710 -0.1084 -0.1986
25773W        W45307   6.629   2.914  16.927 -0.1395  0.1338  0.0823
25774W        W45308  14.368   8.781  16.660  0.2046  0.0618  0.1042
25775W        W45309  15.257   7.113  14.003 -0.0858  0.0571  0.1936
25776W        W45310   9.978  16.194  15.868 -0.0115 -0.0741  0.1203
25777W        W45311   7.355   9.925   4.114 -0.0280 -0.4003 -0.0169
25778W        W45312   5.468   3.332  16.543 -0.2344 -0.1505 -0.2932
25779W        W45313  16.983   4.148   4.250 -0.1635 -0.2792  0.0057
25780W        W45314   0.936  16.729   4.684 -0.1136 -0.0706  0.1210
25781W        W45315  11.100   8.519  15.825  0.1242 -0.1271  0.1508
25782W        W45316   2.602  10.417   3.002  0.2889  0.1147 -0.0280
25783W        W45317   6.174   0.193  13.434  0.2135 -0.2540  0.2350
25784W        W45318   9.940  12.248  17.085  0.0650 -0.3661 -0.0460
25785W        W45319   1.011   5.708  15.068 -0.0065  0.2102 -0.2310
25786W        W45320  12.913   9.381   1.697 -0.2682  0.2255  0.1624
25787W        W45321  17.164   4.900   0.226  0.0497  0.1186  0.0150
25788W        W45322  14.777   7.135  13.243 -0.0077 -0.3511  0.4599
25789W        W45323  16.348  12.399   1.380 -0.1630 -0.2359  0.1225
25790W        W45324  14.185   8.512  16.304 -0.0632  0.0994  0.0218
25791W        W45325  14.594  11.484  11.987 -0.2581  0.1807 -0.1780
25792W        W45326  13.815   3.765   3.662 -0.0560  0.0266  0.0498
25793W        W45327  17.295   5.469   3.120 -0.1282 -0.3404 -0.0320
25794W        W45328   9.741  17.035   5.112  0.0140 -0.2730  0.0910
25795W        W45329  12.204   1.011   3.026 -0.0972 -0.0818 -0.0102
25796W        W45330   3.176   4.127   2.429  0.1611 -0.0611  0.1165
25797W        W45331  12.034   3.183  16.893 -0.0753  0.1317 -0.0393
25798W        W45332  10.167   6.261  14.340 -0.2090  0.4610  0.3141
25799W        W45333   2.423   4.813  14.407  0.1426  0.1031 -0.2374
25800W        W45334   6.980   3.244  17.103 -0.0984 -0.1146  0.0808
25801W        W45335  16.346  16.278   2.177 -0.1730 -0.2768 -0.2990
25802W        W45336   2.255  16.030  13.033 -0.1579 -0.3795  0.1126
25803W        W45337  16.266   6.145   3.342  0.2438  0.2087 -0.2147
25804W        W45338  13.251   9.221  17.133 -0.0106  0.0382 -0.1326
25805W        W45339  15.627  15.445   1.130  0.1885 -0.0704  0.2299
25806W        W45340   9.013  15.546   1.373  0.0186 -0.1398  0.2037
25807W        W45341  10.749   6.499   0.270 -0.0986 -0.2403  0.1081
25808W        W45342  15.477   9.211  14.894 -0.3954 -0.1453  0.2239
25809W        W45343   3.778  16.034  11.768 -0.0721 -0.0101 -0.0750
25810W        W45344  14.518   3.183  15.657  0.1705 -0.0860 -0.2246
25811W        W45345   6.363   2.747   4.245  0.1361 -0.0304 -0.0729
25812W        W45346   3.317  16.226  12.527  0.1228  0.3374  0.1348
25813W        W45347   3.325  14.435   0.142 -0.3018  0.3184 -0.0404
25814W        W45348  16.562   5.275  13.742  0.0069  0.1391  0.1915
25815W        W45349   3.607  14.427  16.046  0.0648 -0.2224  0.1005
25816W        W45350  15.709  14.062   0.918 -0.1141  0.0797  0.2574
25817W        W45351   6.010   3.723   0.800  0.0359 -0.0297 -0.1782
25818W        W45352   5.912  13.231  15.655 -0.0121  0.1712  0.2962
25819W        W45353   5.253  12.212   3.564  0.1400 -0.0374  0.1085
25820W        W45354  11.849   5.824  13.249  0.1533 -0.1105  0.1445
25821W        W45355   8.790  15.805   5.117 -0.0552 -0.1898  0.1011
25822W        W45356  16.930   8.140  16.519 -0.4125  0.1392 -0.0427
25823W        W45357  14.864  16.627   3.763  0.2929  0.0791  0.2523
25824W        W45358   1.372  17.396   2.646 -0.2551 -0.0261  0.1850
25825W        W45359  15.460   2.076   0.754 -0.4632 -0.0858 -0.0782
25826W        W45360   3.340   0.320  16.957  0.1888  0.2275 -0.0265
25827W        W45361  15.037  15.086   2.739 -0.0971 -0.0932  0.2819
25828W        W45362   6.851  13.071  15.518  0.1168  0.1991  0.2544
25829W        W45363  13.060  16.848   0.899 -0.1301 -0.0050  0.0589
25830W        W45364   7.641  12.133  14.651  0.1028 -0.0717  0.0534
25831W        W45365   7.436  11.568  16.076  0.0090  0.0623 -0.1482
25832W        W45366   1.303   6.362   3.190 -0.2053  0.2359  0.3481
25833W        W45367  10.419   3.121  14.605 -0.0291  0.1107  0.3954
25834W        W45368   8.787   5.641  13.162 -0.2930  0.3361  0.4634
25835W        W45369  11.226   4.911   3.013  0.2724  0.0578 -0.0108
25836W        W45370  16.038  11.949   2.257  0.3054  0.0109 -0.2669
25837W        W45371   7.499   7.126   5.474 -0.0700  0.1153  0.0513
25838W        W45372  11.056   5.005   1.929 -0.3328 -0.0491  0.1096
25839W        W45373   7.062  14.948   4.457 -0.0625  0.1818  0.1024
25840W        W45374   9.274   3.045   2.098 -0.2006  0.0475 -0.0380
25841W        W45375   4.313   3.162  15.106 -0.0689  0.3329 -0.5466
25842W        W45376  13.794   6.566  12.974 -0.0905 -0.0986 -0.2274
25843W        W45377   7.000  12.813   0.028  0.3250  0.0534  0.0026
25844W        W45378   5.141  13.796   4.096 -0.1247 -0.1165 -0.1125
25845W        W45379   0.592   4.269   1.762  0.0701  0.0728  0.3086
25846W        W45380  12.627   3.147   5.176 -0.3508 -0.1715  0.1079
25847W        W45381   4.585   7.425   0.282 -0.1923  0.1058  0.1337
25848W        W45382   0.939   4.836   3.621  0.1000 -0.3407  0.0399
25849W        W45383   4.030   7.480   4.365  0.1190 -0.0924  0.2255
25850W        W45384   7.184   8.075  14.441  0.2595 -0.2520 -0.3747
25851W        W45385  14.965   2.990   4.409 -0.0199 -0.2239  0.2681
25852W        W45386   6.911   9.960  14.007  0.1022 -0.1374  0.0402
25853W        W45387  15.778   0.092  16.194 -0.2995 -0.3692 -0.1455
25854W        W45388  14.994  16.617  13.238  0.0227  0.0560  0.0493
25855W        W45389   9.955   6.654  14.130  0.1285  0.0737  0.0269
25856W        W45390   9.949   2.060  14.841  0.0343  0.1051  0.2019
25857W        W45391   6.403  13.574   0.480 -0.1566  0.2361  0.2999
25858W        W45392   9.885   0.923   2.175 -0.3956  0.0784 -0.0138
25859W        W45393   4.674  10.385   3.796 -0.1606  0.0925  0.0815
25860W        W45394   7.287   3.493  15.267  0.0454  0.3367 -0.0684
25861W        W45395   8.269   4.594   1.848  0.1019  0.0297  0.0073
25862W        W45396   3.172   4.076   1.229 -0.2761  0.2606 -0.1272
25863W        W45397   0.241   1.786  14.717 -0.1931 -0.3020  0.3119
25864W        W45398   7.921   5.901   2.686  0.0881 -0.2991 -0.1414
25865W        W45399  10.454   7.782  16.131 -0.0639  0.0305  0.0684
25866W        W45400   4.820   4.657   4.717  0.0381  0.1092  0.2178
25867W        W45401  15.191  11.098   2.337  0.0201 -0.2048  0.0388
25868W        W45402  12.762  14.603   3.129 -0.0733  0.0061 -0.1410
25869W        W45403  16.626   7.312   3.636  0.2635 -0.2865 -0.0745
25870W        W45404  11.829   6.602  15.548 -0.0303  0.1318 -0.1052
25871W        W45405   4.071   8.070   2.847  0.1090  0.0842 -0.3125
25872W        W45406  17.278   6.510   4.443 -0.0627  0.2136  0.2230
25873W        W45407   5.652  14.133  16.881 -0.1502 -0.2202  0.2281
25874W        W45408   9.757   6.055  12.497  0.0566  0.0516 -0.0842
25875W        W45409   9.882  16.465  13.383  0.0923  0.0348 -0.0344
25876W        W45410   8.637   1.541  15.612 -0.0532  0.2896  0.0919
25877W        W45411   9.794   1.325   4.154 -0.0556  0.1560 -0.2798
25878W        W45412   0.138   0.421  16.876 -0.1457  0.0129  0.0361
25879W        W45413  13.296   8.580  13.847  0.1026  0.0679 -0.1459
25880W        W45414   9.387  15.200  15.504  0.2706  0.0002  0.2718
25881W        W45415  13.191  12.447   5.166 -0.1696 -0.1144  0.1785
25882W        W45416   9.800   9.020  13.763 -0.1780  0.0669  0.1038
25883W        W45417   7.724  12.858  15.700 -0.4378 -0.1412 -0.2924
25884W        W45418   8.657   3.649   0.235  0.2464 -0.0317 -0.4074
25885W        W45419   9.598  13.545   6.243 -0.3072 -0.3199  0.0441
25886W        W45420   1.180  12.940   3.481  0.0609 -0.1806  0.0879
25887W        W45421   9.316   9.942  13.985  0.0540 -0.3194 -0.2505
25888W        W45422   8.165   0.076   2.985  0.0562  0.1750  0.3550
25889W        W45423   9.952   5.894   1.796  0.4700  0.1017  0.0426
25890W        W45424  16.790   1.139  17.014  0.2895  0.0504  0.0144
25891W        W45425  15.364   8.460  13.227 -0.1326 -0.0878  0.0912
25892W        W45426   8.307   7.961  13.705  0.1275 -0.2830  0.2172
25893W        W45427   2.543   4.787   1.450 -0.1362 -0.2250 -0.1530
25894W        W45428  16.851   1.870  13.273 -0.1429  0.3975 -0.3348
25895W        W45429  10.285  16.513  17.059  0.1679  0.0256  0.0996
25896W        W45430   5.469   9.055   3.414 -0.0818 -0.0574  0.3754
25897W        W45431   6.308   0.117   4.179  0.0068 -0.0196 -0.1302
25898W        W45432   7.120  16.822   3.513 -0.0526  0.0233  0.0676
25899W        W45433   5.021  14.601  12.882  0.0056  0.1851 -0.0886
25900W        W45434   0.627  17.390   1.576  0.2406 -0.1255  0.0763
25901W        W45435  12.625   4.363   1.063 -0.0242 -0.1815  0.0305
25902W        W45436  15.338   9.242  14.444  0.2185 -0.0455 -0.1312
25903W        W45437  11.195   3.390   4.813 -0.4443  0.2100  0.1526
25904W        W45438   5.758   6.983  14.972 -0.0083  0.3095 -0.1404
25905W        W45439  12.810  10.295  13.606 -0.0611  0.2758 -0.0038
25906W        W45440   8.156   1.547  14.406  0.0368  0.0395  0.1477
25907W        W45441   6.292   4.302  12.786  0.0786  0.0077 -0.1833
25908W        W45442  10.597   2.296  13.955  0.0291  0.0409 -0.0268
25909W        W45443   5.069  12.173   0.050  0.1082 -0.2153  0.0674
25910W        W45444   6.244   2.092   2.335 -0.0329 -0.0940 -0.2083
25911W        W45445   4.777   3.566  12.786  0.0324  0.1441  0.4926
25912W        W45446   7.173   7.371   3.610 -0.2050  0.1428 -0.0825
25913W        W45447  12.974  10.428  16.232 -0.0081  0.0535  0.0959
25914W        W45448  10.172   6.937  12.630 -0.0958  0.0447  0.1919
25915W        W45449  17.460   9.921  14.958  0.0087 -0.3716 -0.0191
25916W        W45450   5.933   0.635   4.667 -0.0427 -0.1258 -0.0562
25917W        W45451   4.751   2.246   0.574 -0.3837 -0.2155 -0.1854
25918W        W45452   4.930   2.432  16.697 -0.0492  0.0679  0.2088
25919W        W45453   5.390   3.874  15.857  0.0524  0.0725 -0.0293
25920W        W45454   2.588   6.252  13.848  0.0378 -0.1060 -0.1820
25921W        W45455   0.560  15.905  12.169  0.0345 -0.2243 -0.0445
25922W        W45456  14.544   5.747  12.949  0.0018  0.3292  0.0822
25923W        W45457   7.855  14.715   4.098  0.0181 -0.2820  0.2643
25924W        W45458   4.567  14.939   2.606 -0.1248 -0.0408  0.3032
25925W        W45459   1.619   1.783   1.942 -0.0007 -0.1221 -0.0309
25926W        W45460  17.338  10.926   4.573  0.1442 -0.1718 -0.1141
25927W        W45461   1.449  10.596   0.373  0.0630 -0.0393 -0.1174
25928W        W45462   2.052   4.506   1.316  0.0378 -0.1178  0.1602
25929W        W45463   0.053   6.258  13.200  0.4265 -0.1476  0.1557
25930W        W45464   8.304  13.938   5.612 -0.2806 -0.0275 -0.1077
25931W        W45465  13.224   4.880  14.083  0.1538 -0.1948  0.0752
25932W        W45466   3.645  10.673   3.917  0.0077  0.0452 -0.0559
25933W        W45467   4.731   4.758   0.979 -0.1053  0.0700 -0.1594
25934W        W45468  12.467  12.104  17.063  0.1637 -0.0706  0.1117
25935W        W45469  10.934  17.322   0.207 -0.0987 -0.1243  0.0997
25936W        W45470  11.615  14.586   0.236 -0.2412  0.1549  0.0941
25937W        W45471   4.113  15.695  14.412  0.1225  0.1016  0.1457
25938W        W45472   9.420  15.290   1.706  0.0690  0.1489  0.2685
25939W        W45473   0.771   4.381   3.362  0.1447  0.1193  0.0113
25940W        W45474  10.575   8.610   2.590 -0.0002 -0.0771  0.1171
25941W        W45475  14.313   9.489  15.056 -0.0444  0.1013  0.0547
25942W        W45476   2.756   2.322   4.621 -0.0116 -0.0413 -0.1345
25943W        W45477   6.744   2.192  14.157  0.1705 -0.0990  0.2449
25944W        W45478  13.999   7.593  12.590 -0.3260 -0.2112 -0.0523
25945W        W45479   1.518   5.578  12.481 -0.1210  0.1446  0.0806
25946W        W45480  13.257   4.379  12.511  0.0377  0.0676  0.2073
25947W        W45481   7.932  13.990   1.233 -0.0283  0.2138 -0.1343
25948W        W45482   4.605   8.555   0.149  0.2113  0.3748 -0.0459
25949W        W45483   7.896   3.397   2.648 -0.1073 -0.0054  0.2157
25950W        W45484  13.682  14.337   2.172 -0.1512 -0.0371  0.1935
25951W        W45485   2.747   4.221  15.352  0.2812 -0.1133 -0.1280
25952W        W45486  14.614   8.694  15.240  0.3691 -0.4207  0.3460
25953W        W45487   6.552  15.450   0.595 -0.2173  0.1912  0.1351
25954W        W45488  15.011   5.605  16.307  0.0156  0.1212  0.0165
25955W        W45489   8.560   6.626   0.937  0.3810  0.0752  0.1414
25956W        W45490   2.979  12.915   4.264 -0.1701 -0.2965  0.5435
25957W        W45491   3.684   9.173  16.436  0.1768 -0.1921 -0.1464
25958W        W45492  12.793  16.125  14.952  0.1860 -0.0100 -0.0264
25959W        W45493   3.776   4.261  17.176  0.2863 -0.2568 -0.2756
25960W        W45494   0.222  15.463  13.542 -0.2458 -0.0487 -0.4570
25961W        W45495  13.874   1.291   4.157 -0.3382 -0.0840 -0.0829
25962W        W45496   9.256   8.440  15.642 -0.0117  0.0650 -0.0713
25963W        W45497  10.781  15.152  15.548  0.1111 -0.1569 -0.1990
25964W        W45498   5.625  14.303  14.894 -0.0981 -0.0277 -0.0774
25965W        W45499   4.311  15.794  13.050 -0.1462  0.1226 -0.2559
25966W        W45500  13.475  14.250   4.903 -0.0821  0.0651  0.2180
25967W        W45501  11.140   7.750   0.305 -0.3088  0.2337  0.2078
25968W        W45502  14.888  13.998   5.046  0.0627  0.2162  0.0119
25969W        W45503  13.833  12.486  16.865  0.1908  0.1434 -0.0917
25970W        W45504   2.595  12.386   0.666 -0.0143 -0.0863 -0.1211
25971W        W45505   3.848  12.095  14.998  0.1842  0.0983  0.1221
25972W        W45506   6.678   9.466   4.838  0.0724  0.3154  0.0575
25973W        W45507   7.210  17.127  15.366  0.1805 -0.0844  0.0387
25974W        W45508   2.059   4.789   1.758  0.0595  0.1337  0.1412
25975W        W45509  10.189   5.908   1.184 -0.1365  0.1236  0.0722
25976W        W45510   4.895   1.965  16.950 -0.2973  0.0103 -0.2008
25977W        W45511  11.014   2.000  17.131  0.2064  0.1715 -0.1452
25978W        W45512  15.263   3.019  16.486 -0.4381 -0.0795  0.1142
25979W        W45513  15.237   5.416  15.839  0.0558  0.0165 -0.1847
25980W        W45514   1.112   0.165   3.615  0.0981 -0.2383  0.1706
25981W        W45515  10.762   6.915  12.318  0.5078 -0.0591  0.1013
25982W        W45516   1.208  11.457   5.388 -0.4503 -0.0672 -0.2350
25983W        W45517  12.269   2.773   5.000 -0.1835 -0.4496 -0.2316
25984W        W45518  11.115   1.493  14.528  0.1248 -0.0216 -0.2531
25985W        W45519   8.879  12.589  14.843  0.0840 -0.3231  0.1281
25986W        W45520   0.214  10.133   3.068  0.2163 -0.1236  0.4858
25987W        W45521  10.855   2.040  12.563 -0.0151  0.5381  0.5171
25988W        W45522  12.925  12.698   3.362 -0.0891 -0.0619 -0.1620
25989W        W45523  12.142   8.542  15.401  0.3062 -0.3223  0.1000
25990W        W45524   9.895  13.210   4.316 -0.1414  0.1511 -0.3302
25991W        W45525  13.380   4.011  16.195  0.2889 -0.0867  0.0481
25992W        W45526  13.208  14.503  15.351 -0.1408 -0.1525  0.0570
25993W        W45527   5.085   2.782   2.412  0.0031 -0.1623  0.1126
25994W        W45528  14.725   2.688   2.875 -0.1507  0.0947 -0.2979
25995W        W45529   6.331  10.243  12.555 -0.5707 -0.1951 -0.0058
25996W        W45530   7.958   6.429  16.539  0.1322 -0.0684 -0.1431
25997W        W45531   8.108   2.286  12.350  0.2536 -0.2545 -0.0795
25998W        W45532  16.373  16.527   3.620  0.0521  0.1199  0.0655
25999W        W45533  10.873  12.884  14.764 -0.1741  0.0807 -0.3873
26000W        W45534   8.019   3.824   0.777  0.0326  0.0123  0.1101
26001W        W45535  10.595   8.959   3.515 -0.0932 -0.1504 -0.2849
26002W        W45536   7.367   8.172   4.073 -0.0314  0.1072  0.1222
26003W        W45537   9.404  10.373   3.042  0.1177 -0.1145 -0.0217
26004W        W45538  13.917   3.291   0.113 -0.0276  0.0505  0.2988
26005W        W45539   1.000   1.632  14.246 -0.2180  0.0302 -0.0766
26006W        W45540   6.096   3.588  12.451  0.3628 -0.2480  0.2490
26007W        W45541   0.398   5.250   4.526 -0.0390 -0.1995 -0.0842
26008W        W45542  10.158  13.875  14.682 -0.0500 -0.2338 -0.1629
26009W        W45543  17.152   3.420   2.195  0.1144 -0.1911 -0.0927
26010W        W45544  11.765  14.204  13.257 -0.0609  0.0587 -0.2186
26011W        W45545   6.306  15.931   4.558  0.3477 -0.0250  0.1766
26012W        W45546  14.515   2.998  13.635  0.3315  0.1373 -0.1451
26013W        W45547   1.772  12.809   4.977 -0.1473 -0.2178 -0.0891
26014W        W45548  11.865  12.146   4.459 -0.0625  0.1253 -0.0690
26015W        W45549   0.146  13.266  13.885 -0.1600 -0.0583 -0.0892
26016W        W45550  14.254   8.676   2.665  0.1074  0.0709  0.1967
26017W        W45551  13.570   6.288  15.640 -0.1891  0.2165  0.2425
26018W        W45552   2.162  16.460  14.998 -0.1847 -0.0454  0.1136
26019W        W45553   3.084   7.691   1.362  0.4484 -0.2673  0.0981
26020W        W45554   4.222   1.353   2.538  0.1440 -0.1679  0.1368
26021W        W45555  14.041   4.008  16.768  0.3111  0.0081  0.1642
26022W        W45556  10.282   6.490   0.230  0.0223 -0.0685  0.3335
26023W        W45557   1.312  15.985  16.827 -0.1474  0.3469 -0.0209
26024W        W45558   3.082   5.993   0.790  0.2281 -0.0158  0.1110
26025W        W45559  14.547   0.143  14.593 -0.0641  0.0302  0.1230
26026W        W45560   5.898  11.935  14.597  0.1960  0.3716 -0.0629
26027W        W45561   6.758   3.886  13.927 -0.2071  0.0226  0.2637
26028W        W45562  14.847   6.963   0.254 -0.0039 -0.0816  0.0842
26029W        W45563   3.719   9.945  14.652  0.0347  0.0340 -0.1033
26030W        W45564   4.075   2.983   2.834  0.0148 -0.0937  0.0739
26031W        W45565   1.307  13.656   1.476  0.0468  0.3207  0.0011
26032W        W45566   6.276  11.478   1.095  0.2242  0.3494 -0.2819
26033W        W45567   4.207  10.049   1.094  0.2280  0.1245  0.1377
26034W        W45568  10.124  10.089   4.173 -0.1528 -0.1954  0.0508
26035W        W45569   9.772  10.906  16.771  0.0112  0.3686  0.0756
26036W        W45570   2.160  12.112  12.362  0.1313  0.1079  0.0242
26037W        W45571   3.278  15.339   0.237 -0.0555  0.2244 -0.2954
26038W        W45572  17.438   9.579  13.226 -0.0334  0.0674 -0.0731
26039W        W45573   5.513   3.471   2.264 -0.2191  0.1281 -0.3749
26040W        W45574   8.608  16.453   2.281  0.0001 -0.1081 -0.0271
26041W        W45575  16.887   9.667  15.514 -0.1261  0.3044 -0.1240
26042W        W45576   4.258   4.942  16.464  0.3246 -0.1512  0.0967
26043W        W45577  10.681   6.948  12.817  0.1302  0.3015 -0.4731
26044W        W45578   7.573  14.793  15.191  0.0051 -0.0770  0.1697
26045W        W45579  11.038   9.068  15.701 -0.1787 -0.0366 -0.2823
26046W        W45580   8.742  14.766   0.030 -0.2444 -0.0388  0.0725
26047W        W45581   8.405  11.381   0.004 -0.1976 -0.0524  0.0783
26048W        W45582   1.539   0.285  15.763  0.0709 -0.1414 -0.4370
26049W        W45583  12.339   7.866   4.834 -0.1234  0.0316 -0.2241
26050W        W45584   4.780  10.517  16.575  0.0210  0.1837 -0.0141
26051W        W45585  12.845   0.183  13.998 -0.2021 -0.1837  0.1197
26052W        W45586  15.439  16.536   3.018  0.1928 -0.0813  0.1230
26053W        W45587   8.381  12.441  14.948  0.1086 -0.2328 -0.1947
26054W        W45588   2.813  17.324  13.000  0.1027 -0.0945  0.1834
26055W        W45589  13.889  10.272   4.902  0.0466  0.1031  0.3489
26056W        W45590  10.717   7.898   4.265  0.2889  0.2665 -0.1383
26057W        W45591   0.560   6.084  13.895  0.0433  0.1820  0.0276
26058W        W45592   0.692  15.468  14.363 -0.0390 -0.2854 -0.2580
26059W        W45593   2.703   2.567  14.764 -0.3653 -0.1862  0.2846
26060W        W45594   4.180  10.444   0.073 -0.0258 -0.0238  0.6097
26061W        W45595   7.252   0.390   5.080 -0.0563 -0.0706 -0.0487
26062W        W45596  15.459  14.430   1.221  0.1491 -0.2461 -0.0513
26063W        W45597  11.736   4.150  14.112  0.2319 -0.0376  0.0289
26064W        W45598  15.229   5.000   3.158  0.0504  0.0249  0.2716
26065W        W45599   7.207  12.871   3.043 -0.0112  0.1101  0.0500
26066W        W45600  16.940   9.755   2.100  0.0239  0.0228 -0.3410
26067W        W45601   1.957  12.219   2.675 -0.2709 -0.2628  0.1766
26068W        W45602   5.036  15.937  15.328  0.1501 -0.1574 -0.2435
26069W        W45603   5.216   5.714  12.340  0.1982  0.1563  0.0515
26070W        W45604   3.574  14.488  12.652  0.1362  0.0666  0.1815
26071W        W45605   5.750   8.011  13.582  0.0295  0.0414  0.0198
26072W        W45606   6.392   1.418   4.719  0.2693 -0.0883  0.1525
26073W        W45607  16.164  16.794   5.486  0.1328  0.0949 -0.0859
26074W        W45608   5.004   9.358   4.807  0.0587 -0.1590  0.2984
26075W        W45609   2.464  15.213  14.111 -0.0752 -0.0382 -0.0251
26076W        W45610  15.752   3.565  14.212  0.1736 -0.0261 -0.1097
26077W        W45611   9.312  14.513   4.662  0.7063  0.1520 -0.1720
26078W        W45612   5.431   0.767   3.453  0.1001  0.0554 -0.1136
26079W        W45613   9.023   7.476   1.174  0.1533 -0.0663 -0.2891
26080W        W45614   2.286   2.875   4.640 -0.0660 -0.2321  0.2627
26081W        W45615   9.549   6.292  17.038 -0.1240  0.2765  0.0261
26082W        W45616  11.660   2.590  15.298  0.1725  0.0458  0.2473
26083W        W45617  11.978   3.209   0.910  0.0902  0.1748  0.1971
26084W        W45618  12.290  15.008  14.314  0.1671 -0.0350  0.1534
26085W        W45619  16.282  11.310   3.222 -0.0136  0.0368  0.0709
26086W        W45620  17.037  14.884   4.194  0.1383  0.0244 -0.1821
26087W        W45621  11.308  14.155   2.083 -0.2990  0.3268 -0.2054
26088W        W45622   4.019   3.791  12.305  0.0194  0.0073 -0.2404
26089W        W45623  16.470   9.225   2.560  0.0981 -0.4802 -0.0906
26090W        W45624   2.165  12.670   3.792  0.2490  0.2398  0.1197
26091W        W45625  13.775   3.500  13.154  0.1317  0.3698  0.1984
26092W        W45626   5.541  10.146   3.362 -0.2302  0.0296 -0.0256
26093W        W45627   2.747   8.896   2.508  0.1027  0.0537  0.0718
26094W        W45628   8.529   6.399   3.076 -0.0066  0.2121  0.1134
26095W        W45629  16.596   3.920   4.027  0.2316  0.2869  0.3237
26096W        W45630  15.587  17.290   3.479  0.1376 -0.0026  0.1491
26097W        W45631   2.743   7.379   4.196  0.3294  0.0119 -0.2446
26098W        W45632  10.997   2.516   4.446 -0.0005  0.0436  0.2267
26099W        W45633  14.695  13.594   1.743  0.1134  0.0019  0.1847
26100W        W45634   3.867  17.223   3.124  0.0450  0.2238 -0.0499
26101W        W45635   3.966  12.307  16.835  0.0408  0.1660  0.1461
26102W        W45636   9.658   5.700  13.723  0.3479 -0.1785  0.1856
26103W        W45637  11.980  17.289   4.153 -0.1770  0.0304  0.0016
26104W        W45638  11.499   1.697  13.698 -0.1793 -0.0085 -0.1819
26105W        W45639  11.795   2.403   3.023 -0.2715  0.1396  0.1030
26106W        W45640   9.634   2.753   3.858 -0.0609  0.0085 -0.1588
26107W        W45641  10.757  14.373  13.431 -0.1460 -0.1312  0.1952
26108W        W45642   9.311   1.356   4.321 -0.0352 -0.0335  0.0129
26109W        W45643  16.751  13.541  15.781 -0.0860 -0.3777 -0.2465
26110W        W45644  14.908   4.781   3.549 -0.1742 -0.2375  0.0580
26111W        W45645   1.330  13.908   2.071  0.1361  0.3885 -0.0772
26112W        W45646   8.852   1.779   0.675 -0.2694 -0.1730  0.4208
26113W        W45647   0.673   3.442   0.251 -0.1366  0.3970 -0.2136
26114W        W45648  17.111  10.087  15.682  0.1592  0.0491  0.1601
26115W        W45649   4.286  11.563   4.312  0.0471 -0.2158 -0.0198
26116W        W45650   7.389   6.746  15.200 -0.1266 -0.0671 -0.1423
26117W        W45651   7.815   9.791   2.423  0.1393 -0.0543  0.0426
26118W        W45652   2.979   2.196   0.008 -0.0133  0.2402 -0.1868
26119W        W45653  10.117   3.867   1.472 -0.0590 -0.1554 -0.1937
26120W        W45654   8.419  13.576  14.000 -0.0669  0.0251  0.0374
26121W        W45655   9.305  16.475   0.480 -0.3873  0.2260 -0.1789
26122W        W45656   4.847   0.499  13.089  0.0544  0.0059 -0.2053
26123W        W45657   1.399   2.581   4.123  0.1220  0.0140  0.0173
26124W        W45658  11.359   4.513  15.866 -0.1222  0.1689 -0.1274
26125W        W45659  14.181  11.402   1.490 -0.0532 -0.2672  0.0331
26126W        W45660  11.497  14.280  13.701  0.1627  0.0801  0.0788
26127W        W45661   1.107  15.700   4.343  0.2851 -0.1690  0.0198
26128W        W45662   9.890  13.025  15.922  0.5205 -0.0959 -0.0233
26129W        W45663   7.120   4.472   3.591 -0.0174  0.2710 -0.2209
26130W        W45664   6.296  15.759   3.480  0.0925 -0.1765  0.0021
26131W        W45665  15.474   9.278  17.135 -0.0991  0.0567  0.0726
26132W        W45666  12.775   9.061   2.631  0.0226 -0.1790  0.1419
26133W        W45667   1.420   5.124  14.702 -0.1681  0.1730 -0.2480
26134W        W45668   2.415  12.454   1.655  0.0063  0.0218 -0.0449
26135W        W45669  16.794  13.069   3.777 -0.0960  0.1239  0.1356
26136W        W45670  11.340   9.413  15.527 -0.0189 -0.1028  0.0200
26137W        W45671  16.968   8.423   4.241  0.0712  0.1651 -0.1178
26138W        W45672   7.589  10.899   1.815  0.1075  0.0751  0.0212
26139W        W45673  14.594  17.088   0.726 -0.4009 -0.0691  0.0395
26140W        W45674   4.919   4.962   5.098 -0.0403 -0.0827  0.6714
26141W        W45675   4.717  12.965   4.505  0.1889  0.1061  0.1722
26142W        W45676  10.436  10.664   1.565 -0.3210  0.0506  0.3249
26143W        W45677  15.083   8.338   4.359 -0.0479 -0.0209 -0.0519
26144W        W45678  15.026  13.219   2.498  0.0687 -0.3398 -0.1736
26145W        W45679   0.767   8.901  15.577  0.1562 -0.1751  0.1320
26146W        W45680  13.918   0.424   3.911 -0.2877 -0.0177 -0.1372
26147W        W45681   1.181  15.340  13.098  0.1966  0.2447  0.0361
26148W        W45682   7.265   2.712   1.776 -0.0268  0.1195  0.1188
26149W        W45683   8.622   7.711  12.790  0.0154  0.1113  0.2537
26150W        W45684  10.450   9.866   4.503 -0.0293 -0.1128  0.0885
26151W        W45685   0.139  14.332  12.567 -0.2240 -0.1605 -0.0183
26152W        W45686  15.665   3.840  12.939 -0.0871  0.0226  0.0298
26153W        W45687   6.061   1.907   2.740 -0.0056 -0.2132 -0.1364
26154W        W45688   9.225   8.028   4.288  0.0361 -0.0523  0.1302
26155W        W45689   1.978  10.746  13.091 -0.1735  0.1320  0.1502
26156W        W45690   4.888   4.859  12.358 -0.0582 -0.1929  0.2777
26157W        W45691  11.017  10.597  16.728  0.2747  0.0946  0.0310
26158W        W45692  15.999   9.368   2.087 -0.2239 -0.0663  0.0643
26159W        W45693   2.380  15.291  17.124  0.4049  0.0298  0.0953
26160W        W45694  10.221   0.944  14.013 -0.0407 -0.0301  0.0346
26161W        W45695  11.343  13.665  12.598 -0.0467  0.1496 -0.3047
26162W        W45696   8.648   7.627  14.999  0.1204 -0.1161  0.0852
26163W        W45697   0.327  13.612   1.429  0.2193  0.0327 -0.1006
26164W        W45698  15.980   2.233   3.157 -0.1413  0.2802 -0.3275
26165W        W45699   2.086   0.738   1.841 -0.0324 -0.0816  0.1201
26166W        W45700   0.028   1.359  15.628 -0.0923 -0.0708 -0.2238
26167W        W45701  10.766   6.849  14.580 -0.0240 -0.0846 -0.1807
26168W        W45702   3.925  13.582  15.285  0.1800  0.0218 -0.1492
26169W        W45703  11.067  15.689   2.693 -0.0835  0.1629 -0.1562
26170W        W45704   7.271   4.325   1.049 -0.0090  0.0270 -0.1067
26171W        W45705  16.760   1.896   3.353  0.3397  0.0063  0.1817
26172W        W45706   2.982   1.580   2.674  0.1438  0.2541 -0.0736
26173W        W45707   9.507  15.541   2.120  0.0361  0.0808 -0.0529
26174W        W45708   3.313  13.022  14.219 -0.2015  0.1320 -0.0979
26175W        W45709  16.126   4.694   4.751 -0.0385  0.0845 -0.0879
26176W        W45710  11.261   9.648   3.861  0.1015 -0.0602  0.1778
26177W        W45711  13.580   1.531   2.902 -0.1702  0.0173 -0.0323
26178W        W45712  15.005  10.498  12.763 -0.0485  0.0066  0.0942
26179W        W45713   5.871   4.131   4.529 -0.2310 -0.0197  0.1299
26180W        W45714  15.690   2.576  15.087  0.1233 -0.0627 -0.1534
26181W        W45715   2.975   2.791  16.453  0.0441  0.1035  0.1596
26182W        W45716   5.202   2.921  16.712 -0.1228 -0.1059  0.3920
26183W        W45717  10.054   7.834  16.467  0.1933 -0.0022 -0.1632
26184W        W45718  11.998   5.962  14.980 -0.1206  0.2635 -0.0256
26185W        W45719   9.963   7.405  15.530  0.2110 -0.3581  0.0237
26186W        W45720  16.756   1.342  14.592  0.0968  0.1484 -0.1471
26187W        W45721   0.132  17.417   1.738 -0.1794  0.1109 -0.2246
26188W        W45722  12.319   2.337  15.101  0.0503 -0.0527  0.0149
26189W        W45723   1.545   6.126  14.670  0.0411 -0.0251  0.0475
26190W        W45724   2.943   0.643  16.043  0.2177 -0.2223 -0.4300
26191W        W45725   1.241  15.952  13.173  0.0223 -0.1454 -0.3562
26192W        W45726  15.658   1.710   3.820  0.0638  0.2522 -0.0707
26193W        W45727   8.730   8.644  14.155 -0.2576 -0.2499 -0.0689
26194W        W45728  13.470   7.530  15.450  0.2118 -0.1184 -0.2671
26195W        W45729   9.284   8.964   2.292 -0.1551 -0.2813  0.0134
26196W        W45730   6.141   9.270  12.920  0.0308 -0.2745  0.2213
26197W        W45731  12.192   2.861  15.068 -0.3220  0.1259  0.0512
26198W        W45732   1.599   4.467   4.081  0.0812  0.0569 -0.2701
26199W        W45733   4.604  15.722  13.902  0.0661 -0.0641 -0.0507
26200W        W45734  17.369  10.051   1.902  0.1919 -0.1362 -0.0611
26201W        W45735   4.847  13.477   3.758  0.2167 -0.3195 -0.4034
26202W        W45736  14.498  13.685   0.802  0.1355  0.2514  0.0537
26203W        W45737   2.672  13.376  14.680 -0.1170  0.1084  0.0636
26204W        W45738   8.559   8.162  13.308  0.0929  0.1258 -0.0054
26205W        W45739   6.443  12.990   3.189  0.4122  0.3824  0.0354
26206W        W45740  14.722  11.908  12.244 -0.1184  0.0347  0.1996
26207W        W45741  10.124  13.932   0.531 -0.0224  0.1878 -0.0056
26208W        W45742   7.773   4.866  15.128 -0.1062  0.1878 -0.0230
26209W        W45743   1.789   9.157   0.771  0.0921 -0.0908 -0.2314
26210W        W45744   4.495   0.696   3.809 -0.1811  0.1804 -0.3840
26211W        W45745   7.109   7.299   2.631  0.1653  0.2023  0.0821
26212W        W45746  10.510   6.245  15.305  0.2159 -0.0730  0.0078
26213W        W45747  14.806   2.573   1.951 -0.2127 -0.1409 -0.1362
26214W        W45748   0.055  10.959  16.180 -0.0001 -0.0557 -0.3288
26215W        W45749   1.992  15.946  16.626 -0.0408 -0.2349 -0.1459
26216W        W45750  10.830  12.320   1.791 -0.1444  0.0448 -0.2648
26217W        W45751  12.332  16.753  15.122 -0.1334  0.1608  0.1040
26218W        W45752  15.691  15.396  14.415  0.1460  0.1012  0.4011
26219W        W45753   9.989  10.811  13.239 -0.1232  0.1138 -0.1609
26220W        W45754   7.967  15.541  12.603 -0.2726  0.0412 -0.2229
26221W        W45755   3.120   6.695   3.845  0.1970  0.3523  0.1261
26222W        W45756   2.158   7.566  16.327  0.1478  0.2825 -0.1394
26223W        W45757  10.624  13.128   4.926  0.3827 -0.1219  0.0569
26224W        W45758   8.499  15.507  14.278  0.0622  0.2538 -0.0615
26225W        W45759  12.746  16.960   1.815  0.0760  0.0846 -0.1523
26226W        W45760   4.992   9.494   4.116  0.0289  0.1729 -0.0916
26227W        W45761   2.193   0.476  16.849 -0.2263 -0.0679  0.2687
26228W        W45762   1.931   3.248   3.654 -0.0264  0.0278  0.0501
26229W        W45763   0.842  13.033   1.053 -0.0971 -0.1592  0.0482
26230W        W45764   5.800   3.471   0.391 -0.0742  0.1627 -0.0819
26231W        W45765  10.931   6.814   1.742 -0.0556  0.3694  0.4291
26232W        W45766  10.246   9.853   1.474  0.0674 -0.0436 -0.1366
26233W        W45767  10.466  14.583   2.456 -0.1164 -0.4764  0.1864
26234W        W45768   7.658   8.313   1.750  0.0362 -0.2733  0.1503
26235W        W45769   6.416   8.198   2.285  0.0912 -0.0620  0.2556
26236W        W45770   7.624   5.188  15.628  0.3403 -0.0748  0.1401
26237W        W45771   5.449   5.391   1.486 -0.0383  0.1172 -0.2665
26238W        W45772  14.296   9.161   1.127  0.0952  0.1543  0.2266
26239W        W45773   7.217  10.760  16.210 -0.0054 -0.0976  0.1538
26240W        W45774   7.081  10.762   2.102  0.0669 -0.0926 -0.0984
26241W        W45775   3.240  10.411   2.330 -0.2455  0.3789 -0.2368
26242W        W45776   4.056   1.529  15.866 -0.2487 -0.1440  0.0109
26243W        W45777   7.702   1.513   1.988  0.2854  0.0727 -0.4198
26244W        W45778  12.499  12.789   1.063  0.2057  0.0423 -0.0033
26245W        W45779   7.492  14.589   1.083 -0.1113 -0.0066  0.3147
26246W        W45780  12.919  15.453  12.156 -0.3919  0.0194  0.3360
26247W        W45781  15.903  14.144   4.988  0.1884 -0.1261  0.0249
26248W        W45782  15.988   9.379   4.363  0.0842  0.1996  0.2670
26249W        W45783   1.864  17.403  13.423  0.0405  0.1842  0.1284
26250W        W45784  11.433  17.101  13.114  0.1712 -0.1274 -0.1281
26251W        W45785   1.056   6.292  16.548  0.0763 -0.0814  0.0766
26252W        W45786  10.433   3.391   0.667 -0.2579 -0.0466 -0.1518
26253W        W45787  16.152  17.421  12.755 -0.1421  0.0668  0.1152
26254W        W45788   6.898   6.708  15.312 -0.1041 -0.1207  0.1020
26255W        W45789   4.506   0.417   4.442  0.0583 -0.0721  0.0260
26256W        W45790  14.990  11.975   0.498 -0.0109 -0.2333  0.1819
26257W        W45791   5.522  11.955   3.920  0.0429 -0.0032 -0.0754
26258W        W45792   9.337   3.843   0.276  0.1055 -0.0652  0.3837
26259W        W45793   8.979   7.088   5.141  0.1925 -0.0783 -0.1047
26260W        W45794  13.773   7.393  14.391  0.0737 -0.0931 -0.0588
26261W        W45795   3.358  10.858   0.315 -0.0656 -0.2006  0.1440
26262W        W45796  15.608   6.107  17.172  0.1282  0.0866 -0.1801
26263W        W45797  11.995  11.041   4.147 -0.1661 -0.1345  0.2086
26264W        W45798   7.549  14.908  13.608  0.1457  0.0052 -0.0257
26265W        W45799  16.942  10.574  15.483 -0.0661 -0.3440  0.1305
26266W        W45800  11.440  11.513   4.285 -0.1398  0.0630 -0.1560
26267W        W45801  17.276  16.920  16.188 -0.1823 -0.1034 -0.2042
26268W        W45802   2.914   2.801   4.665 -0.1025  0.0902 -0.0244
26269W        W45803   5.780   5.293   0.332 -0.0752 -0.3676 -0.0233
26270W        W45804  16.772   7.104   4.840 -0.1978  0.0678 -0.0189
26271W        W45805   2.197  13.186  13.311  0.2055  0.3602  0.1273
26272W        W45806   5.387  16.200  17.126  0.0911 -0.1318 -0.4012
26273W        W45807  14.847   4.761   2.793 -0.2757  0.1110  0.0375
26274W        W45808   8.312   1.755   3.090  0.0895  0.2647  0.4553
26275W        W45809  12.896  11.678  17.139  0.1052  0.0116  0.1659
26276W        W45810   5.435  14.702  15.820 -0.3019 -0.2739 -0.1110
26277W        W45811   4.640  13.383  14.866 -0.0342  0.0676 -0.2408
26278W        W45812   1.737   1.924  15.747 -0.0576  0.2430 -0.2065
26279W        W45813  16.255  15.885  16.737 -0.3097 -0.0197  0.0889
26280W        W45814   2.161  14.735   2.674 -0.0056  0.0088 -0.1221
26281W        W45815   4.831   7.687   0.671 -0.0066  0.1646  0.0339
26282W        W45816   0.546   8.223  16.587  0.0828  0.1587 -0.0755
26283W        W45817  10.611  10.889   2.252  0.1491  0.0357  0.1171
26284W        W45818  14.963   5.303   2.887 -0.2556 -0.1668 -0.2649
26285W        W45819  12.265   8.762  13.189 -0.0950  0.1938  0.0586
26286W        W45820  14.538  16.922   1.237  0.0542  0.0806 -0.1939
26287W        W45821  11.943  10.545  13.930  0.1369 -0.0788 -0.0573
26288W        W45822   8.004   1.882  13.478  0.0390  0.3344 -0.2004
26289W        W45823   5.021   4.416  12.665  0.2118  0.0952  0.2376
26290W        W45824   8.409  14.200   3.130 -0.3829 -0.4139  0.0053
26291W        W45825  13.492  15.757  15.679 -0.0397 -0.0166 -0.1473
26292W        W45826   0.034   6.010  14.718 -0.0890  0.0259 -0.2746
26293W        W45827   9.719  12.502  16.549 -0.2340 -0.0444  0.1969
26294W        W45828  14.050  14.781   4.478 -0.2858 -0.4594 -0.0094
26295W        W45829   3.827   6.492  17.160  0.0255  0.0671  0.0301
26296W        W45830   2.439   8.862  16.529 -0.0008  0.2271 -0.1985
26297W        W45831   1.024  10.695   0.105 -0.1698  0.2704  0.2269
26298W        W45832   4.902  14.507   1.613 -0.2212  0.0191  0.2349
26299W        W45833  13.405   7.062  12.206  0.0552 -0.2128 -0.1473
26300W        W45834  14.757   3.064  12.739 -0.2615  0.0232 -0.1890
26301W        W45835  11.796   3.643  14.059  0.0187 -0.1435  0.0288
26302W        W45836   1.672   9.049  16.566  0.0763  0.0322 -0.1530
26303W        W45837   0.441   4.055   4.179 -0.1263 -0.0739 -0.0572
26304W        W45838   4.883   5.733  14.000  0.0820 -0.3503 -0.2488
26305W        W45839   3.878   4.512  16.663  0.0215  0.0071 -0.1261
26306W        W45840  14.598   2.812   3.368  0.0021 -0.0492  0.3620
26307W        W45841   5.477   6.950   3.581 -0.0890 -0.1035 -0.0914
26308W        W45842   6.005  13.304  16.613  0.2393  0.3154  0.1810
26309W        W45843   5.843  15.345  16.594  0.0945 -0.0290 -0.0163
26310W        W45844   1.786   4.250  14.677 -0.0495  0.0068 -0.3201
26311W        W45845   2.839   0.595   0.739  0.2392  0.1931  0.0455
26312W        W45846  12.400   1.007   0.380  0.2077 -0.0958 -0.0203
26313W        W45847  13.075   6.287  13.228 -0.0698  0.0703  0.0418
26314W        W45848   3.135  10.179  14.501  0.2222  0.3539 -0.2171
26315W        W45849  11.938   3.356   0.403  0.3157  0.1208  0.1576
26316W        W45850   4.717   6.046  13.050  0.0739  0.1607  0.1024
26317W        W45851   6.339   2.171  16.605 -0.2371  0.3012  0.4543
26318W        W45852  15.552  13.887  14.420  0.0646  0.2907 -0.2839
26319W        W45853  10.691  13.445  14.957  0.2427 -0.0749 -0.1570
26320W        W45854   3.614  17.085  16.566  0.2322  0.2024 -0.2871
26321W        W45855  14.473   7.639  16.300  0.1471  0.0571  0.0906
26322W        W45856  12.961   6.133   4.167  0.0353  0.1475  0.2873
26323W        W45857  10.827   6.392  14.953 -0.1463 -0.0719  0.0659
26324W        W45858  11.874   2.043   1.889  0.1796  0.5006  0.2857
26325W        W45859   9.897  12.576   0.144  0.0048  0.0689 -0.0430
26326W        W45860   2.601   2.138  12.458 -0.0786  0.0633 -0.0530
26327W        W45861   8.947  15.191  16.129  0.0307  0.1126 -0.0772
26328W        W45862  15.886   7.870   1.097 -0.2363  0.0401 -0.1477
26329W        W45863  17.295  15.644   4.116 -0.2353 -0.2326 -0.0400
26330W        W45864  13.771  10.296   3.595 -0.2535  0.0616 -0.4294
26331W        W45865   9.799   9.419  17.052  0.0690 -0.0277 -0.1117
26332W        W45866   6.311  13.687   5.062  0.3915 -0.1936  0.2517
26333W        W45867   0.101  13.733  14.137  0.2463 -0.0141 -0.0233
26334W        W45868  14.679   4.029  14.141 -0.0580  0.0582 -0.1068
26335W        W45869   6.291   1.964   3.805  0.0687  0.1703 -0.0632
26336W        W45870   9.574  14.876   4.864  0.0859  0.1453 -0.0796
26337W        W45871   5.914   3.259   1.042  0.1222 -0.1412 -0.0628
26338W        W45872   6.643  13.643   1.846 -0.3075 -0.1919  0.1491
26339W        W45873  14.926  12.428   0.147  0.0348 -0.1929  0.3586
26340W        W45874  13.361   0.484  15.568 -0.0774 -0.1780  0.0169
26341W        W45875  11.361  11.574  16.929 -0.0746 -0.3759 -0.0298
26342W        W45876   8.186  11.574  16.748  0.0615  0.1762 -0.1613
26343W        W45877   2.758   4.352  13.690 -0.0161 -0.0852  0.0324
26344W        W45878   9.565  16.840   2.222  0.1240 -0.1611 -0.1208
26345W        W45879  10.144  17.305   0.298  0.1376 -0.1353  0.2116
26346W        W45880   0.488  16.091  13.995  0.1236  0.0225  0.2077
26347W        W45881  13.094   0.048  14.374  0.0560  0.0949  0.1862
26348W        W45882  10.088  10.293  14.736 -0.0026 -0.0148  0.0131
26349W        W45883  14.240   1.385   1.038 -0.1590  0.0288 -0.0132
26350W        W45884   5.344  14.731  14.796  0.1067 -0.0762 -0.0456
26351W        W45885   6.609   0.566   0.429  0.0604 -0.1411 -0.1496
26352W        W45886  12.281  12.507  13.561 -0.0229 -0.1734  0.1822
26353W        W45887   0.539   9.349  12.981  0.1002  0.0277 -0.0810
26354W        W45888  13.317   6.288  14.202  0.0050  0.0065 -0.2741
26355W        W45889   4.781  16.670   2.880  0.1226  0.1778 -0.0897
26356W        W45890   7.379   2.907   4.413  0.3885 -0.1181  0.2422
26357W        W45891   1.307   8.600  15.568  0.2016 -0.0926  0.1230
26358W        W45892  15.692   3.256  16.588  0.3438 -0.0576 -0.1555
26359W        W45893   7.630  14.074   3.340 -0.1148 -0.2302  0.0189
26360W        W45894  17.331   0.339   4.522  0.0250  0.0488 -0.1191
26361W        W45895   5.082  16.479   0.172 -0.4456  0.1068  0.0833
26362W        W45896   5.738  10.541   3.561  0.0449  0.0684  0.0752
26363W        W45897   7.571   3.461  17.309 -0.3034  0.0499  0.0673
26364W        W45898  12.679  14.774   1.302 -0.0396  0.1741 -0.0805
26365W        W45899  10.580   4.100  12.096 -0.2270 -0.4309 -0.0696
26366W        W45900   1.048   5.038  14.371  0.1335 -0.2235 -0.0091
26367W        W45901  12.736   0.855   3.332 -0.2037  0.0389  0.2136
26368W        W45902  17.086   1.485   3.334 -0.1567 -0.1049 -0.3271
26369W        W45903   5.986   0.835  12.542  0.1185 -0.3674  0.0753
26370W        W45904  13.151  16.211  13.713 -0.0060 -0.1021  0.1771
26371W        W45905   5.689   1.940  14.786 -0.1359 -0.2537  0.0097
26372W        W45906   4.067  16.839  13.483 -0.0297  0.0208  0.0771
26373W        W45907  12.449  12.841   4.155  0.0082  0.1948 -0.0672
26374W        W45908   6.302   0.879   3.427  0.0667 -0.0471  0.3045
26375W        W45909  11.020  10.453  15.657  0.3194  0.1256  0.0860
26376W        W45910  17.141   8.706  14.690 -0.2871  0.0635 -0.1109
26377W        W45911  11.061   8.889  16.186  0.0008 -0.2160  0.3164
26378W        W45912   8.842   6.594  12.668 -0.1857 -0.1235  0.1241
26379W        W45913   6.144  14.583   0.233  0.0444 -0.1441 -0.4258
26380W        W45914  16.019   1.909  14.685 -0.3176 -0.0162  0.0668
26381W        W45915   3.672  12.675  14.466 -0.0534  0.1125  0.0644
26382W        W45916   1.387  16.927   2.825  0.0168 -0.2321 -0.2890
26383W        W45917   4.135   2.645   3.236  0.4547 -0.0071  0.3259
26384W        W45918  12.557   7.375   1.934 -0.1510  0.1584 -0.0842
26385W        W45919   8.999   2.676  12.531 -0.0660  0.2448 -0.1912
26386W        W45920   4.385  15.079   2.148 -0.1510 -0.0987  0.3802
26387W        W45921  13.280   2.275  15.196  0.0783 -0.2624  0.1135
26388W        W45922   8.269   7.019   1.945 -0.0154 -0.1549 -0.1358
26389W        W45923   9.956  12.912   2.917 -0.0613 -0.0577  0.2684
26390W        W45924   1.240   2.669  15.670  0.0764 -0.0392 -0.0100
26391W        W45925   2.327  12.252  12.881 -0.0597 -0.0152  0.2063
26392W        W45926   4.456  16.768  11.439  0.0746  0.0762 -0.0440
26393W        W45927  13.429   4.307   1.717 -0.2047 -0.0373  0.1492
26394W        W45928  12.145  13.173   4.376 -0.0535 -0.0445 -0.0859
26395W        W45929  12.862   3.613  15.355  0.2839 -0.0140 -0.0886
26396W        W45930   6.797  16.462  14.958  0.2911 -0.0725 -0.0895
26397W        W45931  15.056   4.392   4.415  0.1273  0.1015 -0.4755
26398W        W45932  14.516   6.213   5.156 -0.0652  0.1086 -0.0233
26399W        W45933  10.026  12.237   3.995 -0.1239 -0.0911  0.0874
26400W        W45934   2.101  13.443   2.560  0.1077 -0.0173  0.1756
26401W        W45935   0.219  12.100   2.521 -0.0311  0.0649  0.0662
26402W        W45936   6.543   6.395  13.860 -0.3402  0.2917  0.0255
26403W        W45937  16.366  15.074   1.649  0.2083  0.0449 -0.0116
26404W        W45938  15.477   1.364  16.724  0.1175  0.0509  0.1963
26405W        W45939  12.367  12.424   3.787  0.0872 -0.0568 -0.0133
26406W        W45940   0.645  10.531   1.016  0.0979 -0.3789 -0.1872
26407W        W45941   9.646   1.934   2.232  0.3303  0.1049 -0.0597
26408W        W45942  15.551  16.694  12.634  0.0258  0.0737 -0.0971
26409W        W45943  16.972  13.590   4.215 -0.0377  0.1633  0.2099
26410W        W45944  13.310   2.576   4.996 -0.0616  0.1589 -0.0363
26411W        W45945  10.435   6.450   3.983  0.0141  0.1774 -0.2711
26412W        W45946  10.620  12.446   1.225 -0.4688  0.3265  0.2528
26413W        W45947  10.623  12.198  14.904  0.2299 -0.0277  0.1333
26414W        W45948  11.226   7.212   1.421  0.1375 -0.0567  0.2463
26415W        W45949   9.808  16.609   2.847  0.2549  0.3285 -0.1175
26416W        W45950   0.166   0.145  14.637  0.0603  0.4898 -0.2336
26417W        W45951   5.198   0.099  14.083 -0.0582 -0.2112 -0.0863
26418W        W45952  15.078  16.156   4.482 -0.1816 -0.2169  0.2446
26419W        W45953   3.066  12.607  17.195 -0.1324  0.2879  0.0695
26420W        W45954  13.646   1.307  13.969 -0.1084 -0.1340  0.3245
26421W        W45955  14.453   2.049   2.715 -0.1153  0.0878  0.0920
26422W        W45956   2.908   3.146  12.209  0.0994  0.0320 -0.0322
26423W        W45957  10.600   1.532   3.411 -0.4190 -0.1179 -0.0581
26424W        W45958  11.874   6.128   0.032  0.1636  0.1247  0.2068
26425W        W45959   7.611   7.824  15.042  0.1339 -0.0102  0.1076
26426W        W45960  11.106   6.717  15.811 -0.1253  0.0554 -0.1872
26427W        W45961   5.957  12.928  13.947 -0.1304  0.1021 -0.0818
26428W        W45962   9.126   0.148  12.553 -0.0627  0.0667  0.2094
26429W        W45963   1.696   9.486  13.638  0.0251  0.0079 -0.2350
26430W        W45964   4.304   9.913  15.549  0.0055 -0.0772  0.1219
26431W        W45965  12.202  15.092  16.306  0.0483  0.0394  0.0322
26432W        W45966   2.210  16.256   2.577  0.2216 -0.1475  0.1758
26433W        W45967  17.370   0.547  12.850 -0.3068 -0.3072 -0.0122
26434W        W45968   3.882  16.806  12.862  0.1022 -0.2091 -0.0228
26435W        W45969   1.599  14.645  14.827  0.4226  0.1754 -0.0781
26436W        W45970   5.615   4.941   0.689 -0.0661  0.0479 -0.2319
26437W        W45971   4.834   2.758   0.372 -0.0117  0.2628 -0.0223
26438W        W45972   2.527  13.199  15.192  0.3132 -0.1340  0.0097
26439W        W45973   7.557  12.939   2.617 -0.0466 -0.1266  0.1267
26440W        W45974   9.467   8.858   2.778 -0.0106 -0.0438  0.0708
26441W        W45975   4.251   6.030  12.440  0.0854 -0.1058  0.3784
26442W        W45976  17.349  10.936  14.582  0.0136  0.0809 -0.2246
26443W        W45977  12.468  15.973  12.887 -0.3265  0.3384 -0.1637
26444W        W45978   8.262   3.036   2.696 -0.0586 -0.3478  0.0144
26445W        W45979   3.713   0.865   2.379 -0.0018  0.3873 -0.2450
26446W        W45980   7.201  10.594  13.322 -0.3452 -0.0306 -0.0586
26447W        W45981   7.996  12.100   1.213 -0.4398  0.0571  0.1390
26448W        W45982   6.002   1.056   2.934  0.0109 -0.0502  0.0164
26449W        W45983  13.592  17.218   1.668 -0.0893  0.1820 -0.0306
26450W        W45984   8.190   9.302  14.445 -0.1334 -0.3467  0.0672
26451W        W45985   5.351  16.533  16.086  0.0707 -0.1615  0.1040
26452W        W45986   0.926  11.564  13.594  0.0475  0.0302 -0.1605
26453W        W45987   8.304  11.738   4.942  0.0625  0.0595 -0.2815
26454W        W45988   8.786   0.120   4.244 -0.2117  0.0584  0.2892
26455W        W45989   0.487   5.258  15.921  0.0083  0.2544 -0.0679
26456W        W45990  10.237  14.059  13.448  0.0396 -0.1928  0.0554
26457W        W45991   3.818  15.075  12.039 -0.1576  0.0477 -0.0571
26458W        W45992  13.188   2.878   2.947 -0.1176 -0.3173  0.0171
26459W        W45993  16.237  12.424   2.283  0.2810 -0.1978  0.2570
26460W        W45994   3.307   8.719   3.239 -0.0052 -0.0221 -0.0445
26461W        W45995   5.140   8.811   5.250  0.0315 -0.1770 -0.2179
26462W        W45996   2.999   8.831  15.456 -0.0269  0.0868 -0.1847
26463W        W45997   1.342  10.960   3.762 -0.1551 -0.1785  0.1704
26464W        W45998   6.349   9.172   2.493  0.1504 -0.2491  0.1323
26465W        W45999   3.857   5.272   3.262 -0.1633 -0.1172 -0.1000
26466W        W46000   5.939   3.448  13.115  0.1467  0.0666  0.0422
26467W        W46001   9.352  12.922  14.620  0.0741  0.2001  0.1892
26468W        W46002   1.490   9.787  13.951 -0.0468 -0.2062 -0.1182
26469W        W46003   9.132  12.559   1.643  0.0279  0.0541 -0.1135
26470W        W46004   4.232   5.437   5.241 -0.4335 -0.0657  0.1400
26471W        W46005   7.923   1.804  13.979 -0.0685  0.1889 -0.0046
26472W        W46006   3.489   8.225  15.291  0.1079  0.0103  0.2067
26473W        W46007  17.399   5.547   1.874  0.0676 -0.0647 -0.2544
26474W        W46008  10.183   4.793   0.387 -0.1981  0.2401 -0.0228
26475W        W46009  15.250   3.592  14.358  0.2748  0.1423  0.0062
26476W        W46010  14.940   1.329   0.637  0.0072  0.1196 -0.1223
26477W        W46011   7.277  17.126  15.976  0.0476 -0.2823 -0.0912
26478W        W46012  11.873  12.222  13.383 -0.0362 -0.2981  0.1588
26479W        W46013  15.805   1.755   3.317  0.0985 -0.0734  0.3021
26480W        W46014   8.681   0.107  15.972  0.0911  0.1786  0.4515
26481W        W46015  13.766  15.217   0.295  0.0389 -0.0652 -0.2036
26482W        W46016  17.362   8.496  12.023 -0.1262 -0.1414 -0.1113
26483W        W46017  16.497   4.609   2.640 -0.1391 -0.4693  0.0252
26484W        W46018  13.948  16.646  16.517 -0.0878  0.0891 -0.0094
26485W        W46019   8.683  13.966  14.073 -0.1002 -0.0971 -0.2203
26486W        W46020  13.451  12.928  12.747  0.1261 -0.2747 -0.1172
26487W        W46021   7.457   6.995   3.743  0.0271  0.4179  0.2180
26488W        W46022  11.848   5.037  15.344  0.0054 -0.1155  0.0706
26489W        W46023   1.043  12.223   4.312  0.3834  0.1522 -0.1337
26490W        W46024   8.694   4.533  14.978  0.1042  0.1484 -0.0314
26491W        W46025   3.346  14.916  16.184 -0.0511 -0.2520 -0.0176
26492W        W46026   6.651  10.034   0.161 -0.1293  0.2500  0.1099
26493W        W46027  16.546  13.454  13.704  0.2289  0.0945  0.3920
26494W        W46028  15.490   8.195  14.871 -0.0789 -0.1055  0.1691
26495W        W46029  16.692  16.614  13.370  0.0835 -0.0528  0.1170
26496W        W46030   0.879   2.989  15.765  0.0350 -0.1259 -0.1452
26497W        W46031   1.403  11.963   4.678  0.1448 -0.1808 -0.3852
26498W        W46032  16.195   4.737  16.851 -0.0370  0.0953 -0.0861
26499W        W46033  15.408   5.856  16.796  0.1718  0.0297  0.1246
26500W        W46034  11.402   9.122   1.421 -0.0709 -0.0452 -0.0774
26501W        W46035  16.922   2.625   1.193  0.2349 -0.1517 -0.0768
26502W        W46036  13.404  11.001   4.028  0.2308 -0.1395 -0.0587
26503W        W46037   7.093  13.566   4.888 -0.0440  0.0494 -0.0008
26504W        W46038  13.696  12.222   4.306 -0.1427  0.2498  0.1421
26505W        W46039   2.261   4.726  13.347  0.1482 -0.2038 -0.1910
26506W        W46040   9.267  13.397  16.740  0.1180  0.0419 -0.0089
26507W        W46041  13.837  14.561   0.413  0.0626 -0.0609 -0.1480
26508W        W46042   1.232  16.464   3.013 -0.0139 -0.1717 -0.2880
26509W        W46043  12.037  17.207  13.613 -0.1398  0.2703  0.2087
26510W        W46044   6.590  12.161   2.998 -0.1542 -0.2322  0.0428
26511W        W46045   7.463   9.306  15.727  0.1685 -0.2378 -0.0986
26512W        W46046   3.634  11.165  12.548 -0.1370 -0.1825  0.0141
26513W        W46047  15.772   4.930   4.000 -0.0108  0.0605  0.0274
26514W        W46048  12.010  15.983   1.575  0.4028  0.1716 -0.2120
26515W        W46049  17.399  10.488  14.321  0.1634  0.1219  0.0130
26516W        W46050  13.653  12.571   0.583 -0.0515 -0.0478  0.2811
26517W        W46051  12.778   5.663   1.457 -0.1863  0.0636  0.1420
26518W        W46052   9.820   0.812   0.609  0.5050  0.1995  0.1528
26519W        W46053  12.904   5.334  14.077  0.1148  0.2221  0.2323
26520W        W46054  16.404   9.217   4.548 -0.1921 -0.1577  0.0076
26521W        W46055  12.896   3.157   3.272  0.0063  0.2106 -0.1343
26522W        W46056  10.264   7.056   0.930  0.1243 -0.2376 -0.2042
26523W        W46057  16.446   2.241  13.302 -0.0136 -0.2777  0.3649
26524W        W46058   4.949   3.087   0.729 -0.0088 -0.2375  0.1749
26525W        W46059   4.573   0.136  16.828 -0.1546  0.1445 -0.0638
26526W        W46060   4.102   6.737  14.903 -0.1234  0.1842 -0.0775
26527W        W46061  12.594   0.147  13.576 -0.0445 -0.4800  0.1904
26528W        W46062   1.934   4.120   4.621 -0.2979 -0.0170 -0.1369
26529W        W46063   8.181  11.305   3.191 -0.1592 -0.2376 -0.1130
26530W        W46064  15.353   4.692  16.689  0.0830  0.1516  0.0817
26531W        W46065   1.838   1.772  14.544 -0.2286  0.1612  0.0256
26532W        W46066  14.479  15.884  14.643 -0.1984  0.0527 -0.0982
26533W        W46067   1.489  13.550  16.166 -0.0782 -0.1051  0.1549
26534W        W46068  11.387   5.190  15.039  0.0339 -0.1938  0.1050
26535W        W46069  13.781   0.249   1.684 -0.2116  0.2371 -0.0099
26536W        W46070  15.468  10.754   4.310  0.2164 -0.0593  0.0251
26537W        W46071   8.659   3.300   4.446  0.3795  0.0384  0.0518
26538W        W46072   2.536   3.626   4.079  0.1369 -0.1125  0.1360
26539W        W46073  17.215   8.955   0.507  0.1685  0.0080  0.0115
26540W        W46074   3.357  10.262   0.607  0.1427  0.3518  0.2567
26541W        W46075   0.323   7.211  16.394  0.1730 -0.1033 -0.1353
26542W        W46076  11.460   5.223   0.637 -0.0205  0.1909  0.0786
26543W        W46077   2.240   4.589  14.805  0.0794 -0.0603  0.1302
26544W        W46078  10.174  13.151   5.183  0.1816  0.1785  0.2259
26545W        W46079  10.726  16.421  13.722  0.2988  0.1605  0.1029
26546W        W46080  14.612  11.395   4.478 -0.0998 -0.1634  0.1079
26547W        W46081  16.068   2.581  13.466 -0.1020  0.1608  0.1071
26548W        W46082  11.359   4.252   4.401  0.0128  0.0621  0.0095
26549W        W46083   6.880   0.795  13.452 -0.2089  0.0309  0.2764
26550W        W46084  14.881  11.127  17.272 -0.0448 -0.0393 -0.0952
26551W        W46085   6.447  13.788  17.280 -0.0561  0.0222  0.0762
26552W        W46086  17.095  16.790   2.396  0.0913  0.1882 -0.1472
26553W        W46087   4.421   4.422  15.924 -0.0296 -0.0720  0.0508
26554W        W46088   4.021   2.591  16.270 -0.0951  0.3163  0.4230
26555W        W46089   1.032   3.421  13.234  0.1564  0.1102 -0.0316
26556W        W46090   9.390  11.586  14.350  0.0639  0.3319  0.2325
26557W        W46091  12.872  16.606  13.429  0.1048  0.0711  0.0404
26558W        W46092   6.808   0.054   1.220 -0.0563  0.2578  0.0068
26559W        W46093  16.644   5.632   0.740 -0.5563  0.1338 -0.1510
26560W        W46094   6.183   8.055  15.824  0.1727  0.2342  0.0924
26561W        W46095  11.585  15.402  13.995  0.0576  0.3242 -0.2329
26562W        W46096   5.161   9.360   3.178  0.0344 -0.0246 -0.0529
26563W        W46097   2.539  14.469  14.274 -0.2716 -0.1780  0.0821
26564W        W46098   3.727  13.895  14.849  0.1274  0.1321  0.1858
26565W        W46099   8.385  13.645   4.714 -0.3477  0.2446  0.0128
26566W        W46100   9.652   8.716  17.248 -0.1316  0.0619 -0.1923
26567W        W46101   3.538   3.363  17.243  0.0240 -0.1588 -0.3707
26568W        W46102   8.873   0.130   2.084 -0.1216 -0.2334 -0.3057
26569W        W46103   0.757   7.946   3.155  0.1568  0.2170 -0.0982
26570W        W46104  15.114   4.071  13.355 -0.2170 -0.0149  0.4745
26571W        W46105  10.602  11.034   3.164  0.0069 -0.3031 -0.1219
26572W        W46106   9.109   2.400  14.353 -0.0819 -0.1444  0.0178
26573W        W46107  15.046  14.734  12.221  0.3317  0.0020  0.1547
26574W        W46108  10.047   8.255  13.340  0.0864  0.0200  0.0864
26575W        W46109   7.619  17.147   2.449 -0.0514 -0.0701  0.1039
26576W        W46110   6.450  10.560  12.954 -0.0860  0.0329 -0.0534
26577W        W46111   7.889  13.499  17.173  0.2805  0.0073 -0.3758
26578W        W46112   3.558   5.666   0.883  0.2006  0.1922  0.0034
26579W        W46113   2.263  14.311  15.202  0.0384  0.3449 -0.1869
26580W        W46114  15.203  11.492  16.891  0.2097 -0.2222  0.1984
26581W        W46115   9.812  16.116   4.095 -0.0609  0.0666 -0.0418
26582W        W46116   2.657  10.032   0.112  0.2906  0.3695  0.0504
26583W        W46117   0.896   6.727  16.247  0.0957  0.0077 -0.2195
26584W        W46118  14.040   2.256   2.281 -0.0207 -0.0082  0.0807
26585W        W46119   0.945   5.594  13.610  0.0675  0.1142  0.1078
26586W        W46120   6.615   2.723   3.415  0.2739  0.1465  0.2587
26587W        W46121   0.702   7.662  15.338 -0.1149 -0.1672 -0.1718
26588W        W46122  14.376  15.486   0.744 -0.2494 -0.1470  0.3088
26589W        W46123   8.118  15.776   3.807  0.0901 -0.0605  0.0690
26590W        W46124  13.545   1.238   5.061 -0.1476 -0.2226 -0.1620
26591W        W46125  17.404   9.955  17.098  0.0341  0.0302 -0.1313
26592W        W46126  11.032  11.765   2.232 -0.0096 -0.0167  0.2323
26593W        W46127   0.399   4.122   2.177 -0.0490 -0.0924  0.3145
26594W        W46128   7.792  12.329  16.515  0.0193  0.1078 -0.3551
26595W        W46129  10.757   9.970  12.848  0.0351 -0.1843  0.1786
26596W        W46130   7.289   8.848  15.368 -0.3348  0.1311  0.2079
26597W        W46131   8.451   4.147   2.707  0.0109 -0.2344  0.1954
26598W        W46132   5.097   9.657  12.464 -0.0394 -0.0695 -0.4087
26599W        W46133   2.479   9.631  16.730 -0.3767  0.2620  0.2786
26600W        W46134   5.321   4.143   3.800  0.3812  0.1980  0.3059
26601W        W46135   7.174   2.396  12.306 -0.0678  0.0827 -0.0735
26602W        W46136   2.871   6.206   1.206  0.1149 -0.2115 -0.1917
26603W        W46137   9.006   2.446   1.353 -0.4121 -0.1492  0.0407
26604W        W46138   1.259   9.173  15.551 -0.1044  0.2160  0.0726
26605W        W46139   4.969   9.352   2.466  0.1358  0.0708 -0.1310
26606W        W46140   3.298  13.022   2.752 -0.0387  0.2618 -0.1723
26607W        W46141  13.952   9.601  16.007  0.1376 -0.0547  0.2092
26608W        W46142   5.695  14.878  14.066  0.1795 -0.1665  0.1916
26609W        W46143  16.698   0.625  16.959 -0.2184 -0.1638 -0.3944
26610W        W46144  10.361   8.940   3.013  0.1577 -0.0838  0.2800
26611W        W46145  11.091   2.790  13.344  0.0246  0.2939 -0.0899
26612W        W46146   5.749   7.239   4.385 -0.0911 -0.2736  0.0447
26613W        W46147   8.503  15.279  13.468  0.3107  0.1140  0.3069
26614W        W46148   4.573   1.462  15.656 -0.2245 -0.0425  0.2057
26615W        W46149   3.575   5.582  17.289  0.0056 -0.0973  0.0111
26616W        W46150   2.048   6.148  16.341 -0.1730  0.1282  0.0191
26617W        W46151   5.743   2.763   4.858  0.0669  0.1465 -0.0799
26618W        W46152  12.444  10.783   4.273  0.0910  0.3748 -0.0254
26619W        W46153   0.947   8.661  12.368  0.2945  0.0971 -0.1027
26620W        W46154  16.583   2.216   4.017  0.1498 -0.0936  0.0693
26621W        W46155  14.823   3.842  15.076  0.0154 -0.2118  0.2312
26622W        W46156  13.333  15.528   4.699 -0.2675 -0.2091 -0.2102
26623W        W46157   5.276   1.165   2.604 -0.2264  0.0969 -0.1022
26624W        W46158   6.234  14.051   4.056  0.0628  0.2361  0.0964
26625W        W46159   5.027   1.231   2.968 -0.0494 -0.3669 -0.1742
26626W        W46160  10.703  10.936  16.925 -0.0481 -0.2954 -0.0206
26627W        W46161   4.262   9.226  14.364  0.0265 -0.0870 -0.4794
26628W        W46162   4.372  17.174   2.809  0.1873 -0.3010 -0.1280
26629W        W46163   5.211   6.128  14.042  0.2108  0.1082 -0.2670
26630W        W46164  14.034  15.111  16.353 -0.1702  0.3959  0.1109
26631W        W46165   5.518   6.216  17.216  0.0919  0.0306 -0.0136
26632W        W46166  16.441  14.272  15.917 -0.3022 -0.1019  0.0425
26633W        W46167  15.930   9.077   1.681  0.2155  0.1930  0.2149
26634W        W46168  16.766   6.676  12.839 -0.0372 -0.0322 -0.0559
26635W        W46169   0.463   9.649   2.404  0.1972  0.0103 -0.0196
26636W        W46170  12.072  16.523   5.270 -0.0795  0.0153  0.1289
26637W        W46171   7.406   6.432  16.562  0.0114  0.4173 -0.1297
26638W        W46172  16.474   8.846   3.052 -0.3343  0.1957 -0.0892
26639W        W46173  16.207   9.139   5.034 -0.0135  0.0274  0.0088
26640W        W46174  16.738   9.411  14.341  0.1128 -0.0047  0.1604
26641W        W46175  15.894  16.475   1.930 -0.0018  0.4176 -0.2067
26642W        W46176   7.809   2.998   0.140 -0.1523 -0.1964  0.0358
26643W        W46177   4.679  10.168   4.230 -0.0381 -0.0360  0.0786
26644W        W46178   6.946  16.905   1.142  0.3094  0.2149 -0.2644
26645W        W46179  17.138  15.186  15.088  0.4348 -0.1295 -0.1044
26646W        W46180  14.770   9.944   0.647  0.4410 -0.1830  0.1030
26647W        W46181  15.416  10.511  14.720 -0.0296 -0.0429  0.1397
26648W        W46182   9.293  12.096   1.599  0.2159  0.4627  0.0672
26649W        W46183   2.822  14.221   4.187 -0.2511 -0.1271 -0.2867
26650W        W46184  10.407   4.240  13.689 -0.1220  0.1170 -0.1996
26651W        W46185   4.279   9.922   3.994  0.0479 -0.2250 -0.0168
26652W        W46186   9.842  16.549   1.180 -0.1136 -0.1686 -0.1193
26653W        W46187  16.391   6.279  13.637  0.1794 -0.1952 -0.0442
26654W        W46188   9.801   7.947  16.932 -0.2905  0.2171 -0.0702
26655W        W46189  14.973  10.848  15.148 -0.2755 -0.1831 -0.1204
26656W        W46190   1.635  13.301   2.672 -0.0434  0.1126 -0.2349
26657W        W46191  17.055   0.759   3.545 -0.0506  0.0461 -0.0003
26658W        W46192   1.296   4.410  13.632 -0.1624  0.2905  0.0602
26659W        W46193   0.585  17.025  14.021 -0.3800 -0.1517 -0.0730
26660W        W46194  15.702  13.781   2.163 -0.1040  0.1327  0.2818
26661W        W46195  10.865  10.420   1.192  0.0031  0.0622 -0.1348
26662W        W46196  13.583  15.693   3.416  0.0018 -0.1269  0.0079
26663W        W46197  14.234  16.748   0.439 -0.2139  0.0150 -0.1061
26664W        W46198   5.332   5.534   2.031  0.2475 -0.1514  0.2689
26665W        W46199  10.326   9.447   2.880 -0.2947 -0.2791  0.0130
26666W        W46200  16.803   2.187  14.209  0.1505  0.0342  0.0880
26667W        W46201   6.959  13.988   0.053  0.1557 -0.4617 -0.2318
26668W        W46202  13.331  16.035  17.136 -0.0620 -0.2414  0.1518
26669W        W46203   9.347  11.572   1.654 -0.2922  0.2286 -0.0414
26670W        W46204  14.600   4.462  12.721 -0.2541 -0.0902  0.0116
26671W        W46205   7.769   9.725   0.662  0.0648  0.0372 -0.0371
26672W        W46206   1.747   4.093   1.344  0.0120  0.0169  0.0255
26673W        W46207  14.591  13.119   4.605  0.2976 -0.2490 -0.1343
26674W        W46208  17.205   8.104   3.824  0.1079  0.2569  0.0193
26675W        W46209   4.018   2.672  12.963 -0.0559 -0.1184  0.2779
26676W        W46210  12.137   6.952   1.109  0.4093 -0.1060  0.3198
26677W        W46211  16.798  13.895  17.168 -0.1883  0.2651  0.1771
26678W        W46212   8.655   7.083  15.559  0.0760  0.2363 -0.1025
26679W        W46213   1.253   0.011   4.765  0.1734 -0.2328 -0.1548
26680W        W46214  15.273  12.961  15.702 -0.0988 -0.0466  0.1338
26681W        W46215   6.670   5.699  17.098 -0.0099  0.0845 -0.1886
26682W        W46216  15.978   2.141   4.091 -0.0605  0.0330  0.4812
26683W        W46217   8.505   6.775   2.746  0.0730 -0.0464  0.0220
26684W        W46218  13.961   5.050  13.563  0.1703 -0.0809 -0.2355
26685W        W46219   5.452   4.558   2.516 -0.0375  0.0959  0.1171
26686W        W46220   5.926   2.613   1.593  0.0268  0.0631 -0.2672
26687W        W46221  11.860   7.931   1.401  0.1581 -0.1850  0.1433
26688W        W46222   7.058   9.764   0.331 -0.1237 -0.4353  0.2741
26689W        W46223   9.809   5.224   0.198  0.0038  0.0133  0.1544
26690W        W46224  11.464   2.091  15.311  0.2346  0.0090  0.2687
26691W        W46225  14.112  10.643   3.488 -0.0005 -0.1298  0.1231
26692W        W46226  12.289   1.275  15.838  0.1716 -0.2185  0.3807
26693W        W46227  16.464  11.716  14.240 -0.1786 -0.0485 -0.2764
26694W        W46228   3.020   6.551  14.039  0.1354  0.3547 -0.2403
26695W        W46229  12.331   1.429  13.743 -0.1266 -0.0570  0.0162
26696W        W46230   6.103   9.358  14.818  0.1473 -0.0118  0.1721
26697W        W46231  15.235   5.456   2.513 -0.3521 -0.1786 -0.0407
26698W        W46232   7.008  16.235   5.031  0.0048  0.0289 -0.1061
26699W        W46233   4.313  17.449   3.232 -0.0472 -0.0315 -0.1529
26700W        W46234  16.603   8.037  15.735  0.0205 -0.1210  0.1420
26701W        W46235  14.459  15.027  15.036 -0.0908  0.4575  0.0879
26702W        W46236  15.869  16.185  14.833  0.1072  0.1566  0.0684
26703W        W46237  17.309  11.411   2.677  0.0777  0.3502  0.0381
26704W        W46238  14.232   9.004  12.275  0.2116 -0.0307  0.0704
26705W        W46239   2.348   1.160  12.629 -0.0330 -0.0838  0.2453
26706W        W46240   3.507   0.023   2.979  0.1114  0.0062 -0.1663
26707W        W46241   5.708   7.169   3.045  0.2422  0.0038  0.1756
26708W        W46242   4.963  15.324   1.396 -0.0872 -0.1543  0.0853
26709W        W46243  17.047   5.145   4.447 -0.1770 -0.0631 -0.1237
26710W        W46244  11.038   5.408  16.378 -0.0292  0.0534 -0.0955
26711W        W46245   6.173  16.822  13.766 -0.1340  0.0368  0.0713
26712W        W46246   2.798  16.741  12.127  0.0131 -0.3880  0.0141
26713W        W46247  17.199  17.148  14.000 -0.0873 -0.0478 -0.0172
26714W        W46248   6.420   6.692  17.156 -0.1091  0.0714  0.1113
26715W        W46249  10.594  15.097   4.189 -0.0197  0.0974  0.1741
26716W        W46250  13.573  15.148   1.069  0.2366  0.0314 -0.2027
26717W        W46251   9.956  16.490  16.585 -0.1773  0.0195  0.0363
26718W        W46252  10.235   3.546   5.271  0.2771  0.0503  0.0074
26719W        W46253  14.040  17.304  16.048 -0.1377 -0.1131 -0.1241
26720W        W46254   9.323   9.552   2.595  0.4542  0.1048  0.1448
26721W        W46255   8.571  12.403  16.503 -0.1290  0.0192  0.3000
26722W        W46256  14.184  14.239   2.145 -0.0668 -0.0911  0.0840
26723W        W46257  15.480  16.562   4.433 -0.0397  0.1707 -0.0827
26724W        W46258   7.018   8.136   4.874  0.1072  0.2520 -0.1242
26725W        W46259  10.068   0.535  14.330  0.0218 -0.0236  0.0065
26726W        W46260  14.094   9.316  13.789  0.1212  0.0095 -0.1515
26727W        W46261   0.411  13.497   0.388  0.1167 -0.1634 -0.2887
26728W        W46262  11.015  13.002  13.111 -0.1018  0.1469  0.3312
26729W        W46263   3.498  13.025  12.756 -0.0156  0.0105  0.2731
26730W        W46264   5.113   3.967   5.226  0.3474  0.2358 -0.2303
26731W        W46265   3.030   2.788   4.181 -0.2765  0.1747  0.0507
26732W        W46266   8.037   0.184  15.639  0.1613 -0.1089 -0.0373
26733W        W46267  11.090   1.992  13.965  0.1200  0.2792  0.4019
26734W        W46268   3.862   6.483  15.780 -0.1703 -0.4900  0.0544
26735W        W46269   5.879   0.125  16.133  0.1233  0.4111 -0.0387
26736W        W46270  14.178   0.634   4.288 -0.1021  0.1990 -0.0330
26737W        W46271   1.804   1.491  12.002 -0.1636  0.0370 -0.2289
26738W        W46272   4.488   0.077   0.499 -0.0121 -0.0022 -0.0448
26739W        W46273  16.052  15.397  16.893  0.0227  0.0719  0.0119
26740W        W46274   6.276  10.267  15.371  0.0127  0.4065 -0.0466
26741W        W46275   3.668   3.456   5.437  0.0082 -0.3519 -0.0375
26742W        W46276   8.731  10.339   3.665  0.0539  0.2568 -0.0081
26743W        W46277   4.394  15.474   3.917  0.2775  0.1698  0.1634
26744W        W46278  11.535   3.111  16.194 -0.1068 -0.2010  0.0914
26745W        W46279   2.982   4.699   4.126  0.0324 -0.0212 -0.0368
26746W        W46280   5.637  14.581   4.911 -0.1450 -0.2043 -0.1951
26747W        W46281  17.035   3.337  16.711 -0.1258  0.0209 -0.2119
26748W        W46282  12.984  12.846   4.797 -0.1614 -0.2464 -0.0067
26749W        W46283   3.860   6.016  15.406 -0.1836  0.0568  0.0983
26750W        W46284   1.841  12.672  16.077  0.0913 -0.0081  0.0052
26751W        W46285   9.761   0.989  14.251  0.0040 -0.0727 -0.1362
26752W        W46286  16.839   9.251  15.847 -0.2695  0.1890  0.5087
26753W        W46287   6.551  11.441   0.010 -0.2003  0.0011 -0.0052
26754W        W46288   8.891   4.506  17.154  0.2703 -0.0498 -0.0293
26755W        W46289   7.669   1.093  17.067  0.2615  0.2149  0.0096
26756W        W46290   5.369   2.681   0.433  0.2044  0.2506 -0.3830
26757W        W46291   8.072  12.215   3.951  0.1711  0.0447 -0.0998
26758W        W46292   0.976  14.226  14.616 -0.1535  0.4503 -0.0260
26759W        W46293  14.328  12.537  12.800  0.0484 -0.0787 -0.0654
26760W        W46294   8.087   5.848   3.729 -0.1144  0.1024 -0.1139
26761W        W46295   3.263   2.071  16.094 -0.1047 -0.1214  0.0452
26762W        W46296   6.900   3.723   3.264 -0.4473 -0.0767 -0.3169
26763W        W46297  13.008  14.231  14.010 -0.0518  0.0043  0.0260
26764W        W46298   9.333   5.318  13.734 -0.3123  0.1380 -0.1508
26765W        W46299  12.857   4.375   2.514 -0.1214  0.0967  0.5430
26766W        W46300   7.068  10.725  13.807 -0.1776  0.0537 -0.0168
26767W        W46301   1.095   1.137  13.147 -0.0960 -0.1131  0.0006
26768W        W46302   8.070  16.869   1.281 -0.1119 -0.2360  0.1277
26769W        W46303   1.541   2.813  13.656  0.0009 -0.1694 -0.0992
26770W        W46304  14.539  15.760   4.618 -0.0073 -0.0941  0.1384
26771W        W46305  12.314  14.718   4.819 -0.0882  0.0577 -0.1643
26772W        W46306   9.862  16.607  14.150  0.0155 -0.0134  0.0984
26773W        W46307  12.722   5.809   3.301  0.1297  0.0527  0.0443
26774W        W46308   9.775   0.066  14.409  0.0458  0.1916 -0.3948
26775W        W46309   3.103   0.913   1.477 -0.1124  0.1088  0.1329
26776W        W46310   9.818  12.362  14.077  0.0271  0.0785 -0.0097
26777W        W46311   6.383   6.821  14.187  0.1608  0.5083  0.0090
26778W        W46312   6.984   0.149   5.451 -0.0716  0.0143  0.0540
26779W        W46313  16.586   8.901  16.139  0.0043  0.0086  0.1816
26780W        W46314   4.348  13.285   2.587 -0.0932 -0.0501  0.0641
26781W        W46315   1.310  13.066  15.778 -0.1722  0.0045  0.3880
26782W        W46316   0.301   8.435   4.244  0.2304 -0.0596 -0.1971
26783W        W46317   2.874  10.628   1.461  0.0924 -0.0438  0.0337
26784W        W46318  10.532   7.804  12.763  0.0805  0.0921 -0.0081
26785W        W46319  16.579   4.958  14.402 -0.1898 -0.1526  0.0261
26786W        W46320   9.745  10.440   4.394 -0.1016  0.4202 -0.0918
26787W        W46321  11.095  13.061  14.311 -0.0791 -0.0244  0.0559
26788W        W46322  14.357  15.422  14.743 -0.2466  0.0356  0.0790
26789W        W46323   1.542  10.968   1.283 -0.1447  0.1179  0.0491
26790W        W46324   8.056   2.118   0.521 -0.1654  0.3293  0.1507
26791W        W46325   5.618  16.253  12.057 -0.2262 -0.2037 -0.2408
26792W        W46326   3.354  16.511   4.007  0.3202  0.0342 -0.1502
26793W        W46327  15.319  17.412   4.040  0.0672 -0.1055 -0.1364
26794W        W46328   5.353  12.832  16.175  0.0008 -0.1432  0.2372
26795W        W46329   0.199  14.073   3.996  0.0369 -0.0567 -0.4403
26796W        W46330   1.549   0.244  17.118 -0.4928 -0.1282  0.0780
26797W        W46331   6.235  14.481   1.170  0.1877 -0.0702  0.0672
26798W        W46332   5.337  13.798   3.635  0.0963  0.0764 -0.1378
26799W        W46333   9.541   1.454   4.794 -0.0295 -0.0629  0.0888
26800W        W46334   6.796   9.016   4.378 -0.0381 -0.1115 -0.0892
26801W        W46335   2.742   7.373  12.406 -0.0959 -0.1666  0.4156
26802W        W46336   0.863   1.978   3.760  0.1760 -0.2340 -0.0192
26803W        W46337   4.324  13.658   1.015  0.1786 -0.0825 -0.2824
26804W        W46338  10.138   3.574  16.276 -0.0619  0.1769  0.0737
26805W        W46339  10.926  11.002  13.144 -0.0288  0.1255  0.1473
26806W        W46340   5.910  10.473   1.531 -0.1300 -0.0265  0.0182
26807W        W46341   2.203  13.209   3.601  0.0640 -0.0881  0.0009
26808W        W46342   6.129   8.767  16.932 -0.0286 -0.1701  0.1404
26809W        W46343   6.995   7.076  14.957  0.2045  0.0461  0.0336
26810W        W46344   4.034   5.410  17.201  0.0664  0.1059  0.2898
26811W        W46345   5.629   9.958   4.302  0.1890  0.2982  0.2751
26812W        W46346   9.319   6.077   2.530 -0.3223 -0.0702 -0.0500
26813W        W46347   5.676   2.852   1.216  0.0069  0.1004  0.2490
26814W        W46348   4.325   6.855   2.062  0.1109 -0.1153  0.3568
26815W        W46349   0.491   7.958  12.648  0.0462 -0.0724 -0.1366
26816W        W46350   3.581  14.749  14.269  0.0775  0.0168  0.1509
26817W        W46351   8.425  13.240  12.817  0.2679  0.0524 -0.5410
26818W        W46352   2.651  16.545   0.959  0.2451 -0.0884 -0.0702
26819W        W46353   5.866  16.681  13.331  0.1250  0.0697  0.0364
26820W        W46354  15.170   3.972  13.980 -0.2613  0.1881  0.0665
26821W        W46355   0.164  15.348   4.940  0.1653 -0.2474 -0.1169
26822W        W46356   5.396  10.951  16.120 -0.0785  0.0223  0.0221
26823W        W46357  11.498   6.002   4.612  0.1777  0.2232  0.0609
26824W        W46358   0.187   8.732  14.559  0.4647 -0.0335  0.0445
26825W        W46359   3.302   9.499  16.138 -0.0971 -0.1497  0.1482
26826W        W46360   1.587   0.431  12.255  0.2087  0.2853 -0.0432
26827W        W46361   4.467   2.980   3.081  0.2104 -0.1836  0.0727
26828W        W46362   1.256   1.793  17.304 -0.0617  0.1838  0.1155
26829W        W46363   0.733  16.677  15.440 -0.1337  0.1446  0.0351
26830W        W46364   0.024  14.288   2.458  0.5318 -0.1628 -0.2217
26831W        W46365   7.125   2.677   4.026  0.0086 -0.0317 -0.1173
26832W        W46366  13.946  13.003   0.620  0.2567  0.0184  0.2722
26833W        W46367  17.201  11.338   4.095  0.2164  0.2714 -0.0568
26834W        W46368   7.918   3.038   2.262  0.2778 -0.1189 -0.2331
26835W        W46369  10.577  14.320  12.439  0.0372  0.0783  0.3979
26836W        W46370   0.999  15.042   0.538  0.0910 -0.1132  0.1255
26837W        W46371  10.838   2.691   1.201  0.4537  0.0129  0.1521
26838W        W46372   6.252   5.104   0.465 -0.1388  0.0087  0.0890
26839W        W46373   5.635   9.252   0.408 -0.0480 -0.0337  0.5016
26840W        W46374  15.900   2.074  16.476  0.1473  0.3926  0.2487
26841W        W46375  12.023  11.165   1.364 -0.0602 -0.1163  0.0850
26842W        W46376  11.455   8.027   5.121 -0.1360 -0.1095  0.0515
26843W        W46377  11.090  11.704  15.390 -0.1380 -0.1693  0.1747
26844W        W46378  12.251   4.562  16.680 -0.0284 -0.1100 -0.1556
26845W        W46379  16.008   6.441  17.223  0.0600  0.1577  0.1048
26846W        W46380   0.516   7.986  14.643  0.0866  0.2212  0.2001
26847W        W46381  16.531  13.698   3.548 -0.2328  0.1090  0.0063
26848W        W46382   0.945   7.835   0.831 -0.0575 -0.5576 -0.1312
26849W        W46383  14.336  12.115   1.973  0.0111 -0.0571  0.1209
26850W        W46384   7.774  11.237   3.673  0.3332 -0.0466 -0.2712
26851W        W46385   3.898   3.308  12.349 -0.1319  0.0710 -0.2418
26852W        W46386  10.551   7.047  13.482 -0.4448 -0.0594  0.0962
26853W        W46387  11.334  13.737  15.639  0.2878 -0.2703  0.3366
26854W        W46388  12.984   8.575   3.257  0.3984 -0.0580 -0.2086
26855W        W46389   2.158  15.493  12.233  0.3725 -0.1547 -0.3974
26856W        W46390   2.534   7.249  11.555 -0.3411 -0.2924 -0.1031
26857W        W46391  10.057   5.967  17.046  0.2634  0.0076  0.0899
26858W        W46392   8.422   3.988  16.519 -0.0272 -0.1566 -0.2052
26859W        W46393   0.609  11.100  17.224 -0.2408 -0.3078  0.0066
26860W        W46394  16.460  16.438   0.637 -0.0588 -0.0011  0.3237
26861W        W46395   5.974  10.664   0.620  0.0180 -0.0192 -0.1589
26862W        W46396  17.033  14.054  16.698  0.0723  0.2621  0.0034
26863W        W46397   8.350   3.355   4.034 -0.0461 -0.3277 -0.2624
26864W        W46398  15.411  12.415   2.652  0.1225 -0.4173  0.2874
26865W        W46399  13.349  17.332   0.767  0.0027 -0.2336 -0.1331
26866W        W46400  16.911   6.361  12.183  0.1001 -0.3422  0.3595
26867W        W46401   2.976  11.896   3.947 -0.1068 -0.0238  0.0285
26868W        W46402   5.185  11.705   0.832 -0.1090 -0.3674 -0.4369
26869W        W46403   1.364   7.965  15.956 -0.2758 -0.2926 -0.0460
26870W        W46404  15.313  11.542  15.939 -0.1819  0.0799  0.0571
26871W        W46405  15.787   3.796   4.364  0.2203 -0.2340 -0.1994
26872W        W46406   3.203   9.556   3.040  0.1998  0.1638 -0.2762
26873W        W46407   1.003   9.795   4.548 -0.1111  0.4040  0.0581
26874W        W46408  16.309  14.671   1.374  0.2270  0.1822 -0.1605
26875W        W46409  10.642  10.632   2.866 -0.0916  0.0589  0.0165
26876W        W46410  13.583   9.657  16.326 -0.1896  0.0813 -0.3208
26877W        W46411  10.076   0.202   2.759  0.0649 -0.0909 -0.0514
26878W        W46412   5.363   3.648   0.596  0.2055 -0.0439  0.0881
26879W        W46413  17.131   9.960   4.489 -0.0938 -0.3010  0.1798
26880W        W46414  17.295  12.350  13.944  0.2618 -0.0997  0.3494
26881W        W46415   1.893   8.964   1.892  0.0318  0.0106  0.0874
26882W        W46416   8.033  10.800  13.956  0.0337  0.2770  0.2232
26883W        W46417   0.816   3.394   3.456  0.1914 -0.2401  0.0330
26884W        W46418   6.182  11.400  13.496 -0.2211  0.1836  0.0403
26885W        W46419   2.822  11.750  16.953 -0.0808 -0.0196 -0.1002
26886W        W46420   7.185   3.730  17.161  0.0678  0.0690  0.2447
26887W        W46421   5.679   2.877  16.905 -0.0674 -0.2356 -0.3790
26888W        W46422   5.459   0.791   1.994 -0.1918  0.0701  0.0112
26889W        W46423   9.620   1.106   1.765  0.3647 -0.2059  0.0070
26890W        W46424   6.990  17.242   4.925  0.0539 -0.1286  0.2247
26891W        W46425   5.648  14.363   1.987  0.0692 -0.0088  0.1922
26892W        W46426   9.381   6.223   0.327  0.1195  0.2438  0.0513
26893W        W46427  11.801   2.150  15.644 -0.0876 -0.1237 -0.0571
26894W        W46428   5.688  16.419  11.082  0.1055  0.0972 -0.0511
26895W        W46429  14.746  16.597   1.607 -0.0925 -0.1876  0.3495
26896W        W46430   7.400   2.106   2.754  0.2015  0.2032 -0.2315
26897W        W46431  10.164  10.475  15.251 -0.4301  0.2055 -0.0605
26898W        W46432  14.787  10.327  12.317 -0.0521 -0.0119  0.4779
26899W        W46433   3.227   0.461  14.884  0.1018  0.1054 -0.0676
26900W        W46434  13.364  17.203  12.293  0.0965  0.1394 -0.2747
26901W        W46435  11.370   2.268  16.830  0.0522  0.1489 -0.2903
26902W        W46436  12.537  17.308  12.789  0.0951  0.0240 -0.1093
26903W        W46437  13.097   2.991  14.117 -0.2040  0.1541  0.1341
26904W        W46438   7.841   3.409   0.991 -0.0721 -0.0075  0.1077
26905W        W46439   4.005   6.117   3.080 -0.2435  0.2924 -0.0225
26906W        W46440   1.491   2.304   1.992  0.0027 -0.0034  0.2100
26907W        W46441  11.436   5.557   4.245 -0.0222 -0.3143 -0.1496
26908W        W46442   8.968   3.432  13.186 -0.0621 -0.1841  0.0245
26909W        W46443   8.240  13.527   2.958  0.0158 -0.1443 -0.0782
26910W        W46444   4.256   7.865   4.123  0.0912  0.3120  0.0350
26911W        W46445   5.581   3.093   4.451  0.1601  0.2275 -0.1027
26912W        W46446   1.693  11.575   2.229 -0.1690 -0.0037 -0.1732
26913W        W46447  13.740   7.226   1.645 -0.1654  0.0071  0.2953
26914W        W46448  13.010  15.199  14.672 -0.0237 -0.1231  0.1848
26915W        W46449   6.622   2.084  13.605 -0.0892  0.1413  0.1156
26916W        W46450   5.273  12.666  16.683 -0.0439 -0.2013 -0.1504
26917W        W46451   9.001  14.717  15.507 -0.3506  0.0340  0.2264
26918W        W46452   4.434   8.712   5.144  0.1213 -0.2877  0.2057
26919W        W46453  12.364  15.116   2.384 -0.1178 -0.1195  0.4093
26920W        W46454   9.524  12.385   1.220 -0.1071 -0.0829  0.0779
26921W        W46455  11.280   6.439   4.550  0.3506 -0.0772  0.1308
26922W        W46456  10.022   5.634  15.007 -0.3729  0.1722  0.2025
26923W        W46457  16.268   4.036  14.696  0.1792  0.0180 -0.1223
26924W        W46458   5.344  12.731   2.582  0.3256 -0.0291 -0.1074
26925W        W46459   3.803  13.828   2.816  0.0682 -0.2893 -0.0576
26926W        W46460  12.574   2.535   2.007  0.0520 -0.2314 -0.0331
26927W        W46461   0.691   8.478   5.039  0.2497  0.2428 -0.1272
26928W        W46462   4.498   4.523  15.383 -0.2130 -0.0157 -0.0712
26929W        W46463   1.526  16.027  15.896  0.0496 -0.2380 -0.0115
26930W        W46464   7.949   7.628  13.844  0.2520  0.2428  0.1817
26931W        W46465  15.969  11.136   1.276 -0.0235  0.2418  0.2247
26932W        W46466   0.608  10.563   4.018  0.1780 -0.0478 -0.2971
26933W        W46467   8.571   7.104  12.557  0.0655  0.0535  0.2204
26934W        W46468   5.719  11.670   1.677 -0.1936 -0.3174  0.1469
26935W        W46469   4.903   3.821  16.001 -0.1059 -0.3921  0.1330
26936W        W46470  10.179  16.458   4.052  0.1159 -0.1772  0.0736
26937W        W46471   8.731   8.939  12.800 -0.1606 -0.3182  0.0056
26938W        W46472  12.307   2.016   3.931  0.0553  0.3735  0.0690
26939W        W46473  15.743  11.237  15.217 -0.0050  0.0126  0.0909
26940W        W46474  14.598   1.062   3.236 -0.0522 -0.1712  0.0125
26941W        W46475   5.040  12.113  14.593  0.1661 -0.2928 -0.1066
26942W        W46476  17.267   7.769  14.130 -0.0506  0.3644 -0.0019
26943W        W46477   0.981  16.708   1.237  0.2257 -0.3313  0.0962
26944W        W46478   1.244   4.008   3.269 -0.0233 -0.0047  0.3209
26945W        W46479   9.460   5.093  15.013  0.0120 -0.2488 -0.2383
26946W        W46480  14.704  16.578  16.092 -0.2084 -0.0813  0.0626
26947W        W46481   1.770  17.052  14.336 -0.0432  0.0399 -0.0590
26948W        W46482   2.522   6.533  16.584  0.1052 -0.2147  0.1200
26949W        W46483  15.661  11.053   1.970  0.1433  0.0301  0.3566
26950W        W46484  13.015  15.736   2.479 -0.2139 -0.2217  0.0318
26951W        W46485  10.119   1.817   3.519 -0.0439  0.0446  0.0561
26952W        W46486   5.228  14.804   3.265  0.0163  0.0244 -0.2417
26953W        W46487   3.213   0.076  12.710  0.0694 -0.2197 -0.0435
26954W        W46488   2.398   5.944   3.191  0.1871  0.2022  0.5024
26955W        W46489  17.151  17.247  14.470  0.4589 -0.0446 -0.0710
26956W        W46490   4.611   6.866   4.029 -0.0704 -0.1606 -0.1472
26957W        W46491   9.288   9.793  14.454  0.1752  0.1210 -0.0890
26958W        W46492   6.745  12.263  16.586 -0.0412  0.1428  0.0666
26959W        W46493   5.430   3.128  12.110  0.0339 -0.0600 -0.2840
26960W        W46494  15.233   2.301  14.441 -0.0119 -0.2654  0.0048
26961W        W46495   7.535   7.668   2.827  0.0644  0.0028 -0.0552
26962W        W46496   5.497   7.177  13.177  0.5282  0.2095  0.1509
26963W        W46497   6.952  14.084   1.595 -0.2004  0.1378 -0.1626
26964W        W46498   5.864  16.727   2.028  0.0206  0.0789  0.1658
26965W        W46499   8.744   3.781   2.543  0.2268 -0.1031 -0.1198
26966W        W46500   0.893  14.253  12.943  0.1604  0.1922 -0.2142
26967W        W46501   5.604  12.486  13.945 -0.0609 -0.1261 -0.2983
26968W        W46502   1.037   8.063  16.788  0.0602 -0.2204 -0.1015
26969W        W46503  15.561  15.404   4.485 -0.1077  0.3023  0.1825
26970W        W46504   9.973   3.524  15.295 -0.1969  0.1814 -0.2543
26971W        W46505   8.367   3.410  16.668 -0.3013 -0.3329  0.0394
26972W        W46506   0.519   1.115  12.605  0.1956  0.0180  0.5285
26973W        W46507   1.084  15.116   0.054 -0.1122 -0.0517 -0.0171
26974W        W46508  14.012   9.813   3.583  0.0331 -0.1030 -0.2600
26975W        W46509   2.877   3.682   3.692  0.0465 -0.1804 -0.2225
26976W        W46510  14.827   4.818  13.638  0.1189 -0.0340  0.1511
26977W        W46511  13.350   1.992  16.823  0.4537 -0.2497  0.0033
26978W        W46512   1.800   9.455  16.327 -0.0191 -0.1232  0.1129
26979W        W46513   5.616  16.349   2.843 -0.0723 -0.0309  0.2567
26980W        W46514  12.848   6.274  14.508 -0.0608 -0.0522  0.0468
26981W        W46515   2.342   5.445   1.034 -0.3196  0.2277  0.5966
26982W        W46516  14.751   6.548  15.281  0.0724 -0.1321  0.1740
26983W        W46517   5.334   3.162   0.183  0.1609 -0.0669  0.0463
26984W        W46518   5.836   6.481   5.188  0.2146  0.0352  0.1577
26985W        W46519  17.144  16.873  13.489  0.1493 -0.0525 -0.1327
26986W        W46520   0.980   8.408  17.208  0.0642  0.2286 -0.1333
26987W        W46521   5.159  12.867  13.262  0.1136  0.1679 -0.2859
26988W        W46522   6.467  12.924  12.928  0.0888 -0.2827 -0.2505
26989W        W46523  11.409   0.917   5.225 -0.1387 -0.0555  0.1337
26990W        W46524   5.182  16.632  14.901  0.1231 -0.1612  0.2673
26991W        W46525   7.784   2.096   0.052  0.0801  0.0951 -0.0641
26992W        W46526   5.828   9.117  16.821  0.0191 -0.0625 -0.2206
26993W        W46527  12.431   6.000   0.745 -0.2525 -0.0603  0.0517
26994W        W46528  11.350   0.005   2.052 -0.3247  0.0201  0.3775
26995W        W46529  12.897  13.192   1.046  0.0510  0.2162 -0.2423
26996W        W46530   5.771   8.826  12.471 -0.1945  0.2805 -0.2728
26997W        W46531  12.262   3.962   0.057 -0.0538 -0.2927 -0.0725
26998W        W46532   4.115   9.245   2.927 -0.2507 -0.5019  0.2148
26999W        W46533   7.799   1.337  14.034 -0.0685 -0.1431 -0.0754
27000W        W46534   8.904  13.409   1.262 -0.1797  0.2284  0.2487
27001W        W46535  10.570   6.798   4.326  0.1458  0.2597 -0.0427
27002W        W46536   8.929   8.911   1.631 -0.0946  0.1488  0.0368
27003W        W46537  14.963   4.994   2.314 -0.2147  0.0617 -0.1581
27004W        W46538   5.123  13.149  16.477  0.0429 -0.0113  0.0781
27005W        W46539   5.424  12.632  14.876 -0.1332  0.0694 -0.0093
27006W        W46540   1.163   5.337  13.224  0.2009 -0.3664  0.0586
27007W        W46541  12.505   8.690  15.077 -0.1548 -0.1178 -0.0499
27008W        W46542   4.416   6.340  13.442 -0.0891 -0.0638 -0.3685
27009W        W46543   0.335   0.667  12.631  0.1606 -0.1499 -0.0828
27010W        W46544  11.628   7.138  13.570 -0.1667 -0.0343 -0.0420
27011W        W46545  14.842   9.857  16.247  0.1390 -0.3123 -0.1045
27012W        W46546  12.341   7.580   5.283  0.2041  0.1657 -0.2266
27013W        W46547  16.808  17.003   0.366 -0.3096 -0.1449 -0.2239
27014W        W46548   3.262  15.258  12.136 -0.2675 -0.0065  0.1250
27015W        W46549   5.267   0.343   0.939  0.1985 -0.1780  0.0731
27016W        W46550   3.553  15.667   4.406 -0.0836 -0.3000 -0.0161
27017W        W46551   3.798  13.139  16.395  0.0112 -0.3356 -0.1885
27018W        W46552  14.490  17.425   5.182 -0.1682 -0.1404  0.2770
27019W        W46553   0.202  16.902   4.248  0.2606  0.0994 -0.0120
27020W        W46554  10.888  13.239   2.948  0.2458  0.2846  0.1280
27021W        W46555  14.985   9.259   0.115  0.0241 -0.0885 -0.1853
27022W        W46556   5.369  11.555   2.248  0.6119 -0.3467 -0.0322
27023W        W46557  15.199  12.030   4.919 -0.2277  0.0250  0.1987
27024W        W46558   8.789   8.581   3.502 -0.0288  0.0138  0.1181
27025W        W46559   8.728   0.005  11.832 -0.2210 -0.0994  0.1353
27026W        W46560  10.009   2.478   2.375 -0.0039 -0.0058 -0.0550
27027W        W46561   4.122  10.567   3.124  0.3549  0.0259  0.1834
27028W        W46562   9.790  10.212  15.406  0.1629  0.3808 -0.0685
27029W        W46563   9.832  11.063   2.543 -0.0339 -0.0614  0.0317
27030W        W46564  12.736   2.925   3.690  0.0274 -0.1957  0.0094
27031W        W46565   3.156   6.776   0.083 -0.3072  0.2514 -0.0379
27032W        W46566  13.016   1.450   2.507 -0.1056 -0.0772  0.2665
27033W        W46567  10.059   9.587  16.645 -0.1134 -0.2421  0.3039
27034W        W46568   3.145   2.307   2.033  0.2478  0.2965  0.0299
27035W        W46569   0.933   3.293  17.107 -0.1453  0.3844 -0.1443
27036W        W46570   5.141   2.237   4.365 -0.1355 -0.2761  0.2020
27037W        W46571   2.260   0.622   4.219  0.0143  0.1962  0.1016
27038W        W46572   6.488   7.506  14.535 -0.0622  0.0151 -0.0866
27039W        W46573   9.342   3.150   2.747  0.0972  0.0885  0.1862
27040W        W46574   7.281   6.420  13.226 -0.0910  0.0792 -0.2224
27041W        W46575   4.071   4.721   2.559  0.0117  0.2446 -0.1095
27042W        W46576  10.275  10.601   4.053  0.1822 -0.0968 -0.0557
27043W        W46577  15.642   4.843  14.478  0.2557  0.0839 -0.0139
27044W        W46578   6.304   1.300   2.124 -0.5000 -0.0444  0.1807
27045W        W46579   5.464  13.159  14.944 -0.0805 -0.0566  0.3062
27046W        W46580   3.803  14.811   2.324 -0.0118 -0.1572  0.1027
27047W        W46581   4.335  16.446  13.379 -0.1616  0.0641 -0.3164
27048W        W46582  15.365   3.222  13.355 -0.1350 -0.0470  0.1039
27049W        W46583   5.360  15.675  15.880 -0.1166  0.0530 -0.0357
27050W        W46584  16.114  17.369   6.083 -0.1462 -0.0529 -0.3693
27051W        W46585   7.960   0.555   4.755  0.0546 -0.1323 -0.0829
27052W        W46586   2.966  13.372   4.651 -0.0552 -0.1100  0.0389
27053W        W46587  16.212  17.006  13.679 -0.0365  0.0474 -0.1039
27054W        W46588  10.657  14.805   1.504  0.1040 -0.1376 -0.2508
27055W        W46589   2.895  11.406   5.941 -0.0309  0.1105 -0.1914
27056W        W46590   2.670  12.724   2.022 -0.1162  0.1415 -0.1476
27057W        W46591   8.925   3.761   5.053  0.1280 -0.1505  0.2928
27058W        W46592   2.140  12.871  15.201 -0.0994 -0.1675 -0.1130
27059W        W46593   3.056  13.561  16.745  0.2019  0.1909  0.2420
27060W        W46594   4.569   0.169  16.299 -0.0185 -0.2151  0.1235
27061W        W46595  13.316   9.693  11.603 -0.1435 -0.1285 -0.1513
27062W        W46596  11.317   2.308   3.032  0.0486 -0.4436 -0.1057
27063W        W46597  15.780   5.446   4.107 -0.0981  0.1656 -0.1659
27064W        W46598   1.771  10.043   0.314  0.2953 -0.0459  0.1197
27065W        W46599   1.783  13.713  13.538  0.1960  0.2078  0.2805
27066W        W46600   4.480   2.544  12.324  0.2916 -0.1270  0.1413
27067W        W46601   6.061  10.239   1.101 -0.1141 -0.3697 -0.4472
27068W        W46602  12.663   3.921   4.238  0.0265 -0.3436  0.2519
27069W        W46603  16.086   0.221  15.472  0.0329 -0.0737 -0.1957
27070W        W46604   0.361  16.998  15.501  0.0979  0.2550 -0.2156
27071W        W46605  13.066   0.241  16.292  0.0146 -0.0174  0.2677
27072W        W46606   0.132  12.568   0.682  0.0111  0.3546  0.1609
27073W        W46607   2.285  13.896  12.538 -0.0922 -0.3698 -0.4456
27074W        W46608   2.445  10.107   2.076  0.2299 -0.2599  0.3396
27075W        W46609   9.881  14.532  14.329  0.1305 -0.2872  0.1250
27076W        W46610   9.520  14.243  15.031 -0.2082  0.0846 -0.0668
27077W        W46611  15.592   9.910  12.084  0.1710 -0.1334 -0.1056
27078W        W46612   8.822  11.344  16.929  0.0114  0.3561 -0.2463
27079W        W46613  13.358   6.159  14.708  0.1256 -0.0953 -0.2753
27080W        W46614  10.569  15.214  15.995  0.0748  0.0243 -0.1907
27081W        W46615   5.844   2.574   4.436  0.0277  0.1404  0.0944
27082W        W46616   0.570   6.437   2.380 -0.1002 -0.2526  0.1033
27083W        W46617  15.515  14.978   1.283 -0.1201 -0.1191 -0.1206
27084W        W46618  14.318   8.256  14.704  0.0235 -0.0508 -0.0828
27085W        W46619  14.303   6.041   3.244 -0.2054 -0.0501  0.3237
27086W        W46620  16.302  16.576  17.138  0.1912 -0.0992  0.0326
27087W        W46621   0.795  14.284  13.620  0.0510 -0.0441 -0.1978
27088W        W46622  17.154  11.675  16.582 -0.0320  0.2425 -0.1152
27089W        W46623   2.283   5.075   5.652 -0.2420  0.1707  0.1163
27090W        W46624   7.712   5.647  15.302  0.0316 -0.0545  0.1111
27091W        W46625   4.792  15.187  15.509 -0.1258 -0.2150 -0.0277
27092W        W46626   1.929  10.463  16.694  0.0952  0.1479  0.1504
27093W        W46627   7.955   7.532  17.304 -0.1355 -0.0529  0.2467
27094W        W46628   9.724  11.670  16.487  0.0817  0.0306  0.2453
27095W        W46629   2.757   5.782   1.807  0.0632 -0.0106 -0.2060
27096W        W46630   7.181   2.628  16.230  0.0605 -0.0368 -0.0321
27097W        W46631   6.566  14.955   4.547  0.2399 -0.0541  0.0226
27098W        W46632   3.822   5.876   4.171  0.0403 -0.0402 -0.2391
27099W        W46633  15.434  10.064  12.980 -0.0570  0.1926  0.0170
27100W        W46634   9.655  10.998  14.180  0.1616 -0.3939 -0.0224
27101W        W46635   7.135  11.873   5.350  0.2559 -0.1612  0.0637
27102W        W46636  15.764  12.975  15.753 -0.0442  0.0656 -0.3103
27103W        W46637  14.331   1.018  13.340 -0.0519  0.1892 -0.0200
27104W        W46638  16.432   7.283   1.594  0.5334  0.1288 -0.0166
27105W        W46639  10.771   1.058  15.851  0.1246  0.0372  0.1970
27106W        W46640   6.025  16.838  15.478  0.0624 -0.1058 -0.1748
27107W        W46641   0.001  17.112  17.041 -0.1348  0.0471  0.1404
27108W        W46642  10.600   2.215  12.143  0.1372 -0.0939  0.0030
27109W        W46643  12.795   5.680   4.385 -0.0930 -0.2193 -0.3341
27110W        W46644  12.345   4.693  14.730  0.1783 -0.0066  0.2018
27111W        W46645   8.149   1.519   4.099  0.3459  0.1125 -0.0094
27112W        W46646   4.534  11.556  14.993  0.0278  0.3626  0.1504
27113W        W46647  12.010  17.428   0.735 -0.1288 -0.2132 -0.0083
27114W        W46648  12.450   4.797  13.459 -0.1614  0.1460 -0.1385
27115W        W46649   4.597   3.855   5.072  0.0703 -0.4730 -0.1965
27116W        W46650  14.164  16.957  14.267  0.1580 -0.2721 -0.1476
27117W        W46651   2.989  11.446   4.904  0.2049  0.0551 -0.1796
27118W        W46652   5.141   0.811  16.766  0.2004 -0.1675  0.0154
27119W        W46653   2.769  11.464  14.031  0.1083 -0.0261 -0.1011
27120W        W46654  16.842  16.317  15.201 -0.0637  0.3678 -0.1751
27121W        W46655   1.293   0.835  13.500 -0.0041  0.2222  0.0679
27122W        W46656   1.901   3.311  16.938  0.1098 -0.2040  0.0474
27123W        W46657  15.830   5.592  15.870  0.0202 -0.1524  0.2147
27124W        W46658   4.188  11.978  12.585  0.1199 -0.2072 -0.1671
27125W        W46659   8.996   0.689  16.566 -0.1149 -0.1286 -0.0477
27126W        W46660   7.333   5.162   4.333 -0.2592 -0.0202  0.3333
27127W        W46661   1.681  14.875  14.343 -0.1532  0.0759 -0.3880
27128W        W46662   2.492  14.621   0.191 -0.0053  0.0654 -0.0515
27129W        W46663  15.165   5.683   1.330  0.2118 -0.0217 -0.0724
27130W        W46664   4.249  14.743  14.849 -0.0009 -0.1648 -0.0011
27131W        W46665   5.044  10.652   4.141 -0.2624 -0.2194 -0.1904
27132W        W46666   9.306  15.878   2.413  0.0602 -0.1508 -0.2020
27133W        W46667   6.375   7.039   3.776  0.0092 -0.0251  0.1406
27134W        W46668  15.713   3.152   4.118  0.1379  0.3894 -0.0139
27135W        W46669   5.100  15.659  14.512  0.1041 -0.1113  0.0580
27136W        W46670  14.259   2.380  14.397  0.1123 -0.4141  0.6493
27137W        W46671  15.479   7.329   1.286 -0.0107  0.2076  0.2395
27138W        W46672  12.784  13.912  16.730 -0.1435 -0.0220  0.0698
27139W        W46673  15.050   0.745  14.014 -0.3805  0.2594 -0.4311
27140W        W46674  11.867  12.803   4.157  0.1922  0.0138 -0.0847
27141W        W46675   0.503   1.118   4.938  0.2593 -0.2866 -0.2569
27142W        W46676  12.494   5.304   4.154 -0.0642 -0.2117 -0.1169
27143W        W46677   1.690   9.551   1.119  0.2189  0.4573  0.3318
27144W        W46678   8.800   0.279  16.932 -0.0993 -0.1849  0.0980
27145W        W46679  12.009  14.057  14.639  0.0336 -0.0555  0.1187
27146W        W46680  11.680   5.742  15.789 -0.0819 -0.1904 -0.0135
27147W        W46681  14.314   7.074  16.669 -0.0399 -0.0631  0.3535
27148W        W46682   8.279  14.530  15.760  0.2303 -0.0643  0.1459
27149W        W46683  14.528  11.261   5.915 -0.2455 -0.0792 -0.0307
27150W        W46684   8.169   7.806  15.040 -0.2194 -0.1707  0.1495
27151W        W46685  11.555   2.400   1.688 -0.0122 -0.0504 -0.0879
27152W        W46686   0.048   4.651   0.497  0.0103 -0.0584 -0.0567
27153W        W46687   2.079   1.085  15.991 -0.0591 -0.1992 -0.2138
27154W        W46688  12.364   6.905  15.278 -0.1807 -0.1404  0.2892
27155W        W46689  11.796   8.558   5.284 -0.0364 -0.1523  0.0862
27156W        W46690   3.941  16.263   1.099  0.2307  0.3389  0.2129
27157W        W46691   2.422   7.429   3.238  0.2710 -0.0599  0.2137
27158W        W46692  12.250  14.305   1.857 -0.0511  0.3340  0.2349
27159W        W46693  15.336   9.879  13.434 -0.3193 -0.0945  0.3258
27160W        W46694   5.862   8.444   3.789 -0.0133 -0.0919  0.0015
27161W        W46695  10.367   7.898  13.624  0.1893  0.0721 -0.1296
27162W        W46696  15.131  17.454  12.898 -0.1085  0.0055 -0.1093
27163W        W46697  14.768   0.359  13.682  0.2142 -0.0275  0.1503
27164W        W46698  15.651  10.912  12.374  0.0770 -0.2561  0.1438
27165W        W46699   9.028   1.961  16.007  0.1404 -0.0013 -0.3071
27166W        W46700   9.054   8.583  13.029  0.4779  0.2823 -0.0917
27167W        W46701  15.461  14.010   1.826  0.0255  0.0989  0.2087
27168W        W46702  11.840  11.483  17.114 -0.1509 -0.0162 -0.2326
27169W        W46703   4.499  16.038  12.502 -0.1263 -0.2307 -0.2111
27170W        W46704  10.118  12.153   0.394  0.1831 -0.0698  0.0497
27171W        W46705  16.503   5.608   0.205  0.1117  0.1179 -0.0982
27172W        W46706  13.857   0.405  14.155 -0.0401  0.2960 -0.1241
27173W        W46707  17.327  13.721  16.306  0.0621 -0.2263  0.0279
27174W        W46708   7.676  15.223   3.890  0.1817  0.0791  0.1792
27175W        W46709   8.235   4.788  12.867  0.1198  0.3152 -0.1219
27176W        W46710   6.543   2.390  15.745 -0.1145 -0.0138 -0.2067
27177W        W46711   2.461   6.483  14.406  0.0950 -0.0527  0.3254
27178W        W46712   2.592   3.227  16.415 -0.1215  0.0058  0.1946
27179W        W46713   3.795  13.160   5.046 -0.0597 -0.0888 -0.1247
27180W        W46714   4.448   0.658   1.936 -0.1110  0.2292 -0.2262
27181W        W46715   4.062  14.280  14.769 -0.1819 -0.1781  0.1685
27182W        W46716  13.285   8.008   1.161  0.0564  0.0694  0.2280
27183W        W46717  10.802   5.877  14.494 -0.0767 -0.0009  0.1495
27184W        W46718  16.900   4.465   0.640  0.1107  0.3101 -0.1602
27185W        W46719   9.633   0.265   1.559  0.2061  0.0983 -0.0461
27186W        W46720   5.847  13.471  13.717  0.0600 -0.4504  0.1407
27187W        W46721  12.058  16.250  15.811 -0.0460  0.1016  0.2197
27188W        W46722  12.888   8.831   2.208 -0.1822  0.2011  0.3467
27189W        W46723  11.479  14.111  12.886  0.1120  0.0780  0.1195
27190W        W46724   3.769  12.697  17.214  0.1838  0.3116 -0.3447
27191W        W46725   4.106  10.314  16.454 -0.0607  0.3256 -0.2028
27192W        W46726   2.073   4.913  15.170 -0.2106  0.0287  0.2744
27193W        W46727   3.569  13.071  13.229  0.0721 -0.2827 -0.2522
27194W        W46728  13.655  12.778  15.297 -0.1347  0.0898  0.1164
27195W        W46729  16.678  17.207   3.593 -0.0257 -0.0891  0.0397
27196W        W46730  16.024  13.368   2.139  0.1272  0.2234  0.0692
27197W        W46731   6.907   8.948  13.217 -0.1734 -0.1292  0.0238
27198W        W46732   8.369   9.243   5.302  0.2103 -0.1205  0.1388
27199W        W46733  15.959   9.076  15.096 -0.0040 -0.3095 -0.2974
27200W        W46734   9.970  12.216   1.870  0.0253  0.2642 -0.1053
27201W        W46735   3.433  17.021   3.153 -0.1555 -0.1555  0.4303
27202W        W46736   2.311  11.924   1.746 -0.0958 -0.0386 -0.1819
27203W        W46737  14.810   3.264  13.239  0.0242 -0.2595 -0.2555
27204W        W46738   5.309   7.028   4.906 -0.1694  0.1702 -0.1366
27205W        W46739   3.842  12.713   1.363  0.1238  0.2901  0.0077
27206W        W46740   0.876   6.809   2.538 -0.0170  0.2003  0.0690
27207W        W46741   8.847  17.288   5.156  0.0371  0.2588  0.0331
27208W        W46742  11.037  12.424   4.020  0.4090 -0.1847 -0.4282
27209W        W46743  10.871   7.622  15.311  0.2168  0.2594  0.0562
27210W        W46744  13.562  16.943   2.131 -0.0677  0.2225  0.1737
27211W        W46745   0.038  12.101  16.141 -0.2853  0.2913  0.1505
27212W        W46746  17.224  13.261   2.310 -0.0356  0.0608 -0.0076
27213W        W46747  10.316   4.480  17.243  0.2781 -0.1648 -0.0667
27214W        W46748  13.772   4.396   5.330 -0.2532  0.0289 -0.1142
27215W        W46749   2.079  13.373  15.051  0.0510 -0.0420  0.1721
27216W        W46750   7.023  10.526  17.027 -0.2102  0.2978  0.0050
27217W        W46751  17.308  15.464  13.294 -0.0091  0.2321  0.3099
27218W        W46752  10.193  16.788  12.884 -0.0879 -0.0222  0.2574
27219W        W46753   5.329  13.808  12.792  0.2070 -0.1939 -0.1223
27220W        W46754  11.184  10.870   3.689  0.1794 -0.0841  0.0686
27221W        W46755  13.761   6.544   4.786 -0.0994 -0.2398  0.3218
27222W        W46756   6.031   4.676   3.822 -0.0717  0.0368  0.1014
27223W        W46757   0.429   6.352  13.526 -0.0389 -0.1104  0.1504
27224W        W46758  14.988  17.400   1.854  0.0574 -0.1188  0.2491
27225W        W46759   1.300   2.330   3.718 -0.0121  0.0522  0.2317
27226W        W46760   2.364   8.119   1.351  0.1304  0.1970 -0.1485
27227W        W46761   8.887  13.297   2.232  0.3404  0.1870 -0.0950
27228W        W46762  17.228   9.987   0.800  0.2312  0.0407  0.3818
27229W        W46763   7.922  17.422   4.657 -0.1721 -0.1297  0.0437
27230W        W46764  10.389  13.063   1.993  0.2334  0.0630 -0.0684
27231W        W46765  10.323   0.280  13.269 -0.0972  0.0435 -0.1871
27232W        W46766   6.200   1.303  14.563 -0.0060 -0.0364  0.2902
27233W        W46767   9.033   4.122  15.010 -0.1106  0.0080  0.3082
27234W        W46768   2.355   1.347   0.043  0.0614  0.4696  0.3004
27235W        W46769  12.429  15.144   1.502  0.1124  0.1744  0.0317
27236W        W46770  13.965  15.182   5.074 -0.0201 -0.0949 -0.0506
27237W        W46771   3.544   6.080   2.958 -0.0169 -0.1152 -0.3802
27238W        W46772  16.409   9.335   0.793 -0.2037  0.0200 -0.1006
27239W        W46773   5.382   1.972  13.851 -0.1234 -0.2536  0.1365
27240W        W46774   3.255   8.709  13.528 -0.1983  0.3092  0.0264
27241W        W46775   5.669   8.686  16.582 -0.1394  0.1576  0.3228
27242W        W46776   1.788  13.756   2.353 -0.2676 -0.3621 -0.0140
27243W        W46777   0.618  10.013   1.237 -0.1597 -0.2923  0.0082
27244W        W46778  12.703  15.238  16.404  0.2678 -0.0768 -0.3696
27245W        W46779  14.039   5.271  12.461 -0.1073 -0.3877 -0.1391
27246W        W46780   1.107   1.799   2.825  0.0818 -0.0938  0.2013
27247W        W46781   8.165   9.216   4.820 -0.0982 -0.2726 -0.1598
27248W        W46782  14.088  11.437   2.613 -0.4054  0.2331 -0.0738
27249W        W46783  12.401  12.671  15.763  0.1374 -0.1761 -0.0530
27250W        W46784  14.327  13.569  16.868  0.2436 -0.0681  0.0571
27251W        W46785  14.189   9.605  16.986  0.1020 -0.3074  0.0069
27252W        W46786  15.968   6.576   2.488 -0.1636 -0.0198  0.0575
27253W        W46787  14.734   8.324   3.291  0.2397 -0.0971 -0.0397
27254W        W46788   0.244  15.985   0.604  0.1089  0.1430 -0.3217
27255W        W46789  11.755  15.688   4.908 -0.0168 -0.1214 -0.1794
27256W        W46790   3.948   4.631  16.118 -0.1247  0.0470  0.1745
27257W        W46791  16.974   0.635  14.211  0.2853  0.0051  0.0061
27258W        W46792   5.665   8.622  15.151  0.2556 -0.0191 -0.1336
27259W        W46793  14.913  11.382   2.004  0.0987  0.1116 -0.1629
27260W        W46794   4.019   7.450  14.216 -0.0127 -0.0375 -0.3367
27261W        W46795  12.110  15.071  13.346 -0.0594 -0.0205 -0.1144
27262W        W46796  17.334   7.228   2.558 -0.1568 -0.1206 -0.2871
27263W        W46797  12.498   3.932  16.060 -0.1564 -0.0643 -0.0271
27264W        W46798  16.542   4.056  15.548  0.0347  0.0184 -0.0549
27265W        W46799  10.168   0.799  12.930  0.0500 -0.0828  0.0327
27266W        W46800  16.465   0.380  13.172 -0.0568  0.3393  0.4092
27267W        W46801   1.710  10.904  15.381 -0.0440 -0.3944  0.2134
27268W        W46802   9.061   6.288  15.172  0.1370 -0.1623  0.0265
27269W        W46803   4.153  16.994  14.001  0.0819  0.0823  0.0452
27270W        W46804   4.003  17.460   1.274  0.0330 -0.1027  0.0543
27271W        W46805  10.636  12.332  16.502  0.1469  0.2406 -0.3903
27272W        W46806   1.133  12.098   2.887 -0.0559  0.3756 -0.1110
27273W        W46807   1.544  13.353   2.145 -0.3114 -0.2517 -0.2908
27274W        W46808   0.571  16.563  13.781 -0.3571  0.1852  0.1548
27275W        W46809   8.548   4.017  14.658  0.1271  0.0555 -0.0229
27276W        W46810   6.147   7.437  16.866  0.1565  0.0255 -0.0996
27277W        W46811  16.235  13.890   3.965 -0.0666  0.0887 -0.2244
27278W        W46812   6.446  16.870  12.423  0.0484 -0.0774  0.3892
27279W        W46813   9.132  15.888  12.829  0.1637  0.2603  0.0576
27280W        W46814  10.661   4.995  15.968  0.0412  0.0285 -0.0549
27281W        W46815  15.450   1.893   1.751 -0.1748 -0.2198  0.2061
27282W        W46816  13.849  13.375  15.375 -0.2561 -0.1087 -0.1511
27283W        W46817   1.068  11.918  14.556 -0.2367 -0.1270 -0.1707
27284W        W46818   3.675   5.716  14.892  0.0566  0.0703 -0.0901
27285W        W46819  13.406   6.935   1.950  0.1494 -0.0667  0.2654
27286W        W46820   1.979  10.024  13.946 -0.0194  0.1045  0.2788
27287W        W46821   7.897   5.421   4.925 -0.1286  0.3481 -0.2547
27288W        W46822   1.538   6.280   4.610 -0.3284  0.0147  0.2405
27289W        W46823  12.782   6.646   4.899 -0.0167  0.4049 -0.2416
27290W        W46824   7.314   1.688  14.842 -0.0586  0.0242 -0.0592
27291W        W46825  10.608   5.870   4.123 -0.0710  0.1437 -0.0013
27292W        W46826   5.251  16.731   4.104  0.2659  0.1128  0.1366
27293W        W46827   9.570  11.760  17.270 -0.0798  0.0779 -0.0521
27294W        W46828  10.083  10.802   2.980 -0.0030  0.0908  0.1756
27295W        W46829  14.639   1.319  17.064  0.1728 -0.1097  0.0067
27296W        W46830   2.815  11.906   0.916  0.0730  0.1120  0.2487
27297W        W46831  15.714   2.364  15.589 -0.1296  0.2212 -0.0661
27298W        W46832  11.059   1.800  15.601  0.0531 -0.0826  0.1933
27299W        W46833   9.212   2.768  16.189  0.1252 -0.2499 -0.0092
27300W        W46834  12.607  13.059   1.525 -0.2284 -0.1076  0.2431
27301W        W46835  15.420  10.875  13.558  0.1885  0.0599 -0.0795
27302W        W46836  10.163   6.700  13.639  0.1292  0.1086  0.0716
27303W        W46837  16.478  15.025   3.389  0.1966  0.0740  0.0265
27304W        W46838  12.844   9.450   3.504  0.0969 -0.0345  0.2661
27305W        W46839   4.899   6.217   0.846 -0.1915  0.0119 -0.0363
27306W        W46840   6.663   6.533   0.575  0.2152 -0.1596  0.1067
27307W        W46841   9.294   6.683  15.478  0.0926  0.2666 -0.1392
27308W        W46842  13.933   5.799   5.997 -0.0344  0.0566 -0.2817
27309W        W46843  13.206   8.471  12.986 -0.1500  0.0110 -0.1619
27310W        W46844   5.080   5.319  14.816  0.1813  0.1917  0.1248
27311W        W46845   8.443   0.071   0.019 -0.2513  0.0686  0.0828
27312W        W46846  14.469  16.835   3.091 -0.0482  0.0628 -0.0156
27313W        W46847   8.089   0.758   0.990  0.1126 -0.2235 -0.1043
27314W        W46848   7.769   9.154  14.715 -0.1380  0.0688  0.1830
27315W        W46849  15.576   0.910  12.680 -0.0099 -0.2955  0.0247
27316W        W46850  12.267  16.839  12.828  0.0925  0.0580 -0.1782
27317W        W46851   1.684   4.593   5.034 -0.2195 -0.0697  0.1812
27318W        W46852  15.670   5.024  13.371 -0.2913  0.1203  0.1874
27319W        W46853  16.481   7.084  12.435 -0.2745 -0.1297  0.0762
27320W        W46854   3.478   3.103   1.732  0.1369  0.3877 -0.0959
27321W        W46855  15.444  17.310  13.869 -0.0636 -0.2341 -0.0494
27322W        W46856  16.133  16.031   0.713 -0.1124  0.0071  0.0709
27323W        W46857   2.980   6.629  15.574 -0.0038 -0.0568 -0.0034
27324W        W46858  14.225  11.640  17.148 -0.0154  0.1278 -0.2493
27325W        W46859   5.879   6.056   0.313 -0.2308  0.1405 -0.2062
27326W        W46860  14.353   0.345  15.501  0.0459  0.0103  0.0386
27327W        W46861  13.412  14.091   0.015  0.0468 -0.1131  0.1170
27328W        W46862   4.102   3.089  13.173  0.1746  0.0757  0.1257
27329W        W46863   6.447   7.401   5.167  0.0415  0.1203 -0.0296
27330W        W46864   1.247  11.807   0.978  0.1752 -0.1203  0.2005
27331W        W46865   8.812   5.625   1.226 -0.0980 -0.3085  0.1148
27332W        W46866   5.526   0.546  16.635 -0.1872  0.1401 -0.0808
27333W        W46867  10.765   7.154  14.226 -0.5132 -0.2030 -0.1035
27334W        W46868   4.792   4.964  14.622  0.0343  0.0823 -0.1059
27335W        W46869  10.147  17.094  15.410  0.2836  0.0988  0.2001
27336W        W46870  10.588  13.343   0.076  0.0985  0.0125  0.0949
27337W        W46871   7.139   9.896  16.627 -0.2282  0.2811  0.0684
27338W        W46872   4.070   2.113   4.541  0.1560 -0.0069 -0.0701
27339W        W46873   3.383  16.189   0.179  0.0221 -0.1072  0.1946
27340W        W46874   1.742   7.271   0.268  0.2318  0.0291 -0.0848
27341W        W46875  10.370  11.402  16.993  0.1296  0.0231  0.2152
27342W        W46876   9.214   9.568   0.358 -0.0403  0.1133 -0.0630
27343W        W46877  14.539   7.681  12.479 -0.0418  0.0302 -0.2330
27344W        W46878  11.363   1.058  13.961  0.1778  0.1053 -0.1783
27345W        W46879   5.919  12.395  14.799 -0.1990  0.0947  0.1310
27346W        W46880   0.596  15.238  16.567 -0.0190 -0.1162 -0.1467
27347W        W46881  15.986   0.291   2.204 -0.4749 -0.1033 -0.0720
27348W        W46882   2.933  11.614   3.025  0.0388  0.0916 -0.0593
27349W        W46883  13.124  16.822   2.870  0.0772  0.0099  0.0352
27350W        W46884  16.394   5.104   5.027  0.0666  0.0579 -0.2147
27351W        W46885  15.600  10.846  16.752 -0.1539  0.2363 -0.0004
27352W        W46886   8.476   9.986  16.402 -0.4529  0.2791  0.0994
27353W        W46887   5.993   5.113   1.004  0.0851  0.1899  0.0045
27354W        W46888  15.914   6.500   3.231  0.0198  0.1696 -0.0087
27355W        W46889   1.816  11.629   3.711  0.0059 -0.0510 -0.0861
27356W        W46890   0.029  14.801   3.729  0.0647  0.1584  0.1508
27357W        W46891  12.048  11.799   0.126  0.0974  0.0269 -0.1232
27358W        W46892   4.775   9.976  15.387 -0.0837  0.0664 -0.2517
27359W        W46893  12.381  11.946   0.827 -0.1823  0.0491  0.0163
27360W        W46894  14.761   3.671   4.996 -0.4346 -0.1744 -0.0548
27361W        W46895   1.863   3.408  12.896 -0.1085 -0.1727 -0.1228
27362W        W46896   3.874   5.984  17.236  0.0188 -0.0996  0.3620
27363W        W46897  12.002  11.655   1.593 -0.0889 -0.0147 -0.1050
27364W        W46898   7.263   8.697  17.065  0.0196 -0.3038  0.2773
27365W        W46899  16.111   2.588  14.017 -0.1053  0.0403  0.1060
27366W        W46900   7.322  14.829   4.091 -0.0309  0.1904  0.3346
27367W        W46901   0.436  14.041  13.443 -0.0297 -0.2222  0.3449
27368W        W46902  15.200   0.202  12.440 -0.0287 -0.1215 -0.0979
27369W        W46903  14.361  13.591   3.160 -0.0414 -0.0075 -0.0038
27370W        W46904   9.392   4.489  13.719 -0.1815  0.0667 -0.0233
27371W        W46905   2.939  14.176   1.695  0.0484  0.4888  0.1111
27372W        W46906   6.221   0.926  14.261 -0.1700 -0.0488  0.0715
27373W        W46907   5.469  17.121  16.809  0.1234  0.0972 -0.0776
27374W        W46908  14.923   2.870  14.641  0.1612 -0.3613  0.2193
27375W        W46909  10.908   6.219   3.144  0.3064 -0.0959 -0.1734
27376W        W46910  15.961   4.793   3.429 -0.1415  0.2221 -0.3046
27377W        W46911  16.188  16.977   0.734 -0.0618  0.1992  0.1914
27378W        W46912  13.964   1.857   0.831 -0.1263 -0.0235 -0.2678
27379W        W46913   0.735   7.632   1.660 -0.0064 -0.0065  0.0549
27380W        W46914  11.963  14.276   5.163 -0.1677 -0.2273 -0.0918
27381W        W46915  12.101   8.303  14.920  0.2080  0.0080 -0.5210
27382W        W46916   5.064  15.912   4.408  0.2211 -0.1738  0.1246
27383W        W46917   9.686   7.023  15.380  0.0633 -0.0794  0.0534
27384W        W46918   2.283   5.945   0.047  0.0043  0.2939  0.0695
27385W        W46919  12.947   4.467  15.541  0.0714 -0.0866 -0.1032
27386W        W46920   4.167   3.824   2.394  0.3281  0.1876  0.0298
27387W        W46921  10.508  14.158   1.744  0.0555 -0.2711 -0.1112
27388W        W46922  15.653   8.318  13.657 -0.3533 -0.4118 -0.1920
27389W        W46923   6.508  12.497   3.374  0.1974  0.1027  0.0009
27390W        W46924   3.131   5.193   3.448  0.0968 -0.0270 -0.0242
27391W        W46925   6.675   4.998  15.960 -0.2174 -0.2173  0.1690
27392W        W46926   4.984   0.575   4.213  0.0285  0.3810  0.1932
27393W        W46927   5.369   9.290   0.867  0.0224 -0.1384  0.2660
27394W        W46928   9.219  11.908  16.444  0.0572  0.0440  0.3696
27395W        W46929   2.838  15.259   0.595 -0.0721  0.1889  0.0562
27396W        W46930  15.245   3.006  15.925  0.0659 -0.0597  0.0107
27397W        W46931  15.165   1.846   5.284  0.0517  0.0647 -0.1114
27398W        W46932   5.600  11.400   3.185  0.0052 -0.3250  0.0695
27399W        W46933   4.979   3.780  15.453  0.1963 -0.2275 -0.0094
27400W        W46934  16.538   4.242  16.940  0.0744 -0.0037  0.2554
27401W        W46935   6.991   2.624   5.085 -0.0744 -0.3953 -0.0843
27402W        W46936  15.460   7.832   2.779 -0.0638 -0.3204  0.0680
27403W        W46937  15.225   5.233   4.484  0.3060  0.0992 -0.1008
27404W        W46938   2.202  15.936  13.522 -0.2389 -0.0752 -0.2597
27405W        W46939   4.053   9.553   1.531 -0.1860 -0.1187 -0.0544
27406W        W46940  16.161   6.111  16.661  0.0716  0.1311  0.3286
27407W        W46941  13.636  10.740  15.451  0.2298  0.1366 -0.2647
27408W        W46942   4.587  10.359   5.235 -0.1407 -0.0454 -0.1050
27409W        W46943   7.140   4.733  12.524 -0.1260  0.4049 -0.1247
27410W        W46944  17.305  11.690  15.274 -0.1537 -0.2274  0.0109
27411W        W46945  14.819   4.677   4.075  0.2596  0.0927  0.1352
27412W        W46946   6.157   4.242  15.610  0.1678  0.4155 -0.0404
27413W        W46947  12.775   2.627  16.307 -0.1484 -0.2004  0.2687
27414W        W46948   4.600   4.084   2.190 -0.0380 -0.2310 -0.2316
27415W        W46949   1.666   6.652   1.771  0.0249  0.2271 -0.2141
27416W        W46950   9.548  13.972   1.602  0.4023 -0.1790 -0.1007
27417W        W46951   0.855  11.433   0.788  0.0130  0.2078  0.0834
27418W        W46952   3.377  17.133   0.182  0.1020 -0.1743  0.1234
27419W        W46953   7.249   6.740  14.646  0.1129 -0.0892  0.0027
27420W        W46954   1.479  16.721   3.400 -0.2474  0.1488 -0.1918
27421W        W46955   6.422  12.561  12.643 -0.0380  0.1666  0.3021
27422W        W46956   6.259   1.005   1.692 -0.3331  0.1954 -0.0821
27423W        W46957  14.605  13.788  16.235 -0.0415 -0.2469 -0.2305
27424W        W46958   4.814  12.386  13.575 -0.0539 -0.2618  0.1740
27425W        W46959   7.760   9.351  16.127 -0.0575  0.0202 -0.1232
27426W        W46960  11.688   9.524  16.590 -0.0622 -0.1128  0.0152
27427W        W46961   7.153   7.667  14.114 -0.0272  0.0241 -0.0037
27428W        W46962  13.408  13.749  16.091 -0.0016 -0.2417  0.0580
27429W        W46963   6.742   6.959   1.828 -0.0436 -0.0873  0.2721
27430W        W46964   6.716  15.879   3.751  0.3072  0.0903  0.0102
27431W        W46965   9.972   0.800   3.437  0.1507  0.0578  0.0591
27432W        W46966  10.638   1.419  15.541 -0.0205  0.1355  0.0326
27433W        W46967   4.941   8.063  16.621  0.1141  0.1419 -0.0947
27434W        W46968  13.145   3.200  15.119  0.0630 -0.0123 -0.0590
27435W        W46969   1.251   6.759  16.603  0.0296 -0.2161  0.1598
27436W        W46970   2.514   2.691   0.489  0.1357 -0.0244  0.0349
27437W        W46971  17.185  12.541  16.416 -0.0044  0.0727 -0.1557
27438W        W46972  12.963   0.728   3.729  0.0414 -0.0057  0.2870
27439W        W46973   2.192   9.791  14.499  0.2190 -0.0018  0.2492
27440W        W46974  16.280  15.256  13.205 -0.0724  0.1514 -0.4073
27441W        W46975   8.973   8.052  15.414 -0.1236 -0.0173 -0.0797
27442W        W46976   0.451  10.916   2.251  0.1216  0.0043 -0.0097
27443W        W46977   6.234  11.694   1.537  0.1608 -0.1945 -0.0256
27444W        W46978   0.125   4.953  14.338  0.0267  0.0546  0.3131
27445W        W46979   5.650   9.576   3.102  0.2104 -0.0028 -0.2363
27446W        W46980  15.124   8.089   2.988  0.3407 -0.0563 -0.0899
27447W        W46981   6.917   1.975  16.815  0.1002 -0.0972  0.1264
27448W        W46982  17.146   6.841  14.527  0.2625  0.0629 -0.2191
27449W        W46983   2.104   1.900  11.291  0.0492  0.0864 -0.0461
27450W        W46984  12.002  13.566   3.494  0.1272 -0.2274  0.0311
27451W        W46985  16.899   5.522  14.061  0.3316  0.4011 -0.0001
27452W        W46986   4.586  14.002   3.020 -0.1220  0.0431  0.3551
27453W        W46987  17.165  10.646  16.332  0.0406  0.0162  0.1295
27454W        W46988   5.306  14.291   4.372  0.2079  0.0621  0.2387
27455W        W46989   6.964  11.559  13.229 -0.0514 -0.3038  0.0637
27456W        W46990  15.508  10.368   2.489 -0.0560  0.1719 -0.2966
27457W        W46991   8.317  15.206   1.726  0.0184  0.0248 -0.3395
27458W        W46992  10.886   4.470  16.017  0.0098  0.0409 -0.1163
27459W        W46993   7.921   2.701  14.133  0.2763 -0.1370 -0.1061
27460W        W46994   4.835  17.188  15.043  0.4217  0.0809 -0.3461
27461W        W46995   6.982  12.522   0.440  0.0362  0.2790  0.1068
27462W        W46996   8.356   5.865  12.588  0.0588 -0.0501  0.3116
27463W        W46997   7.609   2.688  12.442  0.1171 -0.0584 -0.0695
27464W        W46998  15.805   3.847  14.896  0.0318 -0.3076 -0.1351
27465W        W46999  13.471   0.729   4.766  0.2020 -0.2858 -0.0745
27466W        W47000  16.936   1.256   4.984  0.0193  0.0128 -0.1051
27467W        W47001  17.124   6.729   4.842  0.1185 -0.4015 -0.0575
27468W        W47002   0.871  14.127   4.273 -0.2517 -0.0957 -0.1595
27469W        W47003  12.589   8.659  12.812  0.1406  0.3324 -0.0712
27470W        W47004  12.356   6.109  12.555 -0.1714 -0.0183 -0.0875
27471W        W47005   8.570  17.175   4.393 -0.1275  0.0053 -0.1686
27472W        W47006   7.178  14.288   3.953  0.0786  0.0265  0.1722
27473W        W47007  14.074  11.163   0.144  0.0715 -0.1580  0.1563
27474W        W47008   9.678   9.475   4.552  0.2339 -0.0920 -0.1925
27475W        W47009   0.697  13.241  15.401 -0.1770 -0.0609  0.3504
27476W        W47010   0.055   2.027  12.704  0.2810  0.2745 -0.3440
27477W        W47011  12.225  14.327  13.242  0.0775  0.3877 -0.0023
27478W        W47012  15.960  17.094  16.322  0.0294  0.0921  0.1430
27479W        W47013   7.344  14.237  16.903  0.2513 -0.0670 -0.5093
27480W        W47014  14.602   1.707  15.586  0.1714 -0.0361 -0.0341
27481W        W47015  13.896   0.468   4.697 -0.0230 -0.3139 -0.0769
27482W        W47016  12.467   7.310  15.526  0.0280  0.0986  0.0869
27483W        W47017   1.163  16.252  15.441  0.0455 -0.2821 -0.1792
27484W        W47018   2.912  15.561  14.467  0.2019 -0.0198 -0.0576
27485W        W47019   6.412   5.661  14.919 -0.0039 -0.0983  0.1862
27486W        W47020  11.434   7.412   0.962 -0.1539 -0.2569 -0.3359
27487W        W47021   9.453  13.872  13.399  0.1342 -0.1345  0.0446
27488W        W47022   1.541   7.763   0.246 -0.1141 -0.3127 -0.2387
27489W        W47023  13.268   2.628  16.986 -0.0887 -0.1716 -0.2209
27490W        W47024  14.228   1.765  12.895  0.3259 -0.0143 -0.2389
27491W        W47025   0.318   2.057  12.221  0.0884 -0.2589  0.2712
27492W        W47026  14.270   4.030  15.015 -0.0330  0.2565 -0.0036
27493W        W47027  10.669  13.053   3.406 -0.2458  0.0657  0.1063
27494W        W47028  10.437   0.229  16.806 -0.0142 -0.2055 -0.0178
27495W        W47029  14.699  16.112  12.521  0.2159 -0.1300 -0.3405
27496W        W47030   7.276  17.132   1.500  0.0366 -0.1295 -0.0181
27497W        W47031   3.556  12.104  13.643  0.3408  0.0372  0.0406
27498W        W47032   6.114  11.762  12.960  0.1987  0.0702 -0.0808
27499W        W47033  11.021   1.698   3.684  0.0185  0.0194  0.1088
27500W        W47034  16.636  16.133   4.359  0.2324 -0.2581  0.0115
27501W        W47035   4.342   9.576  15.868  0.0240 -0.1467  0.1728
27502W        W47036   8.237  10.218   1.597 -0.0730 -0.0793  0.1858
27503W        W47037   9.632   5.043   1.555 -0.2138 -0.0095  0.1981
27504W        W47038  16.568   5.438  13.243 -0.1761  0.3039 -0.1913
27505W        W47039  11.416   3.179  14.344 -0.0788 -0.2235  0.2916
27506W        W47040   1.439   9.464  14.834  0.2906  0.0714  0.0254
27507W        W47041  14.003  12.313  12.478  0.0440 -0.2128 -0.2046
27508W        W47042  17.224   7.516  13.197 -0.0691 -0.2344  0.2054
27509W        W47043  11.661   6.432  15.103 -0.1317 -0.0018  0.2990
27510W        W47044  16.967  11.066  15.297 -0.2284  0.1675 -0.1933
27511W        W47045   5.939   0.231  12.440  0.0392 -0.2658 -0.1076
27512W        W47046   5.084   2.734  14.562 -0.1283  0.1967 -0.1302
27513W        W47047   3.794   9.843   3.703 -0.3192  0.0777 -0.1173
27514W        W47048   2.823  11.245  14.888 -0.1676 -0.0249 -0.0308
27515W        W47049   5.386   4.647  13.082 -0.0921 -0.1696  0.0625
27516W        W47050   9.791   2.187  15.697  0.1005  0.1855 -0.2247
27517W        W47051  16.560   7.376  16.583  0.2301  0.0910 -0.1810
27518W        W47052  11.997   6.774  15.012 -0.2134  0.1854  0.0158
27519W        W47053  16.072   8.807  17.291 -0.1095  0.0956  0.0740
27520W        W47054   1.855  12.519  14.839  0.1232 -0.1857  0.0831
27521W        W47055   9.733  13.751   0.785  0.0421  0.1134 -0.1269
27522W        W47056  11.336  15.923  17.146  0.0258  0.0037  0.1492
27523W        W47057   3.786   6.563   2.426 -0.0603 -0.2976  0.2048
27524W        W47058  13.607   6.346   3.027  0.2060 -0.1379  0.0756
27525W        W47059   2.808  14.304  15.076 -0.0936 -0.1709  0.1899
27526W        W47060  10.529   3.298   3.421 -0.0095 -0.0324 -0.1994
27527W        W47061  14.191  12.248   4.400  0.0553 -0.2335 -0.4138
27528W        W47062  15.052   4.943  15.085 -0.2389  0.0132  0.0472
27529W        W47063  12.158   9.305   4.064 -0.0194 -0.0884  0.0947
27530W        W47064  16.113   3.578  14.584  0.0721  0.0728 -0.0995
27531W        W47065   6.869   7.436   4.254  0.2055  0.0526  0.2961
27532W        W47066  16.788  13.922   3.903 -0.1311 -0.2903  0.2372
27533W        W47067  16.443  11.881   1.315 -0.1217 -0.0749  0.1318
27534W        W47068   6.547  10.241   4.455 -0.1309  0.3668  0.0432
27535W        W47069   5.738   5.913  13.434  0.1536  0.0038  0.3636
27536W        W47070   3.461  12.234  15.850 -0.2190  0.0912 -0.0385
27537W        W47071  15.222   5.069  16.276  0.1741 -0.1131  0.1172
27538W        W47072  11.861   1.704   4.598 -0.2409 -0.0858  0.0037
27539W        W47073  11.833   4.268   4.762 -0.0246  0.0405 -0.1816
27540W        W47074  13.546   7.013   3.318 -0.0441 -0.3787 -0.1275
27541W        W47075  11.602  11.432  13.392 -0.1227 -0.0203 -0.1406
27542W        W47076   9.929   5.083   1.185 -0.1689  0.1046 -0.0991
27543W        W47077  13.314  11.111   1.402 -0.0172  0.1453 -0.2555
27544W        W47078   1.068  15.780  15.261 -0.1315 -0.2952  0.2835
27545W        W47079  10.651  15.066  12.636  0.0332 -0.0164 -0.1352
27546W        W47080   1.899  14.268  16.145 -0.1722  0.4910 -0.3254
27547W        W47081   2.061   8.219  16.977  0.2520 -0.2591  0.2280
27548W        W47082  15.332   4.992  12.970 -0.1665  0.1251 -0.0005
27549W        W47083   6.386  13.611  16.708  0.0029 -0.0229 -0.0677
27550W        W47084   9.300   7.511   0.134 -0.0129  0.1442  0.3675
27551W        W47085   1.886  11.510  13.738 -0.1167 -0.3253  0.0974
27552W        W47086   1.075   7.440  12.093  0.1691  0.1464 -0.3810
27553W        W47087   7.886   2.717   4.605  0.0221  0.1707  0.2734
27554W        W47088   4.147   7.435   3.241 -0.2122  0.0757  0.1140
27555W        W47089   0.689  17.288   3.509 -0.0097  0.1183 -0.1686
27556W        W47090  15.311  15.095  13.119 -0.2879 -0.0720 -0.0613
27557W        W47091  11.782   6.568   2.551 -0.0500 -0.0791 -0.4779
27558W        W47092   0.550  14.860   1.103  0.0418 -0.1605 -0.2784
27559W        W47093   8.848  10.789  14.682  0.5343 -0.0708 -0.4005
27560W        W47094   6.027  12.197   0.201 -0.3490 -0.4447  0.3382
27561W        W47095   7.951  10.615  16.746 -0.4390 -0.3705  0.0927
27562W        W47096  13.211   2.275  15.680  0.2016  0.0649 -0.2609
27563W        W47097  16.275   8.794   3.857 -0.1166  0.1990 -0.1332
27564W        W47098  15.131  16.816  12.236  0.4509  0.0411  0.2023
27565W        W47099  10.798  13.376   2.004  0.1435 -0.2298  0.3822
27566W        W47100   3.277   4.751   3.155  0.1877 -0.0089 -0.1184
27567W        W47101   1.397   7.902   3.129 -0.1986 -0.2601 -0.1841
27568W        W47102   8.525  12.686  12.929 -0.0859 -0.1897 -0.1596
27569W        W47103   4.774   2.049   3.013 -0.0525 -0.0392  0.0654
27570W        W47104   3.548   1.890  14.233  0.0347  0.1190 -0.0666
27571W        W47105  13.539   0.904   1.007 -0.0516 -0.2325  0.0975
27572W        W47106  12.921   7.076   3.273 -0.0213  0.1686 -0.0714
27573W        W47107  16.496   2.736   1.992 -0.1673  0.0501  0.2220
27574W        W47108  11.128  16.811   1.601 -0.2219  0.0354  0.1558
27575W        W47109   3.347   3.411  13.859  0.2464 -0.2042 -0.1268
27576W        W47110   6.648   9.886   1.712  0.2598  0.1748  0.0264
27577W        W47111  11.033  13.949   4.566  0.2476  0.0223 -0.1011
27578W        W47112   4.736   7.049   5.700 -0.1005 -0.2399  0.3741
27579W        W47113  17.336   3.875  12.699  0.1734 -0.1965  0.0390
27580W        W47114   1.141   8.315  12.675 -0.1244  0.3787 -0.0726
27581W        W47115   5.430   3.207   1.467 -0.1041 -0.1293  0.3993
27582W        W47116   8.088  13.691   5.117  0.2187 -0.0327  0.0376
27583W        W47117   9.867   8.215   0.054 -0.0385 -0.2888  0.0528
27584W        W47118   7.741   8.563  11.760 -0.0750 -0.2707 -0.0716
27585W        W47119  12.461   1.912  14.246  0.1233  0.1962 -0.0871
27586W        W47120  15.334   7.837  12.896  0.1288  0.3936 -0.0193
27587W        W47121   2.382  14.690   1.838 -0.2444 -0.0486  0.0855
27588W        W47122   2.852  10.902   3.062  0.1698  0.0207 -0.2862
27589W        W47123   5.633   4.363   0.074  0.2776 -0.1626 -0.1395
27590W        W47124   2.153   7.526   1.676  0.3688 -0.0620  0.1109
27591W        W47125   9.331   0.453  13.177 -0.0180 -0.0944  0.0906
27592W        W47126   3.948   5.615   3.747  0.2102 -0.1828 -0.0827
27593W        W47127   5.331   1.627   0.735  0.2979  0.1602  0.0081
27594W        W47128   5.056   7.440   3.890 -0.3226  0.1099 -0.2633
27595W        W47129   7.454   7.861  13.756 -0.2579  0.0526  0.1814
27596W        W47130   3.225   5.204   4.973 -0.3169  0.2962  0.0496
27597W        W47131   0.291   3.861   5.155 -0.1125  0.0338  0.3917
27598W        W47132   5.903  10.358   5.185 -0.0249  0.1483  0.3199
27599W        W47133   3.823  15.653  15.719 -0.0117  0.2153  0.1793
27600W        W47134  13.241  11.930   1.703 -0.1374 -0.3022  0.0664
27601W        W47135   7.482  11.412   4.714 -0.1282  0.4117  0.1299
27602W        W47136   9.888   0.403  12.975 -0.1381  0.0271  0.3285
27603W        W47137  10.499  16.582  12.269 -0.1854 -0.3255 -0.0238
27604W        W47138   1.522  10.026  12.909 -0.2422  0.0046  0.2795
27605W        W47139   0.508  16.301  13.345 -0.0415 -0.2017 -0.0586
27606W        W47140  16.939  12.198  16.740  0.3107  0.1442  0.0557
27607W        W47141  15.131  17.132   3.662 -0.0603  0.3057 -0.2303
27608W        W47142   0.240   0.257   3.107 -0.2850 -0.0963 -0.0186
27609W        W47143   6.384   5.404  12.142  0.0780 -0.0704  0.1918
27610W        W47144   0.666   5.492  13.104  0.1964  0.0207  0.2418
27611W        W47145   8.432  15.399  12.639 -0.0383  0.1779  0.0861
27612W        W47146  15.480   4.167  16.370  0.3401 -0.0944 -0.5524
27613W        W47147   6.387   9.705  14.260 -0.1239  0.0400 -0.0363
27614W        W47148   0.840   1.490  17.039  0.0662  0.0996  0.1567
27615W        W47149   3.372  15.512   4.827  0.1386 -0.0142  0.1893
27616W        W47150  12.313   2.037   2.096 -0.0294 -0.3434 -0.2838
27617W        W47151  13.323   2.240  14.020  0.0565 -0.0943  0.1005
27618W        W47152   7.305   1.150  13.476 -0.0596  0.0064 -0.2009
27619W        W47153  13.406  13.202  14.211 -0.1070  0.1534 -0.0839
27620W        W47154   6.720   0.237   4.977  0.0716 -0.1628  0.1477
27621W        W47155  10.734  10.409  12.449  0.2329  0.0052  0.0978
27622W        W47156  14.509  17.406   4.217  0.2446 -0.0701 -0.1022
27623W        W47157  16.745   6.782   3.609 -0.0974 -0.1466 -0.0603
27624W        W47158   5.468  11.458  12.519  0.0099 -0.0293 -0.3553
27625W        W47159   9.970  12.406  13.218  0.0548  0.1644  0.0530
27626W        W47160   9.002  15.092  16.665 -0.1941  0.0483  0.4947
27627W        W47161   3.166   6.290   0.435 -0.1295  0.2135 -0.0983
27628W        W47162  13.669   8.277   1.248 -0.0135 -0.1780 -0.0837
27629W        W47163   7.163  16.786  14.973  0.1436 -0.2666 -0.1918
27630W        W47164  15.588  11.172  12.923  0.1172 -0.0986  0.0841
27631W        W47165   0.664   1.610   1.174  0.2111 -0.1907  0.1134
27632W        W47166  13.217  10.081   1.285 -0.1794  0.1910 -0.3112
27633W        W47167   7.287  14.379  15.922  0.1793 -0.0636 -0.0462
27634W        W47168   0.363  13.698  15.721 -0.1116 -0.0071 -0.0771
27635W        W47169   6.482  16.839   2.929  0.0169  0.1588 -0.1316
27636W        W47170   8.457  15.655   3.415  0.1045 -0.0051 -0.1182
27637W        W47171   7.219   9.553   3.152 -0.0658 -0.0182  0.0277
27638W        W47172  10.195  15.273  14.014 -0.1734 -0.2128  0.1398
27639W        W47173  11.601  14.656  17.030 -0.0612 -0.1091 -0.1972
27640W        W47174  14.646   6.849   1.026 -0.0234 -0.1804 -0.3039
27641W        W47175  16.071   5.086   2.788 -0.2273  0.1012  0.1536
27642W        W47176   5.929   8.750   1.544 -0.0489 -0.0503 -0.1451
27643W        W47177  15.239   7.689   2.268  0.1251 -0.0312  0.0917
27644W        W47178   0.050  12.785  12.955 -0.1253 -0.2638  0.0874
27645W        W47179   1.200   7.772  13.957  0.0725  0.2642 -0.2958
27646W        W47180  14.921  10.472  14.873 -0.1388  0.0583 -0.1512
27647W        W47181   2.440  13.337  12.756  0.0187  0.1954  0.2574
27648W        W47182  16.174   1.649   0.937  0.0497  0.1202 -0.1728
27649W        W47183   8.037   6.027   5.173 -0.1827  0.0366 -0.2337
27650W        W47184   5.059   6.127  12.623  0.2417  0.3734  0.1036
27651W        W47185   5.094   0.766  16.232  0.0489 -0.1211  0.2232
27652W        W47186   7.430   8.470  14.981 -0.0305 -0.0293 -0.2574
27653W        W47187  11.932   9.074   0.634 -0.0624  0.0280 -0.0474
27654W        W47188  13.284  10.156   1.930  0.1232  0.0432  0.1487
27655W        W47189   3.770   2.944  17.026 -0.2746 -0.1150 -0.2706
27656W        W47190   4.472  17.202   2.216  0.2622 -0.1540  0.1291
27657W        W47191   9.760   9.352   3.993 -0.0557 -0.0795 -0.0243
27658W        W47192  15.329   7.310   2.661  0.2801 -0.2093  0.0157
27659W        W47193  13.666  10.909  12.850  0.0423  0.0660 -0.0532
27660W        W47194  10.170   0.421   3.891  0.1027  0.0201 -0.1604
27661W        W47195  13.317  14.952   1.448  0.1209 -0.2395 -0.0014
27662W        W47196   6.669   7.079   2.581  0.0630  0.0991 -0.0610
27663W        W47197  14.885  13.521   3.839 -0.3934 -0.0966  0.0001
27664W        W47198  15.288   0.207  16.000 -0.0256  0.2260 -0.1826
27665W        W47199   9.625   4.969  16.959 -0.0393  0.3780 -0.0113
27666W        W47200  10.427   2.205  15.011 -0.0022 -0.1117  0.0171
27667W        W47201   5.731  16.849   2.527 -0.2233 -0.1015  0.0496
27668W        W47202   0.878   9.100  14.008 -0.3895  0.3663 -0.1824
27669W        W47203   2.720   2.472   2.313  0.1377  0.0318  0.0127
27670W        W47204   2.713   8.296   4.319  0.1110 -0.1140 -0.0858
27671W        W47205  13.211   4.404   0.956  0.1583  0.0322  0.2404
27672W        W47206  10.950   6.031   4.847 -0.0589 -0.0592  0.2091
27673W        W47207   2.769   5.345  15.202 -0.1762  0.2230 -0.0023
27674W        W47208   7.254  12.026  13.018  0.1077 -0.1816  0.1594
27675W        W47209   5.035   2.263   1.647  0.1496 -0.0676  0.1530
27676W        W47210  10.246   3.628  15.698 -0.0801  0.0118  0.2609
27677W        W47211  13.562  11.287   3.532  0.1520 -0.0851 -0.0137
27678W        W47212  12.685   4.868  13.989  0.1793 -0.1609 -0.2385
27679W        W47213  10.278   2.163   3.888 -0.1090 -0.2953  0.0272
27680W        W47214   2.548  11.353  17.067 -0.0882  0.5620 -0.1109
27681W        W47215  16.282   0.409   3.004  0.1381  0.0598 -0.0144
27682W        W47216   6.722  15.919   2.257  0.2054 -0.2833  0.2802
27683W        W47217   5.997  12.639   1.793 -0.2325 -0.0269  0.0018
27684W        W47218  11.220   0.309  12.481  0.0535  0.0093  0.2481
27685W        W47219   1.752  10.881   1.736 -0.1062  0.0440 -0.1443
27686W        W47220  15.322   0.245   4.782 -0.2717 -0.2316  0.0226
27687W        W47221   0.022  16.929   0.996 -0.0093  0.2336 -0.0115
27688W        W47222   1.779  10.240  12.524  0.1072 -0.0014  0.0415
27689W        W47223  10.897   0.058  12.832  0.0554 -0.0230 -0.2115
27690W        W47224   8.244   2.761  13.743 -0.2226  0.4888  0.0948
27691W        W47225   5.699   3.287  17.169  0.1744  0.1722 -0.3141
27692W        W47226  12.060   0.424  17.164 -0.3306 -0.2112 -0.1297
27693W        W47227   3.000  16.698  11.666  0.1022 -0.1176 -0.1038
27694W        W47228  17.294   9.502   0.351  0.0203 -0.2422  0.2207
27695W        W47229   8.117   3.149  14.102 -0.1399  0.1092  0.0589
27696W        W47230  12.873   2.265  11.818  0.1720 -0.0494 -0.0838
27697W        W47231  15.854   5.334  14.137 -0.1922 -0.0658 -0.1308
27698W        W47232   0.722   1.063  15.408 -0.1225  0.2485 -0.2623
27699W        W47233   9.828  14.694  13.011 -0.0315  0.1287 -0.1832
27700W        W47234  17.078   5.850  14.503 -0.0832  0.1038  0.2314
27701W        W47235   3.704   1.848  15.868  0.0297 -0.2118 -0.3045
27702W        W47236  12.073   2.247  14.124  0.1120  0.0725  0.1542
27703W        W47237  12.801   4.565  16.762 -0.3945  0.0637 -0.0578
27704W        W47238   3.020  13.229  13.931  0.3357 -0.1313  0.0976
27705W        W47239   4.213   2.103  13.077 -0.2298  0.0326  0.1571
27706W        W47240   0.765   7.558  17.255 -0.4132  0.1170  0.1360
27707W        W47241   4.709  12.022   4.619  0.0913  0.1402 -0.1974
27708W        W47242   1.705  15.451  17.262 -0.1405 -0.1872 -0.1292
27709W        W47243   6.637  13.718  15.983  0.1312 -0.5258 -0.2317
27710W        W47244   2.854  16.645  15.461 -0.1343  0.0674  0.1183
27711W        W47245  11.264   8.359   1.799 -0.0853  0.0965 -0.0690
27712W        W47246   7.418   5.925  12.875 -0.2796 -0.3635 -0.2540
27713W        W47247   5.617   6.158   0.812 -0.0291 -0.3908 -0.1272
27714W        W47248   2.566  16.707  14.297  0.0104  0.3177  0.1017
27715W        W47249   8.454  13.870   3.619 -0.0266 -0.0521 -0.1508
27716W        W47250   9.863   3.104   4.602 -0.2592 -0.0452  0.4685
27717W        W47251   1.335  13.176   1.188  0.3386  0.2812  0.0453
27718W        W47252  13.300  14.995  13.461  0.0849  0.3291  0.1755
27719W        W47253  17.322   0.831  12.418  0.1561  0.0872  0.1757
27720W        W47254   9.939  11.572  14.851 -0.1809 -0.0889 -0.1403
27721W        W47255  10.224   0.297  14.759  0.0377  0.1393  0.4114
27722W        W47256   9.622  16.192  15.359 -0.1670 -0.2706  0.1633
27723W        W47257   1.554   1.439  13.279 -0.1289 -0.2965  0.1572
27724W        W47258   9.544   3.354  14.371 -0.2877  0.0704  0.3061
27725W        W47259  13.424   3.090   4.867 -0.1186 -0.2312  0.1882
27726W        W47260   1.308  15.454   0.344 -0.1003 -0.0075 -0.1201
27727W        W47261   1.456   7.940  12.663  0.0748 -0.0518  0.0817
27728W        W47262  16.566   9.403  16.230 -0.1805 -0.0772  0.1778
27729W        W47263   8.019   9.290  15.218 -0.2491 -0.0712 -0.1051
27730W        W47264  13.321   1.168  14.242  0.1484  0.2002 -0.1665
27731W        W47265   3.883  11.760   2.652  0.0511 -0.0246  0.0954
27732W        W47266  14.274   1.559   1.701 -0.2006 -0.1044  0.5027
27733W        W47267  14.604  14.170   0.254  0.2028 -0.1554  0.2111
27734W        W47268   9.400   9.216   1.569  0.3379 -0.0304 -0.0864
27735W        W47269   8.423   5.669  16.936 -0.0337 -0.1701 -0.0928
27736W        W47270  17.220  10.713   4.070  0.2590  0.3474  0.0293
27737W        W47271  15.403   5.211   3.729 -0.2934  0.0714 -0.3520
27738W        W47272  13.533  14.555   5.314  0.0671  0.1933 -0.1460
27739W        W47273   0.987   5.883  16.926 -0.1030  0.1967 -0.1498
27740W        W47274   9.428   3.628  17.152 -0.3663  0.1029  0.0156
27741W        W47275  16.605  14.895  13.380  0.1484  0.2616 -0.1336
27742W        W47276  14.321  17.320  15.621 -0.0915  0.1055  0.0898
27743W        W47277   5.123   6.540   3.478 -0.1822 -0.0492 -0.2047
27744W        W47278   6.121   6.069  14.743  0.0462 -0.2067 -0.2376
27745W        W47279   8.333  10.837  16.416 -0.3012  0.1150 -0.0368
27746W        W47280   9.218  13.062  12.283 -0.1043  0.0198 -0.0517
27747W        W47281   2.590  14.748  13.865  0.1725  0.0733  0.2848
27748W        W47282   3.132   5.131  15.931 -0.1151  0.0299 -0.3133
27749W        W47283   7.999   8.005   2.023 -0.0708  0.0366 -0.2053
27750W        W47284   3.487   0.362   2.015  0.4454  0.1162 -0.1049
27751W        W47285   3.974  13.078  12.911  0.0026 -0.1671  0.2663
27752W        W47286   0.174  11.711   1.377  0.0108 -0.2045  0.1134
27753W        W47287   6.692  14.125   1.065  0.0681 -0.2513  0.1837
27754W        W47288   2.922   8.725   2.065  0.0013 -0.0985 -0.0797
27755W        W47289   1.438   6.925  16.140 -0.1353 -0.1656  0.2563
27756W        W47290   7.496   3.756   2.702 -0.2406 -0.1452 -0.1255
27757W        W47291  10.559   5.988  12.514  0.1774 -0.1959 -0.2013
27758W        W47292  11.656  13.134   3.848  0.0697 -0.0521  0.2389
27759W        W47293   0.318   8.172   4.640 -0.2854 -0.1437 -0.2080
27760W        W47294  16.188  12.001  13.904  0.1216 -0.0704  0.2875
27761W        W47295  13.050   9.335   4.560 -0.0721  0.2578  0.0405
27762W        W47296   8.154  11.525  13.248  0.0787  0.0618 -0.0268
27763W        W47297   0.040  10.816  13.670 -0.0374  0.2812  0.0805
27764W        W47298  10.498  15.607  13.576 -0.0128  0.1364  0.2328
27765W        W47299   3.702   4.613   3.801 -0.0067 -0.0401  0.0108
27766W        W47300   4.812  16.382   1.739 -0.2556  0.0237  0.0590
27767W        W47301   8.611  16.910  15.308  0.1712  0.0896  0.1266
27768W        W47302  16.286   7.145  15.813  0.0355 -0.1962  0.0414
27769W        W47303   4.622   0.283   3.509 -0.0518  0.1245  0.2196
27770W        W47304  10.243   1.035   4.431 -0.1988  0.0411  0.1077
27771W        W47305  15.361  17.073  14.419 -0.0825 -0.1232 -0.2680
27772W        W47306   4.925   2.742  16.326 -0.1491  0.0272  0.0031
27773W        W47307  15.222  15.584  13.098 -0.0746 -0.1569  0.0477
27774W        W47308  11.857  11.972   1.965  0.0436 -0.1953 -0.0686
27775W        W47309  17.301  11.281  14.916  0.1198 -0.1632  0.1414
27776W        W47310  12.152   6.417   3.293  0.0698  0.2428  0.0375
27777W        W47311  16.259  10.211   4.609 -0.2028 -0.2371  0.1057
27778W        W47312   5.156  15.255   4.210 -0.1156 -0.2208  0.1591
27779W        W47313  16.471   6.660   2.521 -0.3065 -0.0478 -0.1007
27780W        W47314   9.645  13.121  13.521  0.2580  0.3650 -0.0057
27781W        W47315  11.323   2.037   2.228 -0.0490 -0.1113 -0.1308
27782W        W47316  13.128   6.666   2.268  0.3234 -0.0215  0.2601
27783W        W47317  12.782  14.259   2.664  0.0799 -0.3420 -0.0332
27784W        W47318  16.177  16.827   1.225  0.0045  0.0227  0.1234
27785W        W47319   0.131   1.535   3.548 -0.1786  0.0818 -0.1795
27786W        W47320   9.072   5.020  17.053 -0.2735 -0.0651 -0.2249
27787W        W47321   7.702  16.203   4.808  0.0874 -0.0943 -0.0382
27788W        W47322  13.898  12.545   1.861 -0.0635 -0.0152  0.0126
27789W        W47323   4.840   2.263  12.081 -0.1651 -0.1131 -0.2080
27790W        W47324  14.247   9.881   4.172 -0.0225 -0.0112  0.0305
27791W        W47325  17.258  12.192   4.384  0.1395  0.1637 -0.0770
27792W        W47326   4.489  11.465  14.502 -0.3445  0.1591  0.2239
27793W        W47327   2.922  15.930  16.172 -0.2978  0.1114  0.0869
27794W        W47328  11.627  15.078  16.753 -0.0181 -0.1470 -0.1925
27795W        W47329   2.013  12.065   4.042  0.0377 -0.0632 -0.0415
27796W        W47330   1.545  13.000  16.936  0.1528  0.1172 -0.0387
27797W        W47331  11.082  11.074  16.385  0.1386 -0.0477 -0.0580
27798W        W47332   4.741   8.400  16.977 -0.2036 -0.1407  0.6251
27799W        W47333   1.028  14.218  16.812  0.1375  0.2702  0.3117
27800W        W47334   4.820   7.874   3.839 -0.0348  0.0998 -0.0986
27801W        W47335  12.014   8.525   3.792  0.2802  0.0903 -0.3079
27802W        W47336  16.764   7.633   4.999  0.0318  0.0223 -0.0344
27803W        W47337  14.866   8.557   2.316  0.1607 -0.2512 -0.4211
27804W        W47338   0.757  11.634   3.515  0.2579  0.0362 -0.1173
27805W        W47339  11.457  10.470  14.092 -0.0953  0.1214  0.0331
27806W        W47340  17.373  13.150  16.491 -0.0071 -0.1673  0.0605
27807W        W47341  10.019   7.766  14.427  0.0247 -0.1285  0.1101
27808W        W47342  12.824  11.714   3.013  0.0702  0.1079  0.1689
27809W        W47343   8.445  11.455   0.648 -0.1170  0.1277 -0.2045
27810W        W47344  16.541  12.201   1.874  0.2358 -0.2094 -0.0234
27811W        W47345  13.468   4.909   1.781  0.1096  0.3666  0.2006
27812W        W47346  14.030  13.236   3.368 -0.1367  0.0236 -0.1795
27813W        W47347   7.976   2.670  15.659 -0.2709  0.0073  0.0981
27814W        W47348   1.793   0.015   3.462  0.3126 -0.0091 -0.2576
27815W        W47349   8.971   2.156   5.273  0.1926  0.1141 -0.2451
27816W        W47350  16.928   3.770   4.489 -0.2342 -0.1344 -0.3595
27817W        W47351  17.045  17.327  17.238  0.0282 -0.0831  0.1353
27818W        W47352   9.813   2.130   3.094  0.1502 -0.0847  0.2780
27819W        W47353   4.953   0.136   4.494  0.2685 -0.0176 -0.0292
27820W        W47354   9.350   8.094   5.186  0.3637 -0.0812 -0.3326
27821W        W47355   3.099   9.071   2.953  0.1360  0.3699 -0.1354
27822W        W47356   0.696   0.182  13.402  0.1573 -0.0013 -0.0097
27823W        W47357   9.275  12.317  16.102  0.3281 -0.1049 -0.0616
27824W        W47358  12.087   2.480   1.968  0.1244 -0.0187  0.2252
27825W        W47359  11.716  13.228  14.902  0.0498  0.0183  0.1456
27826W        W47360  10.275   6.500  12.805  0.0394  0.0889 -0.0190
27827W        W47361  16.130   0.759  15.573 -0.3127  0.2958  0.0875
27828W        W47362   5.595  16.480   0.256 -0.1370 -0.0405  0.2057
27829W        W47363   4.694  16.206   0.325 -0.1090  0.2233 -0.0514
27830W        W47364   7.032  10.783  14.298 -0.0060  0.0231  0.1278
27831W        W47365  12.996   4.338   1.420  0.0999  0.1070 -0.1122
27832W        W47366  16.485  12.323  14.889 -0.0656 -0.0482 -0.3033
27833W        W47367   9.528  12.055  15.693  0.1000  0.3172 -0.0145
27834W        W47368   7.248   4.016   4.600 -0.0320 -0.0326  0.1304
27835W        W47369  16.831   0.740   4.350 -0.1853 -0.1284  0.0001
27836W        W47370   3.084  12.099  14.416 -0.0557 -0.0211 -0.1219
27837W        W47371  13.585   4.628   0.074 -0.0252  0.1776  0.1698
27838W        W47372  16.378  12.013   0.116 -0.0776 -0.1588  0.4144
27839W        W47373  11.354   1.712   1.242 -0.0319 -0.3057 -0.0406
27840W        W47374  14.963  10.156   4.925 -0.3237 -0.1126 -0.0176
27841W        W47375   5.296  16.230  12.964 -0.0047  0.0283 -0.0821
27842W        W47376   7.033  10.561   3.274  0.0525 -0.2155 -0.0312
27843W        W47377   5.320   0.306  15.588  0.1091 -0.0989 -0.1268
27844W        W47378   9.266  10.603  16.570  0.0364 -0.2230  0.2727
27845W        W47379   4.567  13.584   0.442  0.2218 -0.0797  0.0204
27846W        W47380  10.703   9.134  13.104 -0.1517 -0.0729  0.1972
27847W        W47381  14.996  11.864   3.373 -0.2528 -0.0905  0.1719
27848W        W47382  11.552  11.177   2.189 -0.2306  0.0532  0.0374
27849W        W47383   4.535  10.768  13.294  0.0531  0.0058  0.0717
27850W        W47384  11.556  12.939   2.883 -0.0561  0.0541  0.2679
27851W        W47385  16.425  16.325  16.081  0.2467  0.3566 -0.0032
27852W        W47386   8.117   5.160  13.513 -0.1698 -0.0446  0.1719
27853W        W47387  15.815   9.988   4.909 -0.1311 -0.1069  0.2283
27854W        W47388   7.066  10.336   1.958 -0.1918 -0.0551  0.2255
27855W        W47389  10.881  13.048  15.897  0.0972  0.3414  0.0865
27856W        W47390   3.575  11.213  16.791  0.0940  0.4309 -0.0740
27857W        W47391   9.668   7.064   4.316 -0.2396  0.1539 -0.3533
27858W        W47392   8.616  11.087  13.874  0.3243 -0.2395  0.0219
27859W        W47393   8.104  12.005   2.463  0.0447  0.1881 -0.0900
27860W        W47394   5.913  15.589   4.382 -0.0950 -0.0953  0.0547
27861W        W47395  10.300   2.512  13.035  0.0594  0.0580 -0.2555
27862W        W47396  13.701   8.410  15.583 -0.0968  0.2133 -0.0682
27863W        W47397   4.038   1.567   3.008 -0.1602  0.0857  0.0578
27864W        W47398   0.047  11.672  13.972 -0.2298 -0.1548 -0.1064
27865W        W47399  11.436   0.188  15.787  0.2324  0.0407  0.0364
27866W        W47400   1.680   4.122  13.373 -0.2556  0.1281  0.1602
27867W        W47401  14.090   5.781  16.450 -0.0100 -0.0239 -0.0130
27868W        W47402   5.479   8.997   1.558 -0.0886 -0.0606 -0.1213
27869W        W47403  12.421   0.184   0.327 -0.1893  0.2382  0.1236
27870W        W47404   7.189  14.423   2.491  0.2286 -0.0076 -0.1258
27871W        W47405  15.070  13.781  14.676 -0.0957  0.0632  0.3285
27872W        W47406   3.436   2.431  14.196  0.1144 -0.1045 -0.1010
27873W        W47407  12.253  11.078  12.806 -0.0855 -0.0048  0.0066
27874W        W47408  13.397  12.092  17.106 -0.0577  0.0525 -0.3446
27875W        W47409  13.657  13.423   2.465  0.2277 -0.0443  0.2057
27876W        W47410  16.539  11.860  16.949 -0.3135  0.0725 -0.0701
27877W        W47411  10.158   9.796  12.305  0.2458  0.1094  0.0019
27878W        W47412  14.513   7.171  16.203 -0.1596 -0.0255 -0.2339
27879W        W47413  13.995   3.014   4.159  0.4715 -0.1149 -0.2556
27880W        W47414   3.237  10.754  15.596  0.3168 -0.1629 -0.0716
27881W        W47415   8.187  13.999   1.758 -0.0831 -0.0899  0.1044
27882W        W47416   1.257   0.035  15.351 -0.0180  0.0690  0.0878
27883W        W47417   6.651  15.045   2.824 -0.0314 -0.2075 -0.2055
27884W        W47418  13.773  16.012  16.878  0.2165  0.0059  0.3412
27885W        W47419  16.134   4.588  12.448  0.0184 -0.2121  0.1594
27886W        W47420   8.669  13.540   3.278  0.0652  0.1954  0.3120
27887W        W47421  11.271  16.329   2.721  0.1590 -0.1738 -0.0028
27888W        W47422   5.314   5.303   0.685  0.0558  0.0086  0.1405
27889W        W47423   6.531   1.289   3.145 -0.0674  0.0465  0.0286
27890W        W47424   3.471  16.561   4.969  0.0746  0.0586 -0.0731
27891W        W47425   0.754  10.567  12.225 -0.1839 -0.1281  0.0548
27892W        W47426   8.928   2.321   0.757  0.1872  0.0867  0.0405
27893W        W47427  14.588  14.599   4.624 -0.0802 -0.1986 -0.1699
27894W        W47428   3.511  12.546  13.997 -0.1877  0.0334  0.0588
27895W        W47429  11.537  13.149   0.217 -0.0997  0.2357 -0.2473
27896W        W47430  10.335   0.145   4.914 -0.1487 -0.0617  0.0546
27897W        W47431  11.475  16.219   2.146 -0.0653  0.1398  0.0447
27898W        W47432   1.075  17.134   4.431 -0.1825  0.2112  0.0163
27899W        W47433   1.092   8.665  14.285 -0.0438 -0.1789 -0.2389
27900W        W47434   1.986  12.880  12.963 -0.0512 -0.3191  0.0390
27901W        W47435   7.313  10.880   1.084  0.0199 -0.1618 -0.1691
27902W        W47436   7.152  13.628  13.911 -0.2228  0.0623 -0.0448
27903W        W47437  13.443   2.729  13.874 -0.2437 -0.3111  0.1542
27904W        W47438   0.635   9.713   0.339 -0.1469  0.0292  0.0406
27905W        W47439  13.577  15.567   0.012  0.1503  0.0932  0.2054
27906W        W47440  15.431   6.249  13.695  0.1752  0.2930  0.3680
27907W        W47441   0.307  11.958   0.181 -0.1576  0.1575  0.1117
27908W        W47442   7.863   5.021  16.566 -0.0238  0.3552 -0.1904
27909W        W47443   4.237   7.856  16.236  0.3900 -0.0702 -0.1885
27910W        W47444  16.675  16.360  14.275 -0.2292 -0.0295  0.1696
27911W        W47445   2.762   5.869  15.209 -0.0545  0.1354  0.0614
27912W        W47446   4.319  15.580  15.775 -0.0152  0.1964 -0.0747
27913W        W47447   4.728  12.667  14.013  0.0571 -0.0296  0.0088
27914W        W47448   1.259   5.993  15.449 -0.1550  0.1567 -0.0959
27915W        W47449   5.590  12.030   2.356 -0.1390  0.1860 -0.0998
27916W        W47450   4.477   3.082  12.773  0.1695  0.0526  0.0866
27917W        W47451  12.479  14.336   5.185  0.3335 -0.1234 -0.1520
27918W        W47452  12.549   8.166  15.051 -0.2358 -0.0508 -0.2840
27919W        W47453   2.062   3.906  13.717 -0.1068 -0.0952  0.1759
27920W        W47454   8.999   9.002  14.989 -0.0228  0.0488 -0.2670
27921W        W47455  14.921   0.425   1.986  0.1032 -0.0591 -0.1859
27922W        W47456   8.315   8.039   4.098  0.0339  0.1672  0.0027
27923W        W47457  17.008   5.876   3.871 -0.1124  0.1414  0.0184
27924W        W47458   6.146  16.226  12.186  0.3132 -0.0624  0.0692
27925W        W47459   0.870   0.051  11.913  0.0804  0.1121 -0.3562
27926W        W47460   3.794   8.794   2.289 -0.0556  0.0124 -0.0495
27927W        W47461  13.270  11.758  15.344 -0.0907  0.0021  0.0073
27928W        W47462   4.209   8.260   0.136 -0.0221  0.0745 -0.1109
27929W        W47463   1.892  11.921  13.404 -0.0038  0.4121 -0.1356
27930W        W47464   0.412  13.806   3.688  0.1739  0.0484 -0.0227
27931W        W47465   1.613  17.344   4.418  0.0314 -0.2667 -0.1577
27932W        W47466   2.703   3.730  16.171  0.1438  0.1676  0.2392
27933W        W47467  13.557   2.030   2.536 -0.2266 -0.0565  0.2168
27934W        W47468   3.150   9.150   3.596  0.0219 -0.2663  0.1959
27935W        W47469  12.540   9.424  15.481  0.1566  0.0219  0.2056
27936W        W47470  11.987   9.753  13.959 -0.1854 -0.1957  0.2863
27937W        W47471   8.946   3.838  16.338  0.0208 -0.1890 -0.3623
27938W        W47472   1.174   1.753  13.218  0.0076  0.0204 -0.0000
27939W        W47473  16.346  13.779  12.368  0.0319 -0.0597 -0.0821
27940W        W47474   4.526   4.058  12.632 -0.3861  0.0653 -0.1076
27941W        W47475  16.000  13.432  16.114 -0.0750 -0.0953 -0.1552
27942W        W47476  11.278  14.460  14.255 -0.0157 -0.3046  0.0383
27943W        W47477   8.096   7.582   2.853  0.0162  0.4700 -0.1621
27944W        W47478   4.171   1.177  15.332  0.0223 -0.1651  0.2953
27945W        W47479  16.892   8.933   3.259 -0.2189 -0.0442  0.2488
27946W        W47480   6.964   9.763   3.787  0.2214  0.0431 -0.3669
27947W        W47481   5.420  16.274   4.469 -0.1314  0.0861 -0.0110
27948W        W47482   4.939  14.262   2.108  0.3173  0.0754  0.2301
27949W        W47483   3.597   1.644   3.356  0.3151 -0.1255  0.1496
27950W        W47484   8.663   3.923  13.773 -0.0585  0.1921  0.1429
27951W        W47485   5.371   2.113  12.849  0.3063 -0.1627  0.2959
27952W        W47486   4.477   9.941  14.971  0.0250 -0.2289  0.1001
27953W        W47487   4.816  17.016   0.501  0.1532  0.0200 -0.1576
27954W        W47488  15.916  15.243   3.526  0.3807  0.5131  0.2000
27955W        W47489   5.802   0.335  17.263  0.2450 -0.0259  0.1500
27956W        W47490   0.831   0.577   0.895 -0.1822 -0.1977  0.1407
27957W        W47491   0.788   8.791   4.447 -0.3203  0.2892  0.0240
27958W        W47492   7.387  16.345   4.287 -0.2007 -0.0897  0.0179
27959W        W47493  15.779  10.344  16.344 -0.0863 -0.1336 -0.2152
27960W        W47494   1.606  14.192   0.448 -0.0672 -0.2584  0.1220
27961W        W47495  10.815   1.648   1.196 -0.0433 -0.4590 -0.1072
27962W        W47496   1.790   9.558   0.264 -0.2409  0.0644  0.0464
27963W        W47497   4.159   1.373  16.695 -0.0661  0.1656  0.0302
27964W        W47498   0.803   4.513  14.759 -0.0547 -0.1576 -0.2495
27965W        W47499  16.992   7.173   2.198 -0.1722 -0.0162 -0.1621
27966W        W47500   7.677   4.585   0.388  0.1293  0.1421  0.2458
27967W        W47501   2.648   9.865  13.518  0.1132 -0.0249  0.2272
27968W        W47502  14.221   2.688   4.761  0.1893 -0.1406 -0.3641
27969W        W47503  14.226  11.075  12.676 -0.0137 -0.0812 -0.1151
27970W        W47504  14.703  14.689   0.132  0.3105 -0.4406  0.0480
27971W        W47505  16.146   8.786  12.295 -0.0207 -0.0707  0.0464
27972W        W47506  15.890  15.043   4.656 -0.0340 -0.0386  0.1134
27973W        W47507  12.680   6.641   0.286  0.1110 -0.0638  0.1186
27974W        W47508  11.556  17.391  13.579 -0.1002 -0.2053  0.1758
27975W        W47509   3.678   4.769  13.874  0.2588  0.1294 -0.0537
27976W        W47510   6.854  15.494  16.734  0.1200  0.1346 -0.1025
27977W        W47511   1.085   3.674  12.305 -0.0664 -0.0658 -0.2648
27978W        W47512  11.555  15.595  14.860  0.0400  0.2561 -0.0398
27979W        W47513   5.616   6.290  13.029  0.2784 -0.3444  0.0989
27980W        W47514   1.750  13.010  14.835  0.0022 -0.0007  0.0689
27981W        W47515  11.043  14.657  13.731  0.0014 -0.0743  0.1668
27982W        W47516  12.848   3.826  16.847 -0.2193 -0.1519  0.1943
27983W        W47517   4.020   6.906   4.069  0.2158  0.1653  0.4612
27984W        W47518  10.391   4.842   3.560 -0.0703 -0.3140 -0.0035
27985W        W47519   9.994   7.665  16.014 -0.1233  0.1841  0.2670
27986W        W47520  16.097  12.464   4.885 -0.4541 -0.0453 -0.1448
27987W        W47521  16.788  12.179  14.521  0.0670  0.2229  0.3500
27988W        W47522   3.722   0.950   1.145  0.0723 -0.3057  0.0295
27989W        W47523   0.401   2.841  13.223  0.0043 -0.1657 -0.2497
27990W        W47524  15.037   3.073   2.703  0.1414  0.0289 -0.0313
27991W        W47525   3.600  10.798  12.888 -0.3490  0.0038  0.0887
27992W        W47526   0.560   2.231   1.470 -0.0430 -0.0477  0.1308
27993W        W47527  11.548   9.969  13.954  0.3764 -0.0711 -0.0591
27994W        W47528   0.476  14.166  15.324 -0.0408 -0.0472  0.2104
27995W        W47529   8.852   5.027  12.393 -0.3172 -0.0009 -0.0117
27996W        W47530   3.079  10.875   1.062 -0.1042 -0.0305  0.2051
27997W        W47531   1.929   5.650  16.514  0.2437  0.3584 -0.0548
27998W        W47532  16.782   8.757  16.606 -0.0124  0.0752  0.1817
27999W        W47533  10.665   5.280   2.179 -0.0258  0.4639 -0.3515
28000W        W47534   1.997   7.398  13.332 -0.6209 -0.0202 -0.2301
28001W        W47535   9.472  10.206  12.621 -0.3879  0.0030  0.2279
28002W        W47536   7.779   0.911  13.676  0.0712 -0.1152  0.1561
28003W        W47537   2.879   1.466   4.369  0.0429  0.0586 -0.2109
28004W        W47538  10.934  16.681   1.105  0.1884  0.1139  0.2542
28005W        W47539  14.878   5.147  16.803  0.2172  0.0617  0.1296
28006W        W47540   0.669  10.831  14.900 -0.3743 -0.1935  0.0992
28007W        W47541   4.714  12.768   2.440 -0.2390 -0.0631  0.1101
28008W        W47542  14.353  10.231  13.131  0.1138  0.0918  0.2351
28009W        W47543   3.589   2.192   1.799  0.3313  0.0176 -0.1380
28010W        W47544   6.909   4.316   4.157 -0.0128 -0.0132 -0.0353
28011W        W47545  16.087   0.103  14.939  0.1985  0.1018  0.0307
28012W        W47546   5.597  11.871  16.146 -0.1413 -0.1770  0.0746
28013W        W47547  12.869  11.839  15.646 -0.3366 -0.1177  0.0444
28014W        W47548   9.564   2.365   0.475 -0.1697  0.0075  0.0197
28015W        W47549   0.429   0.741  16.172  0.0194 -0.3108  0.0961
28016W        W47550   9.607  10.377   0.773  0.0505  0.0205 -0.0705
28017W        W47551   7.811  13.891   3.831  0.0303  0.0785 -0.1951
28018W        W47552   2.653  16.554   2.797  0.0182  0.0678  0.1150
28019W        W47553  15.843  11.361  12.053  0.1185  0.2184 -0.0232
28020W        W47554   7.634   0.733   3.315 -0.0033  0.0630  0.2926
28021W        W47555  12.974  16.408   4.754  0.0124 -0.0442  0.1427
28022W        W47556  11.541   0.735  15.478  0.0775 -0.0375 -0.1549
28023W        W47557   7.322  12.784  13.613 -0.3468  0.4253 -0.2762
28024W        W47558   3.283  12.996  16.262 -0.1882 -0.0335  0.0914
28025W        W47559   6.741  10.713  15.379  0.2237 -0.1330  0.2233
28026W        W47560  10.122   4.942  14.351  0.1235  0.1819 -0.0878
28027W        W47561  14.281  14.142  14.172  0.1209 -0.3986 -0.3080
28028W        W47562   3.140   4.818   0.120  0.0466 -0.1098  0.3196
28029W        W47563   9.515  15.852  16.954  0.3636 -0.0854 -0.0514
28030W        W47564   2.331  12.990   1.611  0.3073  0.4484  0.2194
28031W        W47565   8.307   6.370   1.293  0.1656  0.0695 -0.0394
28032W        W47566   3.248  17.227   5.651 -0.1666 -0.2551  0.2542
28033W        W47567  11.388   6.089   3.481  0.2736 -0.0497  0.1404
28034W        W47568  15.016   0.107   4.428 -0.2769 -0.0439 -0.0077
28035W        W47569  13.606  15.778   5.601 -0.1121 -0.0576 -0.0238
28036W        W47570  16.741   1.844   2.479  0.0384 -0.1086 -0.3478
28037W        W47571  14.702  13.860  12.236 -0.1163 -0.1667  0.1662
28038W        W47572   8.291  12.857  12.534  0.2545 -0.1339  0.2691
28039W        W47573  10.974  12.186  15.297 -0.3214  0.1236  0.0751
28040W        W47574  13.299  13.749   0.419  0.0708 -0.3488 -0.1506
28041W        W47575   7.873   2.808  15.094  0.0465 -0.0944  0.1045
28042W        W47576  12.778  16.409   3.635 -0.0438  0.1402 -0.3128
28043W        W47577   1.402   4.814   3.795 -0.2700  0.0816  0.1630
28044W        W47578  10.794  13.644   4.273 -0.3123 -0.1695 -0.1803
28045W        W47579  16.129  11.717  16.650 -0.3760 -0.0165  0.2136
28046W        W47580   4.484  14.500   2.968  0.1437 -0.3534  0.3662
28047W        W47581   1.381  11.088   0.266  0.1601 -0.0927  0.2415
28048W        W47582  15.780   2.151   2.217  0.0251 -0.1199  0.1664
28049W        W47583  14.244  12.198   2.809  0.1236  0.1384 -0.0068
28050W        W47584   8.168   4.484  14.279 -0.0139 -0.0975 -0.2905
28051W        W47585   5.794  13.601   3.652  0.0191  0.1582  0.1714
28052W        W47586  14.864   6.779   3.408  0.0007  0.1036 -0.2149
28053W        W47587  14.961   7.035   3.805  0.0584  0.3519  0.2890
28054W        W47588   8.090   7.517   1.704  0.1797  0.3804  0.0622
28055W        W47589   6.641   8.098  14.997  0.0448 -0.1706  0.1334
28056W        W47590  12.828   4.441  14.164  0.0684 -0.0415 -0.0235
28057W        W47591   7.699  17.049  16.209 -0.0220  0.0072  0.0062
28058W        W47592   3.657  11.358   3.524 -0.3604 -0.0472 -0.0408
28059W        W47593  12.099  17.146   2.700 -0.3816  0.1974 -0.1354
28060W        W47594   1.219  15.879   1.722 -0.0173 -0.0280 -0.2079
28061W        W47595  10.119   4.012  14.931 -0.0092 -0.3287 -0.2384
28062W        W47596  15.260  15.823  16.824 -0.0607  0.0651  0.1454
28063W        W47597   4.175  14.753  13.524  0.0097  0.0573  0.1437
28064W        W47598  10.218  16.495   1.594  0.2936  0.2081 -0.2600
28065W        W47599  10.279   4.477  13.269 -0.3317 -0.0140  0.0883
28066W        W47600   0.516   6.107  15.595 -0.1073  0.3575 -0.2505
28067W        W47601   3.367   2.437  11.476 -0.0635 -0.2350 -0.2903
28068W        W47602   4.182  11.561   1.409  0.0357  0.0106  0.3656
28069W        W47603   0.996   0.231   0.553 -0.3844  0.0700  0.0067
28070W        W47604   8.560  16.037  12.106 -0.2934 -0.2134 -0.1390
28071W        W47605  13.893  11.957  16.018 -0.1989  0.3114  0.0506
28072W        W47606   8.948   6.348   0.670 -0.2188  0.0770  0.1014
28073W        W47607  16.315  12.398   3.069  0.1521  0.0491 -0.1779
28074W        W47608  11.462   5.051  12.883  0.2228  0.1008  0.3135
28075W        W47609  10.150   2.610   3.870 -0.0922  0.0186 -0.0347
28076W        W47610  11.191   5.179   4.421 -0.0208 -0.0867 -0.0076
28077W        W47611  12.935  14.328  16.953 -0.3941  0.0053 -0.0617
28078W        W47612  12.759  14.233   2.101 -0.3529 -0.4378 -0.0310
28079W        W47613   6.639   8.486   1.882  0.1535  0.1082 -0.0743
28080W        W47614   6.328   1.675   0.775  0.1334 -0.1515 -0.0263
28081W        W47615   4.776   2.385  14.253  0.1226 -0.1082 -0.0594
28082W        W47616   6.575  12.472   4.072  0.1497 -0.1267  0.2850
28083W        W47617   0.014  15.957   2.107  0.0059  0.2055 -0.2494
28084W        W47618   7.407   9.295  17.041 -0.0217  0.0834 -0.2403
28085W        W47619   2.758  11.833  16.436 -0.2325  0.0672 -0.0315
28086W        W47620   6.086   5.297  12.780 -0.1763  0.1245  0.1307
28087W        W47621   3.885  16.363  13.767 -0.0215  0.0842 -0.3813
28088W        W47622   0.815  14.923  13.524  0.1827  0.2194  0.0962
28089W        W47623  15.402  12.543  15.423  0.3263  0.0395 -0.1154
28090W        W47624   4.927   9.024   2.830 -0.2706  0.2371 -0.1903
28091W        W47625   9.461  12.359   2.071  0.1961  0.1521 -0.1897
28092W        W47626  16.408  14.149  17.142  0.0426  0.0035 -0.1042
28093W        W47627  10.594  17.158   3.564 -0.1878 -0.4141 -0.1699
28094W        W47628  17.357  13.699  15.269 -0.1824 -0.2013  0.0838
28095W        W47629  15.525   8.500  12.413 -0.2252  0.2639  0.2131
28096W        W47630   1.951  16.586  16.534  0.0140 -0.1129 -0.1713
28097W        W47631  17.326  13.828   1.594 -0.0675 -0.2371  0.0450
28098W        W47632   0.786   2.451  15.898 -0.1059  0.0896 -0.0984
28099W        W47633  15.322   2.032   2.545 -0.0660 -0.0870  0.0014
28100W        W47634   8.204  16.603  13.460 -0.1281  0.0530 -0.1386
28101W        W47635  14.837   9.687  14.360  0.1202  0.0915  0.1834
28102W        W47636   0.949   7.124   1.538  0.1161  0.0721 -0.0605
28103W        W47637   3.659  15.338  12.471  0.0382  0.0341  0.0271
28104W        W47638   6.740  14.462   4.658 -0.2017 -0.0781 -0.0481
28105W        W47639  13.568   4.402  12.930  0.0477  0.2539  0.2074
28106W        W47640  15.384   6.356   0.831  0.0295  0.1615 -0.0348
28107W        W47641  10.868   3.463  14.177 -0.3862  0.0606 -0.0242
28108W        W47642   6.513   3.849   1.571 -0.2077  0.2072  0.1549
28109W        W47643   7.340  17.184   3.218 -0.2036 -0.0098  0.0786
28110W        W47644   3.665  14.057   0.041  0.1511  0.0554  0.0895
28111W        W47645  15.030  14.294   1.018 -0.1729  0.2050  0.0991
28112W        W47646   5.781  17.341   0.449  0.1841  0.1795 -0.0759
28113W        W47647  13.589   2.249   0.784 -0.1650 -0.2899  0.2260
28114W        W47648   5.658  13.229  12.016 -0.0916 -0.0554 -0.1727
28115W        W47649  14.038  15.368  13.878 -0.3943  0.0437  0.2681
28116W        W47650  15.670  17.268  14.891 -0.1178 -0.0446 -0.0068
28117W        W47651  14.800   7.264   3.300  0.5950 -0.0993  0.2087
28118W        W47652   3.834   7.677   2.965  0.5511  0.1400  0.0715
28119W        W47653   2.919   9.753  13.030  0.0443 -0.1841  0.0789
28120W        W47654   8.412   2.261  13.473 -0.0463 -0.0354 -0.1940
28121W        W47655   4.015   3.129   5.302 -0.2136  0.2654 -0.0861
28122W        W47656  12.289   7.037  14.587 -0.0128  0.1739 -0.0775
28123W        W47657  17.032   9.325  13.488 -0.1900  0.0803 -0.1288
28124W        W47658   3.187  16.700  16.349 -0.2436 -0.1504 -0.0737
28125W        W47659   9.329   2.895  14.947 -0.2844 -0.1436 -0.0404
28126W        W47660  13.576   9.952  13.391 -0.0934  0.3086  0.0387
28127W        W47661  14.025   7.874   3.671 -0.0602  0.0501 -0.0722
28128W        W47662  14.995  16.231  17.231 -0.1347 -0.0618 -0.0801
28129W        W47663  11.521  10.407  16.025 -0.1131 -0.0445  0.2598
28130W        W47664  14.244  13.608  15.602 -0.1923 -0.2167  0.3163
28131W        W47665   1.659  15.391  12.408  0.1852  0.0701  0.2181
28132W        W47666  17.192   1.838  12.391  0.0025 -0.0183 -0.0466
28133W        W47667  12.132  10.892  14.681 -0.0698  0.0877 -0.0996
28134W        W47668   6.822  10.522   4.806 -0.1074  0.0541 -0.1605
28135W        W47669   4.395   7.947  15.753 -0.0941 -0.1790 -0.0034
28136W        W47670   0.293  15.037  13.326  0.1671 -0.2872  0.1465
28137W        W47671   7.419   4.416   4.854  0.2424  0.5212 -0.0235
28138W        W47672  16.861   3.154   3.689 -0.3298 -0.0738 -0.1357
28139W        W47673  13.485  14.135   4.156 -0.1120 -0.0021 -0.2329
28140W        W47674  14.041  14.463   2.599 -0.1163 -0.3708 -0.1122
28141W        W47675  14.056   5.535  15.213  0.3755  0.0716 -0.0159
28142W        W47676  11.205  10.032  15.914  0.0265 -0.0198 -0.1389
28143W        W47677  12.844  16.100   5.163  0.0408  0.1127 -0.2902
28144W        W47678   9.321   3.174  16.942  0.4321 -0.1270 -0.1508
28145W        W47679  11.861   5.513   1.889 -0.0869  0.1014  0.3423
28146W        W47680   0.148  11.519  12.546  0.3098  0.1328 -0.0052
28147W        W47681  15.120  13.086   3.925 -0.0527  0.0731 -0.0973
28148W        W47682   3.920   3.264   0.307 -0.1398  0.0444 -0.0243
28149W        W47683   0.865   6.660   3.060 -0.0148  0.0212  0.0891
28150W        W47684  10.404  13.561  12.553 -0.1520 -0.0603 -0.0314
28151W        W47685   8.874  11.834  13.798  0.1266 -0.0776 -0.0487
28152W        W47686   0.685  14.029   2.753 -0.3727 -0.2954  0.2227
28153W        W47687   3.797  13.740  15.708  0.4701 -0.0076  0.3499
28154W        W47688   2.888   8.881  16.285 -0.3442  0.0422 -0.0522
28155W        W47689   4.710   9.090   4.348  0.0722 -0.1386 -0.0918
28156W        W47690  13.352  15.147   3.142  0.2221  0.2008 -0.0574
28157W        W47691   3.755  14.987   0.844 -0.2659  0.0480  0.1442
28158W        W47692   5.518   4.419   0.555 -0.0003  0.5174  0.2502
28159W        W47693  13.025  16.240  16.243  0.0746 -0.2694  0.1491
28160W        W47694   3.683   7.729  12.532  0.0476 -0.1938 -0.0725
28161W        W47695   6.746   5.104   4.840  0.1611 -0.0278 -0.0005
28162W        W47696  16.667  15.657  12.160  0.3383 -0.1629  0.0096
28163W        W47697   4.999   5.361  15.360 -0.4375  0.3443  0.1716
28164W        W47698  17.270  17.331   1.226  0.0875 -0.1378 -0.0224
28165W        W47699   2.597  10.473  16.084 -0.0265 -0.4026 -0.3368
28166W        W47700  12.550  10.754   2.130  0.2430  0.1570  0.0784
28167W        W47701  12.111  12.161  13.972 -0.1225 -0.0086  0.2199
28168W        W47702   6.323   3.849  14.222  0.2823 -0.0876  0.3784
28169W        W47703  15.467   9.681   4.471 -0.0944  0.3555 -0.3563
28170W        W47704   6.095   4.766  16.478 -0.2062  0.1248 -0.0729
28171W        W47705   4.597  12.876   2.914  0.1035 -0.0458 -0.0715
28172W        W47706   2.448  13.297  16.427  0.3701 -0.0634 -0.0206
28173W        W47707  16.716   5.937   4.318 -0.1601 -0.1928  0.0219
28174W        W47708  14.939   6.253  13.470 -0.0830 -0.0160 -0.2028
28175W        W47709   3.301   3.425  13.130 -0.0089 -0.2290  0.1311
28176W        W47710  14.500   8.994  14.897  0.0640  0.1979  0.1587
28177W        W47711   7.231  10.893  15.197  0.2145 -0.1222 -0.0346
28178W        W47712   2.696  13.022  13.057 -0.1006 -0.1536  0.2390
28179W        W47713  11.413   6.668  13.485 -0.3149 -0.0514  0.3149
28180W        W47714   4.324  16.519   3.113 -0.0422  0.0421 -0.0267
28181W        W47715   9.009   8.547   2.934  0.0772 -0.0654  0.2791
28182W        W47716  16.427  10.535  12.860  0.0635 -0.2005  0.2151
28183W        W47717   0.002   5.850   1.113  0.2050 -0.0185  0.0626
28184W        W47718  15.725   7.352  17.276  0.0019 -0.0258  0.0105
28185W        W47719  16.914   1.001   2.049 -0.0974 -0.2317 -0.0856
28186W        W47720  17.371   1.909  13.296  0.0078 -0.0858 -0.1587
28187W        W47721  16.937  13.459   1.419  0.2271 -0.2276  0.2440
28188W        W47722  13.567   3.169  14.733  0.0325 -0.1566  0.2478
28189W        W47723   7.670  10.853  12.684  0.0415 -0.6078 -0.1077
28190W        W47724  15.212   5.582   4.063 -0.4342  0.1863  0.0599
28191W        W47725   9.372   1.667  12.347 -0.2625  0.0272 -0.0076
28192W        W47726   7.122   0.141  15.375 -0.1174 -0.1696  0.1044
28193W        W47727  15.719   5.611   1.235  0.2882 -0.1863 -0.1376
28194W        W47728  10.745  13.387   3.820  0.0355 -0.2285 -0.2494
28195W        W47729   1.608   1.426   0.315  0.0964  0.4409  0.1612
28196W        W47730  14.573  17.317  14.226  0.0803  0.2854 -0.0528
28197W        W47731   3.336  11.145  15.954  0.1177 -0.2772 -0.0483
28198W        W47732  13.677   2.055   1.530  0.4474 -0.0357 -0.1221
28199W        W47733   3.316   9.047  13.218 -0.1442  0.1130  0.0488
28200W        W47734  16.110   2.854  15.129  0.0270  0.0942  0.0931
28201W        W47735  12.221  14.732   1.080  0.0791  0.0694 -0.3010
28202W        W47736  11.263  16.056  16.632  0.3416  0.1503  0.0609
28203W        W47737   9.758  16.240   3.201  0.1604 -0.3410  0.1363
28204W        W47738  15.307   2.406   1.834 -0.0656 -0.2487 -0.1035
28205W        W47739   3.129   0.113   0.079  0.0512  0.1647  0.2658
28206W        W47740  12.370   2.148  12.729 -0.1790  0.0369  0.1768
28207W        W47741   0.428   8.341   6.132 -0.1205  0.0936 -0.0042
28208W        W47742  10.426   6.779  17.134 -0.4324 -0.0942 -0.0365
28209W        W47743   1.321   4.955  16.324  0.0070 -0.2167 -0.0142
28210W        W47744   9.124  11.566  12.930 -0.1907  0.2440 -0.3725
28211W        W47745  10.567   1.787  17.249 -0.0380 -0.0522  0.0708
28212W        W47746  16.722   2.494   5.307 -0.1566 -0.1522 -0.1619
28213W        W47747  10.089   8.870   2.602 -0.3811 -0.3462  0.1432
28214W        W47748   3.805   1.586  15.423  0.0686  0.3205 -0.1432
28215W        W47749   3.088  16.857  13.403  0.0187 -0.2801  0.0775
28216W        W47750   6.393   1.087   3.917  0.1768 -0.0194  0.0534
28217W        W47751  17.326  16.734   5.074  0.0050 -0.4968  0.0490
28218W        W47752   0.700   9.364  15.868  0.0931 -0.1367  0.3055
28219W        W47753  13.953   9.148  14.790  0.1348 -0.0835  0.2281
28220W        W47754   2.410  15.762   2.534 -0.1825 -0.0130 -0.0504
28221W        W47755  17.387   3.844   0.980 -0.0398  0.0877  0.2082
28222W        W47756  14.870   0.837   0.878 -0.0138  0.0610  0.1798
28223W        W47757  17.365  16.465  16.041  0.0937  0.1988  0.1650
28224W        W47758   6.909   7.275  16.310 -0.1545 -0.1486 -0.0557
28225W        W47759  16.058   9.826  12.149 -0.1962 -0.2797 -0.0584
28226W        W47760  11.289   5.824   2.114 -0.2425  0.0312  0.1634
28227W        W47761  13.949  16.605   2.323  0.1154 -0.0959  0.0165
28228W        W47762  15.429  13.631   2.578  0.2136  0.5161 -0.3845
28229W        W47763  12.071   0.959  17.288  0.0129 -0.1711 -0.3286
28230W        W47764   9.456   5.354   1.906 -0.0064  0.0809  0.2310
28231W        W47765   2.675   7.469  14.007 -0.1876  0.2482  0.3388
28232W        W47766   8.490  12.350   3.085  0.1425 -0.0576 -0.2529
28233W        W47767   0.445   9.215   3.770  0.1467  0.0286  0.1681
28234W        W47768   0.958   1.079   2.290  0.0413 -0.2181 -0.3960
28235W        W47769   0.817   9.257   0.520 -0.0026 -0.0389  0.0997
28236W        W47770  12.477   5.473  12.480 -0.0714 -0.0259  0.0657
28237W        W47771   4.153  14.374   4.621 -0.2789  0.0767 -0.0989
28238W        W47772  15.205  15.524   1.943 -0.1469 -0.1964  0.2493
28239W        W47773   6.052   9.706   1.187 -0.1197  0.2781  0.0754
28240W        W47774   1.741   6.070   0.181  0.1140  0.2735  0.2488
28241W        W47775   3.340   6.326  11.893 -0.0251  0.0217 -0.2501
28242W        W47776   2.677   9.731  12.612 -0.1049 -0.0743  0.2019
28243W        W47777   8.649  16.276  17.021 -0.2091  0.1033  0.0792
28244W        W47778   4.969   2.577  13.411 -0.2516  0.1309 -0.1957
28245W        W47779   7.382  15.713   2.805 -0.1245  0.0197  0.0087
28246W        W47780   9.682   9.217   4.993 -0.1713 -0.0509  0.0231
28247W        W47781  13.777   2.776   5.017 -0.2367 -0.0730  0.2157
28248W        W47782  14.775   0.350   2.715 -0.0052 -0.1313  0.0780
28249W        W47783  13.470   3.649   4.887 -0.1538 -0.1369 -0.1217
28250W        W47784   0.805   2.359   5.030 -0.2750  0.0820  0.1850
28251W        W47785  15.722   3.318  12.386  0.1093  0.1068  0.0232
28252W        W47786   8.328   3.954   3.728 -0.1422 -0.3531  0.1199
28253W        W47787  15.650  15.051  17.027 -0.0177  0.0654  0.4793
28254W        W47788   3.749   2.220   4.891  0.0425  0.0106 -0.1363
28255W        W47789   1.985  15.013   0.787  0.1551 -0.5805 -0.1829
28256W        W47790   9.877  10.086  16.794 -0.0376 -0.2119 -0.1377
28257W        W47791  13.123   6.962   4.323  0.0549 -0.0466 -0.1682
28258W        W47792   9.949  13.835   2.507  0.1768  0.0102 -0.2589
28259W        W47793  13.721  11.634   0.699  0.3540  0.2510  0.1271
28260W        W47794   0.031   8.824  14.998 -0.0871  0.1845  0.0133
28261W        W47795  15.269   9.551   3.086 -0.0095 -0.0269  0.2307
28262W        W47796   0.534   0.821   2.972 -0.3663 -0.0837 -0.1088
28263W        W47797  12.414  12.126   0.320  0.0384 -0.1247  0.0852
28264W        W47798   7.075  15.127  14.440  0.0487 -0.0170 -0.1644
28265W        W47799   2.499   5.490  13.384 -0.0012  0.0558  0.0159
28266W        W47800  12.106  15.514   1.700 -0.0180 -0.0056 -0.2463
28267W        W47801   9.117   7.927   3.334  0.2036 -0.0529  0.1563
28268W        W47802  14.091  11.554  14.725 -0.0979 -0.0251  0.4157
28269W        W47803  13.138   9.881   4.725 -0.3310 -0.4020  0.2584
28270W        W47804   4.922   6.667   4.540 -0.0656 -0.0032  0.4517
28271W        W47805   8.445   7.827   6.168  0.0692  0.1440 -0.0208
28272W        W47806   3.468   6.410   2.049 -0.0076 -0.0760  0.2010
28273W        W47807  15.843  12.437   2.988  0.2167 -0.1049  0.0798
28274W        W47808   3.570  14.697   3.932  0.0081 -0.0580 -0.0695
28275W        W47809   5.395   6.812   4.496  0.0739 -0.0373 -0.2217
28276W        W47810   1.998   0.826   3.599 -0.1329 -0.0966  0.1673
28277W        W47811  16.927  12.207   3.967 -0.2165  0.0649 -0.0392
28278W        W47812  17.147   5.566  15.766 -0.1177  0.0599  0.0629
28279W        W47813   8.692   2.474   4.319  0.0325 -0.2291 -0.0133
28280W        W47814   2.801   8.229  14.729 -0.0815 -0.0831  0.2008
28281W        W47815   8.562  15.982   2.151 -0.0157  0.1222  0.0762
28282W        W47816   1.918   2.225  14.401  0.2690  0.1319 -0.1471
28283W        W47817   4.416  13.034  13.977 -0.3132 -0.1725  0.0829
28284W        W47818  13.487   6.715  16.579 -0.1002 -0.0882  0.1400
28285W        W47819  14.312  11.758  16.138 -0.1933  0.0296  0.0215
28286W        W47820  10.638   4.816  13.414 -0.3856  0.0632 -0.1698
28287W        W47821   3.888   2.090   3.183  0.4530 -0.2840 -0.0290
28288W        W47822   7.164  16.616   2.984  0.1608  0.2288 -0.1515
28289W        W47823   7.780   5.015   4.119 -0.0055 -0.0525 -0.3460
28290W        W47824  15.216   2.882   3.311  0.0710 -0.1063  0.0792
28291W        W47825  10.814   7.054  15.117  0.3776 -0.0540 -0.5151
28292W        W47826   6.258   2.193  14.382  0.0026 -0.1890 -0.0874
28293W        W47827   0.523   7.476  12.659 -0.1717  0.0947 -0.0432
28294W        W47828  12.817  13.418   2.950  0.2437 -0.1200  0.2440
28295W        W47829  14.114  13.764   1.066  0.1696  0.0236 -0.1126
28296W        W47830   4.680  16.223   1.168  0.1004  0.0448 -0.2581
28297W        W47831  15.189   1.397  13.239  0.0411  0.2050  0.1313
28298W        W47832   9.567  13.752  16.420 -0.0898 -0.0733  0.0017
28299W        W47833   0.645  16.489  17.215  0.0018  0.0143  0.0636
28300W        W47834  12.954   1.258  12.919  0.0775 -0.0116  0.0657
28301W        W47835   5.348   9.088  14.118 -0.1944  0.1384  0.0235
28302W        W47836   2.507   2.225  15.170 -0.0491  0.2744 -0.0583
28303W        W47837  14.159  14.903   0.117  0.0297  0.2737 -0.2697
28304W        W47838   3.909   3.773   0.070  0.2855  0.0774  0.1865
28305W        W47839   6.749   4.151   2.474 -0.1726  0.0036 -0.0847
28306W        W47840   0.767   4.460   1.310  0.0802  0.0924 -0.0849
28307W        W47841   5.970  13.242   0.538 -0.0725 -0.2303 -0.3546
28308W        W47842   4.698   7.036  15.222  0.1170  0.1314 -0.1996
28309W        W47843   2.712  15.234   3.549 -0.4497 -0.2243 -0.0446
28310W        W47844  11.131  17.001  14.451  0.2036 -0.2532 -0.0669
28311W        W47845  11.365   4.895  12.250 -0.1330 -0.1387 -0.2465
28312W        W47846  11.786   1.939   0.898  0.0789  0.0235 -0.2984
28313W        W47847   5.319   5.851   2.901 -0.2529  0.4170  0.1968
28314W        W47848  17.456   2.159   1.378  0.0823 -0.1430  0.2406
28315W        W47849   1.974  13.257  13.744  0.2019  0.2431 -0.1270
28316W        W47850   2.727   1.459  17.025  0.2982  0.3659  0.3831
28317W        W47851   8.809   4.470  16.475 -0.1051  0.1917  0.2468
28318W        W47852   7.732  11.657   2.331 -0.1391 -0.2596  0.0540
28319W        W47853  15.431   8.574   4.759 -0.2235 -0.1871  0.0898
28320W        W47854  10.337   7.377   1.364  0.0810  0.0510 -0.2227
28321W        W47855  14.017  15.231  15.084  0.1467 -0.1259  0.2629
28322W        W47856  17.388  11.908   3.790  0.1910  0.1106 -0.2723
28323W        W47857   1.908   2.995  12.582 -0.0049  0.0667  0.0079
28324W        W47858   3.958   9.915  15.167  0.0706  0.0074 -0.2437
28325W        W47859  13.311  12.853   0.384 -0.0672  0.2302 -0.0540
28326W        W47860  17.372   1.494   0.819  0.6142 -0.2453 -0.1492
28327W        W47861   5.172   7.148   1.609  0.2487  0.1786  0.2238
28328W        W47862  14.351   5.265   3.549 -0.0438 -0.1872 -0.0411
28329W        W47863  11.319  10.061   1.073  0.1297  0.3905 -0.0264
28330W        W47864  11.576  11.009  14.813  0.0914 -0.0821  0.2992
28331W        W47865  11.514   7.983   3.356 -0.0531 -0.0871 -0.2154
28332W        W47866  14.882   3.543  14.013  0.0648  0.1547 -0.0715
28333W        W47867   4.793   2.268  15.167 -0.1492 -0.0187  0.1255
28334W        W47868   0.402   7.266  16.893 -0.0637 -0.0556  0.2751
28335W        W47869  15.156  14.275   3.197  0.1930  0.2726  0.0450
28336W        W47870  17.057  14.693  15.171 -0.0748 -0.2000  0.0972
28337W        W47871  10.445   7.164  14.815 -0.0971 -0.0114  0.0152
28338W        W47872   4.290   5.866   0.361 -0.2188 -0.2419 -0.2289
28339W        W47873  14.285   2.767   0.879 -0.1745 -0.1668 -0.2200
28340W        W47874  10.955   9.999   2.535  0.2110  0.0498  0.2091
28341W        W47875  12.707  13.435  15.586 -0.0131 -0.1676  0.1358
28342W        W47876  10.320  15.509   1.608  0.3151 -0.0127 -0.4465
28343W        W47877  11.361   0.768  12.494  0.1121  0.1879  0.0618
28344W        W47878   5.309   2.958  12.592 -0.2104 -0.0800  0.1139
28345W        W47879  11.567   6.045   1.218  0.1174  0.2307 -0.1189
28346W        W47880  15.734   7.064   0.443  0.1345  0.1756  0.0747
28347W        W47881   4.941  11.973   2.141 -0.0293  0.1491  0.2409
28348W        W47882   3.907  14.747   3.557  0.1479 -0.2558 -0.0435
28349W        W47883  12.563  16.988  16.990  0.0588 -0.2866 -0.1533
28350W        W47884  11.951   2.990  12.796  0.2807 -0.2073  0.2238
28351W        W47885   5.043   1.964  14.196 -0.0722 -0.1232  0.0965
28352W        W47886  16.952   3.340  13.035  0.3162 -0.3312  0.0828
28353W        W47887   8.455  16.488  14.794  0.0717 -0.1546  0.0385
28354W        W47888   2.327   7.924   3.069  0.1857  0.1486 -0.0781
28355W        W47889   9.132  17.409  14.249 -0.1425  0.1159 -0.0904
28356W        W47890  14.135   4.091   0.903 -0.0673  0.0937 -0.0483
28357W        W47891   8.040   9.572  12.825 -0.0680  0.0648 -0.2803
28358W        W47892  16.566   0.328   4.285 -0.1473 -0.0735  0.2701
28359W        W47893   6.865   7.456  15.293  0.2613 -0.0951 -0.3569
28360W        W47894   2.978   6.572  12.814  0.0632 -0.2951  0.1773
28361W        W47895   2.800   3.504   1.662  0.1569 -0.2980 -0.2390
28362W        W47896   6.452   6.339  16.180  0.0133 -0.0134  0.4598
28363W        W47897   4.155  15.246  12.366  0.0237  0.1439 -0.2115
28364W        W47898  10.496   8.154   5.275  0.4034  0.0527 -0.0272
28365W        W47899  15.480   4.718   1.352  0.1177 -0.0731  0.0220
28366W        W47900  17.195   6.473   1.404  0.3360 -0.1109  0.1499
28367W        W47901   0.382  15.980  15.021 -0.1570  0.3247 -0.0476
28368W        W47902  17.327   6.396  13.965 -0.0150 -0.0038  0.0058
28369W        W47903   4.817   8.427   5.113 -0.1859  0.0943 -0.2943
28370W        W47904  11.767   9.503   3.643 -0.1620  0.0527  0.1767
28371W        W47905  16.638   7.054   3.016 -0.0694 -0.0411 -0.0386
28372W        W47906  14.033  17.423  16.875  0.0255  0.0179  0.1641
28373W        W47907  17.307  13.594  12.227  0.0076 -0.1207 -0.0595
28374W        W47908   7.044   4.625   2.677  0.2380  0.3345 -0.2713
28375W        W47909   9.259  13.711  12.982 -0.0979  0.0659 -0.0236
28376W        W47910   0.280   2.238  13.222 -0.3323  0.0010 -0.1129
28377W        W47911  13.629   4.881  16.551  0.1344  0.2371  0.2836
28378W        W47912   0.902  13.795  13.682  0.0284  0.1976 -0.0810
28379W        W47913   7.474   5.624  16.977  0.0134  0.1284  0.1651
28380W        W47914  13.392  13.880   4.582  0.2060 -0.2095  0.2193
28381W        W47915   7.234   3.907  15.620  0.1738 -0.1899 -0.0021
28382W        W47916   6.642   7.491   3.819  0.0647 -0.0173 -0.2219
28383W        W47917   4.858  12.802   1.421  0.1618  0.1521 -0.1737
28384W        W47918   7.845  10.188   2.093  0.3770  0.0670 -0.0058
28385W        W47919   5.174   0.763   0.184  0.2547  0.0885 -0.2460
28386W        W47920   2.341   7.100   4.337 -0.0606 -0.3023 -0.3914
28387W        W47921   9.164  15.168   3.918 -0.1050 -0.0917  0.0210
28388W        W47922  17.141   6.921  15.713  0.1849  0.1555 -0.1710
28389W        W47923   4.479  16.523   4.675 -0.1053 -0.0709 -0.0820
28390W        W47924   0.603   2.110  15.003 -0.3616  0.1795 -0.4699
28391W        W47925   9.426  13.420  12.587  0.1563 -0.2056  0.0047
28392W        W47926   2.930   8.686   3.534 -0.0543  0.0366  0.1617
28393W        W47927   1.075   0.638  16.504 -0.1298  0.2557 -0.0740
28394W        W47928  17.330   3.661   0.202  0.0771 -0.1957  0.0568
28395W        W47929  13.629   9.356  16.818 -0.1902 -0.0689  0.0528
28396W        W47930   0.254  16.103  16.972  0.1561  0.2798 -0.0615
28397W        W47931   4.374  11.398   1.958 -0.2284 -0.2099 -0.3558
28398W        W47932   5.557   9.818   2.221  0.0545  0.0929  0.0550
28399W        W47933  15.505   3.080   3.720  0.0997  0.1065  0.2942
28400W        W47934  16.892  11.043  12.162 -0.1048  0.0502  0.2359
28401W        W47935  13.179   1.505  14.643 -0.1443 -0.0864  0.1442
28402W        W47936  17.179   1.086  14.646 -0.0217 -0.0234  0.3531
28403W        W47937   8.140   0.296  16.849 -0.2546  0.0203 -0.0107
28404W        W47938   2.084   6.256   1.991  0.2030  0.1711  0.0241
28405W        W47939  12.676   7.848  16.312 -0.3105 -0.1897 -0.1796
28406W        W47940  13.360  14.756  12.832  0.1026 -0.1032 -0.0254
28407W        W47941  14.027  11.043  14.540 -0.0056  0.0510 -0.0550
28408W        W47942   7.860   1.580   1.272  0.0619 -0.1274  0.2078
28409W        W47943   0.562   1.755   2.969 -0.0717 -0.1969  0.0748
28410W        W47944   1.561   3.164   1.796 -0.0066  0.0097 -0.2084
28411W        W47945   0.254   9.123  16.291 -0.1768 -0.0136  0.0360
28412W        W47946  15.387   3.088  14.440 -0.0745  0.0394 -0.0707
28413W        W47947   3.839   9.706  16.234 -0.2366  0.1697  0.0030
28414W        W47948   6.435  14.608  12.277  0.2194 -0.0544 -0.1135
28415W        W47949   9.526  10.633  14.516 -0.0419  0.0966 -0.1241
28416W        W47950   9.989   7.280  14.651 -0.2014  0.1742  0.0717
28417W        W47951   1.774  15.298   3.722 -0.1009 -0.2613 -0.1011
28418W        W47952   5.937   4.052  12.441 -0.0202 -0.1318 -0.0068
28419W        W47953   4.450   7.457   1.751  0.2332 -0.0305 -0.2552
28420W        W47954   9.690  11.230  15.126 -0.4477  0.0813  0.0693
28421W        W47955   9.415   5.585  14.234 -0.1002 -0.1269 -0.1290
28422W        W47956  15.322  17.106   4.444 -0.0928  0.1883 -0.2026
28423W        W47957   2.129   3.607   4.482  0.2999 -0.0566 -0.1520
28424W        W47958   6.218  10.748  15.536 -0.0207  0.0735 -0.0539
28425W        W47959  14.288   5.791   1.653  0.1921 -0.0996 -0.3009
28426W        W47960  10.027   8.106  13.931  0.0116 -0.1412  0.1177
28427W        W47961   2.328  17.345   2.679  0.4923  0.0317  0.0683
28428W        W47962   5.915   3.506  16.766  0.0878 -0.2030  0.1234
28429W        W47963  11.156   0.889  16.325 -0.5245  0.3159  0.3246
28430W        W47964   1.568  15.763   1.433 -0.2837  0.3171  0.0902
28431W        W47965   9.127  10.644  12.699  0.0655  0.1037  0.0854
28432W        W47966  15.088   0.429   4.041  0.0128  0.0659  0.2873
28433W        W47967  12.319   2.378   2.986 -0.0228 -0.0463 -0.1479
28434W        W47968   4.567   3.775   2.664 -0.2048 -0.0168  0.0003
28435W        W47969   7.000  15.435   2.895  0.1835  0.0763  0.1823
28436W        W47970  10.678  17.335  13.229  0.0324 -0.0239 -0.5459
28437W        W47971  14.733   4.317   1.458 -0.0366 -0.0902  0.0203
28438W        W47972  16.809   7.730  13.795 -0.4091  0.0012 -0.2443
28439W        W47973   0.732   3.181   2.958  0.3313 -0.2197 -0.4289
28440W        W47974   0.634   1.303   4.133  0.0013  0.1179  0.1255
28441W        W47975  11.628  16.080   3.504  0.0358  0.2108 -0.0213
28442W        W47976   1.809   9.086  14.985 -0.1092  0.0327 -0.0275
28443W        W47977  11.090  14.662   2.584 -0.0568  0.0488  0.2629
28444W        W47978   1.591  11.418   2.674  0.1497 -0.1188 -0.0135
28445W        W47979   3.015   0.234  11.769 -0.0467 -0.0505 -0.0016
28446W        W47980   0.881   7.190  15.050  0.1198  0.2387 -0.1559
28447W        W47981   6.272   1.923   0.346 -0.0635 -0.1144 -0.1375
28448W        W47982   6.349  11.973  12.441 -0.1390 -0.0438  0.0275
28449W        W47983   1.163  16.836  16.313  0.2961 -0.3410  0.1820
28450W        W47984   2.099  10.102   1.746  0.0419 -0.0583 -0.1443
28451W        W47985   2.365  10.417   4.320 -0.1088  0.1417  0.1025
28452W        W47986   9.928   8.040  14.942  0.1187 -0.0435  0.1183
28453W        W47987   1.120  16.744   3.880 -0.1271  0.2287  0.1154
28454W        W47988   5.042  10.405   5.028  0.1347  0.0235 -0.0826
28455W        W47989  15.597  12.601  13.312 -0.3395  0.2679  0.1297
28456W        W47990  14.407  11.040  17.052  0.0425 -0.0876  0.0697
28457W        W47991   3.893   6.264   0.351  0.1935 -0.0906  0.2035
28458W        W47992  12.822  16.765  14.308 -0.0586  0.1656  0.1485
28459W        W47993   3.670  11.923   2.147 -0.0698  0.1515  0.4816
28460W        W47994  17.469   4.319   4.280  0.1196  0.0061 -0.0665
28461W        W47995  12.446  14.030  17.134 -0.1536 -0.0805 -0.3209
28462W        W47996  15.051  16.226   3.041  0.0430  0.1147 -0.0168
28463W        W47997   9.736   5.016   2.120 -0.2523 -0.3155  0.0043
28464W        W47998  14.971  15.004   2.092  0.1146  0.1247 -0.0928
28465W        W47999  12.193  15.719   1.175  0.0198 -0.0595 -0.1971
28466W        W48000  11.181  12.695  15.377  0.1972 -0.1050 -0.1293
28467W        W48001   8.049   4.980  15.506 -0.0401 -0.1526 -0.1367
28468W        W48002   3.690   0.376   0.984  0.3862  0.1500  0.3741
28469W        W48003   1.947  13.269   3.090  0.2708 -0.1583 -0.0889
28470W        W48004   5.294  17.176   3.868 -0.0984 -0.0906 -0.2820
28471W        W48005  13.191  12.474  13.614  0.0885 -0.2796  0.3100
28472W        W48006  13.919  12.733  13.795 -0.2520  0.1842  0.1306
28473W        W48007   4.886   3.962  14.644  0.1322 -0.0564  0.1662
28474W        W48008  13.423  10.407   3.184  0.1901 -0.1087 -0.1943
28475W        W48009   9.931   5.047   3.315 -0.1009  0.3897  0.0563
28476W        W48010   4.886   8.097   2.344  0.0505 -0.3843 -0.2802
28477W        W48011   4.330  14.249   3.397  0.1513 -0.1483 -0.2124
28478W        W48012   8.736   5.000  13.017  0.0106  0.1156  0.5535
28479W        W48013  17.371   1.553  14.977 -0.0118  0.0011 -0.2389
28480W        W48014   7.418  12.120  16.203  0.1284  0.2500  0.3093
28481W        W48015   6.766   2.148   1.153 -0.5073 -0.0849 -0.0362
28482W        W48016   0.676   3.889   3.353 -0.2184  0.4278  0.4280
28483W        W48017   5.400   3.821   1.536 -0.0809  0.1709  0.1428
28484W        W48018  12.455   4.763  17.091  0.0136 -0.0763  0.3670
28485W        W48019   5.811  13.638   2.267 -0.0045  0.1360  0.0955
28486W        W48020  15.259   2.674  15.441 -0.1190  0.4444 -0.0292
28487W        W48021   1.784   6.378   1.197  0.2868  0.0319  0.0303
28488W        W48022  16.351   6.204  16.173 -0.1744 -0.3003 -0.0634
28489W        W48023  15.597   1.290   3.190 -0.0846  0.2519  0.3080
28490ION     NA48024  16.760   5.511  11.171  0.0336  0.0150 -0.1248
28491ION     NA48025   4.250  14.958   3.886 -0.0900 -0.0101 -0.1007
28492ION     NA48026   6.315   6.208   3.490 -0.3253  0.0918  0.0526
28493ION     NA48027  17.261   2.738   6.036  0.2215  0.2507 -0.2651
28494ION     NA48028   6.884  13.270   5.803 -0.0335 -0.0704 -0.2347
28495ION     NA48029   5.333  13.422  15.998  0.0294 -0.2389  0.1974
28496ION     NA48030  13.361   3.371  11.535  0.1731  0.1654 -0.2958
28497ION     NA48031   6.362   3.200   5.682 -0.2367 -0.0904  0.0606
28498ION     NA48032   4.626   1.096   5.723  0.0990  0.1428 -0.2943
28499ION     NA48033  12.229   8.897  11.723 -0.0935  0.0660 -0.4679
28500ION     NA48034  15.642   4.471  11.809  0.0589 -0.2846  0.1879
28501ION     NA48035  13.908   9.741  11.874 -0.1579  0.1678 -0.1861
28502ION     NA48036  16.771  12.820  11.327  0.1656 -0.1008 -0.3765
28503ION     NA48037   4.808  13.172  11.734 -0.0284 -0.1601  0.1961
28504ION     NA48038   6.187  14.001   6.037 -0.2209  0.4197 -0.1427
28505ION     NA48039   9.622   0.131   6.159  0.0485 -0.0893 -0.0829
28506ION     NA48040  16.207   4.936  14.751  0.1399 -0.1054 -0.3480
28507ION     NA48041   1.584  12.976  11.253  0.2997  0.1297  0.0097
28508ION     NA48042   0.503   1.856   3.460  0.1909  0.0064 -0.1734
28509ION     NA48043   5.163  13.053  12.139  0.0792  0.1542  0.0427
28510ION     NA48044  11.344   4.968  11.473  0.0266  0.0703 -0.1204
28511ION     NA48045   6.236   5.091  14.609  0.4416  0.0705  0.3041
28512ION     NA48046   0.258  15.065   6.040  0.0001 -0.0665 -0.1658
28513ION     NA48047   2.123  16.814  11.009  0.1892  0.3738 -0.0713
28514ION     NA48048  11.929  12.412  11.570  0.1869 -0.1174 -0.0095
28515ION     NA48049   2.216  10.146   6.053  0.1902  0.0158  0.1595
28516ION     NA48050   2.362   8.073  13.257 -0.0104 -0.0387 -0.3204
28517ION     NA48051   8.409  10.996   1.326 -0.1953 -0.1721 -0.0548
28518ION     NA48052   8.432   5.242  11.448  0.1962 -0.0619  0.2070
28519ION     NA48053   0.281  17.400  15.224 -0.2883  0.3047  0.1170
28520ION     NA48054  13.539   0.960   5.865  0.1434 -0.1305 -0.1433
28521ION     NA48055  14.009   3.789  11.402 -0.3092  0.0987  0.0218
28522ION     NA48056   4.284   4.928   0.747 -0.2280  0.1941 -0.4001
28523ION     NA48057   0.835   7.794  11.376  0.0404  0.0849  0.1893
28524ION     NA48058  10.776  14.355   2.843 -0.1343 -0.2375 -0.0834
28525ION     NA48059   5.612   5.191   5.871  0.0168 -0.2027 -0.0772
28526ION     NA48060   4.760   8.613  11.538 -0.1540  0.0829  0.0368
28527ION     NA48061   4.621  16.270   5.641 -0.2020  0.0348 -0.2501
28528ION     NA48062   8.138   1.313  11.530  0.0723  0.0204  0.1016
28529ION     NA48063   9.223  15.438   5.971 -0.1557 -0.1186 -0.1112
28530ION     NA48064   6.934  17.280  11.678  0.3150 -0.1916  0.2504
28531ION     NA48065  11.987  14.150  16.357  0.1019 -0.4119 -0.4104
28532ION     NA48066   9.140  16.404   5.885 -0.1658  0.1880 -0.2233
28533ION     NA48067   3.676   9.833   5.873  0.0080 -0.0070 -0.2776
28534ION     NA48068   5.305  12.487   6.041  0.1364  0.1714 -0.1366
28535ION     NA48069  16.964   3.827  11.490 -0.0959  0.0200  0.2435
28536ION     NA48070  11.767  12.885   0.620 -0.0576 -0.1749  0.0795
28537ION     NA48071   8.526   6.012  11.559 -0.1229  0.1255 -0.4306
28538ION     NA48072  12.401   2.767   3.336  0.1930  0.0218 -0.0456
28539ION     NA48073  12.042  10.590  11.457  0.4970  0.0816 -0.0163
28540ION     NA48074   4.913   7.794  11.662  0.0801 -0.2173  0.1006
28541ION     NA48075  13.466  12.502  11.323  0.0082  0.0465 -0.0993
28542ION     NA48076  11.979   4.995  13.016  0.0594 -0.4210 -0.1220
28543ION     NA48077  12.220  11.934   3.805  0.0277 -0.1137 -0.2924
28544ION     NA48078  14.553   8.470   5.902 -0.1741  0.2166 -0.1304
28545ION     NA48079   2.101  12.482   5.792  0.4248  0.1593  0.1226
28546ION     NA48080   5.243   5.702  11.791 -0.3845 -0.1355  0.0001
28547ION     NA48081   7.812  16.985  11.389  0.4264 -0.2104 -0.0710
28548ION     NA48082  10.559   5.785   5.989  0.3671 -0.0111  0.0410
28549ION     NA48083  15.397   3.079   6.043  0.1016  0.3225 -0.2540
28550ION     NA48084  10.982   4.778   1.446  0.3633 -0.2267  0.4316
28551ION     NA48085   2.885   9.531   5.887  0.1619  0.0429  0.2314
28552ION     NA48086   5.884   1.066  11.213  0.1749 -0.0829 -0.3658
28553ION     NA48087  16.903  11.007   5.836 -0.1589 -0.1866 -0.1013
28554ION     NA48088   4.848  10.255  11.766  0.1753  0.1559  0.1659
28555ION     NA48089  16.653   8.958   4.965  0.2515 -0.2304  0.0661
28556ION     NA48090  10.432  14.916  11.441  0.0134 -0.1954 -0.0582
28557ION     NA48091   1.442   3.037  12.740 -0.0974 -0.1294 -0.0662
28558ION     NA48092   1.573  14.309  11.309 -0.1630  0.2011 -0.1199
28559ION     NA48093   1.127  14.681   5.909  0.2257  0.0870 -0.0084
28560ION     NA48094   8.970   7.733  11.712 -0.0789  0.0345 -0.0100
28561ION     NA48095   5.894  15.539  15.684 -0.0137 -0.2727  0.1269
28562ION     NA48096  10.793  16.181   5.978 -0.2497 -0.2949 -0.2633
28563ION     NA48097   9.124  13.641   2.528 -0.0582 -0.1427  0.1760
28564ION     NA48098   2.533   0.841  10.947  0.1001 -0.0656  0.1001
28565ION     NA48099  12.273   8.957   6.048 -0.2814  0.0486  0.0817
28566ION     NA48100  10.744   2.206  11.685 -0.1299 -0.1775 -0.1053
28567ION     NA48101   7.447   2.664   5.447 -0.1063 -0.3053  0.1399
28568ION     NA48102   1.034   3.937  11.405 -0.0568 -0.0789  0.1361
28569ION     NA48103   9.111   6.426  14.142  0.2735 -0.2750  0.0550
28570ION     NA48104   1.943  16.803   5.398  0.0998  0.1095 -0.1842
28571ION     NA48105   2.671   8.760   5.858  0.0684  0.0795 -0.0059
28572ION     NA48106  14.013  14.189   6.026 -0.2548 -0.0071 -0.1329
28573ION     NA48107  13.545   5.489   6.138 -0.0350 -0.0144  0.0917
28574ION     NA48108  12.676  15.104   6.051 -0.0340  0.2934  0.1926
28575ION     NA48109   8.356  16.727   6.114 -0.1304  0.1987 -0.0805
28576ION     NA48110   8.257   7.019  17.006 -0.0002  0.0373  0.0231
28577ION     NA48111   5.143   7.910   6.135  0.0197 -0.1302 -0.0661
28578ION     NA48112   5.023  15.358   5.794  0.1603  0.0493  0.0795
28579ION     NA48113  16.162   7.904  11.947 -0.1394  0.2089  0.1984
28580ION     NA48114   6.615   8.262   6.033  0.0609  0.0640 -0.1843
28581ION     NA48115   7.806  16.819   0.845  0.0341 -0.1832  0.0395
28582ION     NA48116  15.435   3.985   6.059  0.0546  0.1297  0.1009
28583ION     NA48117   1.784   1.210   1.284  0.2288 -0.2490  0.0362
28584ION     NA48118   7.526  15.097  11.725  0.1229  0.0501 -0.4146
28585ION     NA48119  13.032   2.341  11.329 -0.1272 -0.0964  0.1029
28586ION     NA48120  15.556  13.977   5.798  0.1286  0.1727 -0.1559
28587ION     NA48121  11.433  14.599   3.978  0.2370  0.2235  0.3259
28588ION     NA48122   5.268   8.746  11.638  0.2449  0.0886  0.1681
28589ION     NA48123  12.058  15.707  11.343 -0.1278 -0.2946  0.2205
28590ION     NA48124  10.642   6.624   6.015 -0.3262 -0.0699  0.2299
28591ION     NA48125   0.008   0.740   3.821 -0.0093  0.0547  0.0449
28592ION     NA48126  11.362  15.735   6.170  0.0132 -0.4474  0.2717
28593ION     NA48127  14.296  12.599  11.321 -0.1182 -0.0557 -0.2354
28594ION     NA48128  12.179  14.421   5.633  0.3230 -0.1729 -0.0592
28595ION     NA48129   1.803  14.225   5.803 -0.0155 -0.1195 -0.0445
28596ION     NA48130   4.104  12.649  16.260 -0.1514 -0.0138 -0.0464
28597ION     NA48131   6.587   1.542  11.224 -0.2163 -0.0698  0.1098
28598ION     NA48132   5.907  11.979   5.769  0.1471 -0.2380  0.1998
28599ION     NA48133  11.289   6.034   5.643 -0.4732 -0.1694 -0.0054
28600ION     NA48134   1.360   9.934   5.884 -0.0075  0.3286 -0.1038
28601ION     NA48135   7.701   4.058   6.032  0.0487  0.2091 -0.0193
28602ION     NA48136   0.717  12.482   5.849  0.0218  0.2011 -0.0033
28603ION     NA48137  12.657   4.752   2.139 -0.1682 -0.0979 -0.1133
28604ION     NA48138   2.354   9.821   2.894 -0.0041  0.3343 -0.3190
28605ION     NA48139   6.854   8.980  11.715  0.0839  0.0069  0.0640
28606ION     NA48140   9.587   9.640   5.977  0.1341  0.1339 -0.2995
28607ION     NA48141  17.436   6.166  11.397 -0.0581 -0.2566 -0.0671
28608ION     NA48142   9.062   4.501  11.646 -0.0565 -0.1242  0.2275
28609ION     NA48143   7.929  13.505  11.586 -0.1996  0.0910 -0.0317
28610ION     NA48144  12.894   3.357   5.522 -0.1172 -0.1095  0.2810
28611ION     NA48145  10.206   5.820  15.471 -0.0354 -0.0691  0.1260
28612ION     NA48146  15.931   1.687  12.114  0.1289  0.0580 -0.0493
28613ION     NA48147   8.228   3.115  11.579 -0.0212  0.1655 -0.0376
28614ION     NA48148  11.669   7.619   5.990 -0.1673 -0.1684  0.0320
28615ION     NA48149  16.904   7.345   1.732 -0.1735  0.1012 -0.0122
28616ION     NA48150   4.498  12.822  14.946  0.2613 -0.0698 -0.4203
28617ION     NA48151   6.569  10.515  15.897 -0.3209 -0.3375  0.0078
28618ION     NA48152  11.398   7.136  11.340  0.1114  0.0758 -0.2563
28619ION     NA48153   3.003   3.749   6.097 -0.1574 -0.1827  0.0885
28620ION     NA48154   3.863  15.440   5.742 -0.1261 -0.0478 -0.1083
28621ION     NA48155   9.868   1.050  11.367  0.2789 -0.1122  0.2355
28622ION     NA48156   3.928  12.902  11.986 -0.2995  0.3659  0.1434
28623ION     NA48157   4.123   8.039  11.598 -0.1598 -0.2169 -0.0223
28624ION     NA48158  12.271   7.152  11.420 -0.1818  0.2134 -0.1941
28625ION     NA48159   4.561   3.524  11.463 -0.1900  0.4313  0.0144
28626ION     NA48160   7.330  11.429   6.096 -0.0870 -0.0133  0.0531
28627ION     NA48161  15.822  14.450  11.465 -0.0589 -0.0020  0.1116
28628ION     NA48162  15.727   2.469   2.653 -0.1435  0.1185 -0.1191
28629ION     NA48163   8.545  12.116   5.810 -0.0805  0.0986 -0.1062
28630ION     NA48164   7.843  10.048   6.095 -0.2458 -0.0209 -0.1671
28631ION     NA48165   5.350   5.914  11.307 -0.1004  0.0793 -0.2306
28632ION     NA48166   4.406  12.631  11.308 -0.0049 -0.1673  0.2190
28633ION     NA48167   8.813   1.593   6.081 -0.0006  0.0102 -0.2474
28634ION     NA48168  13.375   4.257  11.624 -0.1204  0.0061  0.1600
28635ION     NA48169   0.995  13.060  17.187  0.0576 -0.0188 -0.0198
28636ION     NA48170   9.095  13.626   5.973  0.0647  0.0541  0.0129
28637ION     NA48171   3.724   3.640  11.235 -0.5596 -0.1667  0.1202
28638ION     NA48172  15.267  15.174   5.781  0.1461  0.1847 -0.2352
28639ION     NA48173  15.960   7.806  11.227  0.0747 -0.1321 -0.2309
28640ION     NA48174   8.160  12.539   0.748 -0.1648  0.2034  0.0546
28641ION     NA48175   5.991   5.510  11.386 -0.3743  0.1415  0.0353
28642ION     NA48176  12.591   2.939  11.392 -0.1921 -0.2893  0.0754
28643ION     NA48177  15.584   5.298   6.119 -0.0010 -0.0965  0.2655
28644ION     NA48178   3.167  10.621  11.336  0.0555  0.1450  0.1571
28645ION     NA48179  12.304  16.068   5.965 -0.0094  0.0614  0.0230
28646ION     NA48180   2.846   8.505  13.391 -0.0831  0.1469 -0.0325
28647ION     NA48181  14.953  15.678   3.753 -0.1357  0.1182  0.0658
28648ION     NA48182  16.022  10.900   5.950 -0.1784  0.0986  0.0617
28649ION     NA48183   6.498  15.142  13.258 -0.2340  0.0919  0.1714
28650ION     NA48184  12.195   7.578   6.189 -0.0837 -0.0115  0.0694
28651ION     NA48185  15.535  12.073   4.576  0.2186  0.0349 -0.0693
28652ION     NA48186  14.016   4.835   6.084  0.4342 -0.2303 -0.0951
28653ION     NA48187   5.753  14.300  11.547 -0.0438  0.0863 -0.2412
28654ION     NA48188   8.080   1.071   5.916 -0.0468 -0.0517 -0.2193
28655ION     NA48189   2.120   7.124   6.002 -0.1337 -0.2332  0.4618
28656ION     NA48190   2.596  14.479   5.709 -0.0584 -0.1767 -0.1597
28657ION     NA48191  17.401  16.824  11.425 -0.2770  0.0012 -0.0470
28658ION     NA48192  12.113   5.465   5.495  0.0588 -0.0663 -0.0243
28659ION     NA48193  14.562   7.146   5.032 -0.2826 -0.0678 -0.1177
28660ION     NA48194   0.192  15.411  15.236 -0.0741 -0.0731  0.0348
28661ION     NA48195  14.830  11.288  11.420  0.1966  0.0289 -0.3267
28662ION     NA48196   2.566  11.022   6.110 -0.3846  0.2961 -0.0982
28663ION     NA48197   3.596   0.353  15.331  0.1711  0.1240 -0.1779
28664ION     NA48198   5.476   9.572   6.188 -0.0544  0.1079  0.2021
28665ION     NA48199   3.652   9.040   6.067  0.0736  0.1984 -0.1107
28666ION     NA48200   4.536  12.059   5.959 -0.0696  0.0636  0.0808
28667ION     NA48201   8.162   7.562  11.532  0.0401 -0.0581 -0.1340
28668ION     NA48202  13.255   9.699  16.693 -0.0536 -0.1381 -0.2096
28669ION     NA48203   3.895  15.390  11.089 -0.1342 -0.0766 -0.3894
28670ION     NA48204   2.004  15.001   5.787  0.1382 -0.1813 -0.4155
28671ION     NA48205   2.266   4.902  11.322 -0.1421 -0.4568  0.0156
28672ION     NA48206  13.603  15.079  11.595 -0.0029 -0.2225 -0.0403
28673ION     NA48207   6.048   0.245  11.509  0.2207  0.1677 -0.1319
28674ION     NA48208  11.925  11.651   1.016 -0.1762  0.1502 -0.1512
28675ION     NA48209  13.480   9.586   4.524 -0.0321 -0.1777 -0.0848
28676ION     NA48210  14.891  11.677   5.889 -0.2207  0.2562 -0.0728
28677ION     NA48211  17.027  14.581   5.660  0.0746  0.0355  0.4513
28678ION     NA48212   5.002   6.861  11.179 -0.0873 -0.1157 -0.6792
28679ION     NA48213   4.584  11.117   5.957 -0.0848  0.1179  0.2014
28680ION     NA48214   7.781  11.977   6.115  0.0060 -0.1380  0.1855
28681ION     NA48215   4.362   0.662  11.162  0.0270 -0.0836 -0.0004
28682ION     NA48216   3.206   8.194  16.779  0.0681  0.2659  0.0986
28683ION     NA48217  11.185   7.777   6.051 -0.1774 -0.0945  0.0817
28684ION     NA48218   0.904   2.681  11.467 -0.0566 -0.0926  0.0437
28685ION     NA48219  17.018   1.854  11.356  0.2650  0.0973  0.2286
28686ION     NA48220   2.899   9.263  14.563 -0.0591  0.2286 -0.0254
28687ION     NA48221   4.824   5.169   2.246  0.0086 -0.0531 -0.0890
28688ION     NA48222  14.652   7.045  15.382 -0.1215  0.2498  0.3785
28689ION     NA48223   9.798   1.485   6.013 -0.1629  0.0576 -0.0034
28690ION     NA48224   8.500  11.203  11.838 -0.2810 -0.0615 -0.1107
28691ION     NA48225  11.995   8.557   6.049  0.0552  0.2088  0.3673
28692ION     NA48226   6.487  16.805   1.920  0.0961  0.1027  0.3571
28693ION     NA48227  16.619   8.353   5.753  0.0339  0.0111 -0.0109
28694ION     NA48228  12.553  11.389   6.113 -0.0288  0.1405  0.0627
28695ION     NA48229  16.866   3.402  11.680  0.0964 -0.0119 -0.1522
28696ION     NA48230  13.229   0.152   1.723  0.0019 -0.1195 -0.1468
28697ION     NA48231  15.634  14.627   0.371  0.1584  0.2284 -0.0506
28698ION     NA48232   7.260   7.826  11.448 -0.3741  0.0496 -0.1888
28699ION     NA48233   8.817  13.366  11.417  0.1881 -0.1255  0.0795
28700ION     NA48234  17.448   4.227  11.348  0.3238 -0.0881  0.1015
28701ION     NA48235  11.041   8.328   0.477  0.0823 -0.2609 -0.1156
28702ION     NA48236   1.612   6.308   6.081 -0.2314  0.0133 -0.1061
28703ION     NA48237   1.258   1.642  16.697  0.0834 -0.3366  0.2024
28704ION     NA48238   1.395  15.133  11.242  0.2751 -0.0882  0.0743
28705ION     NA48239   4.024   3.510   5.861  0.1040 -0.1060  0.0331
28706ION     NA48240   5.569  13.349  11.529 -0.1798 -0.1137  0.0331
28707ION     NA48241  11.663   3.705   6.004  0.0943  0.0934  0.1331
28708ION     NA48242   4.216  13.461  11.385  0.1190  0.0091  0.4123
28709ION     NA48243   7.469  14.693  17.229  0.0236  0.1322  0.2895
28710ION     NA48244  15.531   8.457   5.999 -0.0115  0.0346 -0.3524
28711ION     NA48245  15.736  16.247  12.479 -0.1866  0.1274  0.1711
28712ION     NA48246   3.961   7.538  11.557  0.1032 -0.4287  0.1188
28713ION     NA48247  12.301  10.516   6.142  0.1001  0.2073  0.1524
28714ION     NA48248   1.700  10.796   6.043  0.0833 -0.2087  0.3996
28715ION     NA48249  11.017   1.181   5.050 -0.1856 -0.0698 -0.1562
28716ION     NA48250   7.914  11.728   3.873  0.2446  0.1942  0.3276
28717ION     NA48251   9.077  11.507  11.644 -0.0679  0.0135  0.1173
28718ION     NA48252   9.112   8.842   6.233  0.1580 -0.0784  0.1574
28719ION     NA48253   2.549   2.932  11.812  0.0570  0.1276 -0.2199
28720ION     NA48254   7.652  13.179   5.865 -0.0049  0.1146 -0.1163
28721ION     NA48255  13.740   2.052  11.572 -0.3427 -0.2023 -0.0808
28722ION     NA48256  13.604   2.916  11.540  0.0294  0.1228 -0.1134
28723ION     NA48257   5.332   9.661  13.062 -0.3308 -0.1384  0.0796
28724ION     NA48258   5.530  11.064   6.075  0.1632  0.0615 -0.1204
28725ION     NA48259   1.090   1.845  12.558  0.0132  0.1022 -0.0348
28726ION     NA48260  10.584   8.127  11.433  0.1872 -0.3161  0.0071
28727ION     NA48261   9.399   4.581   6.051  0.1803 -0.1202  0.1431
28728ION     NA48262   5.396   4.914  11.564  0.0117  0.0666  0.2321
28729ION     NA48263   3.264   1.608   4.032  0.0538 -0.1018 -0.2214
28730ION     NA48264  15.205   6.179  11.539  0.0908  0.2816  0.2623
28731ION     NA48265   8.155   4.301  11.544  0.0654  0.2058  0.1227
28732ION     NA48266   4.879   0.382   5.879  0.0511  0.0382 -0.2582
28733ION     NA48267  13.629   3.150   3.792 -0.0503 -0.0893  0.0713
28734ION     NA48268  10.888   9.094  14.635 -0.0114  0.3043 -0.2622
28735ION     NA48269   6.230   7.150  16.407 -0.0143  0.2462  0.0687
28736ION     NA48270   3.741   6.582  11.457  0.0095  0.1090  0.0446
28737ION     NA48271  11.710  11.317   6.010  0.4536  0.1432 -0.1130
28738ION     NA48272  16.481  15.430   5.825 -0.2288 -0.1041  0.0645
28739ION     NA48273  14.683   9.926   5.451  0.0422  0.2481  0.1465
28740ION     NA48274   1.369   0.406   5.669  0.2954  0.2104 -0.2416
28741ION     NA48275   2.043   4.239   5.159  0.2689  0.1870 -0.0660
28742ION     NA48276   7.712   6.190   3.056 -0.4422  0.3457  0.2257
28743ION     NA48277  14.286  16.097   6.012 -0.0994 -0.1760  0.0381
28744ION     NA48278  14.819  14.335  11.315  0.1178  0.1451 -0.1626
28745ION     NA48279   6.894   6.117  11.459  0.0559 -0.5204  0.0661
28746ION     NA48280  15.572   9.437  11.341  0.0819 -0.0461 -0.2469
28747ION     NA48281  14.375   3.094  17.203 -0.0845  0.2078 -0.0360
28748ION     NA48282   4.489   9.367  11.599 -0.4493  0.2820 -0.0547
28749ION     NA48283   7.369  12.734  11.662  0.0271 -0.1879  0.3542
28750ION     NA48284  12.343   1.731   6.009  0.0591  0.2022 -0.1125
28751ION     NA48285   1.104  16.448   1.662  0.2531 -0.0108  0.0290
28752ION     NA48286  16.940  14.726  11.374 -0.1574 -0.3783  0.0326
28753ION     NA48287   4.629   5.022  11.521  0.0517  0.1257 -0.0793
28754ION     NA48288  16.291  14.292  14.615 -0.0261 -0.0938 -0.0500
28755ION     NA48289  13.599   9.464  13.993  0.2256 -0.3703  0.3733
28756ION     NA48290   0.865  13.748  11.268  0.3064 -0.0989 -0.0115
28757ION     NA48291  13.652  16.182   5.165 -0.2629 -0.0659  0.2166
28758ION     NA48292  13.762  17.473  11.340 -0.1732  0.1869  0.0728
28759ION     NA48293  15.516  13.777  11.217  0.0576  0.0181 -0.2878
28760ION     NA48294  16.221   5.095  13.188  0.1995 -0.0389  0.0972
28761ION     NA48295  17.447  11.464   4.769  0.0069 -0.1909 -0.1492
28762ION     NA48296   5.840   5.500  16.344  0.1462 -0.1864 -0.2517
28763ION     NA48297  10.138   2.741   5.839  0.6053 -0.2369 -0.0667
28764ION     NA48298  16.341   1.813   5.962  0.2397  0.1038  0.0155
28765ION     NA48299   8.923  16.312  11.414 -0.3049 -0.0436  0.0278
28766ION     NA48300   4.414  15.491  11.360  0.1678  0.1860 -0.0602
28767ION     NA48301  12.239  13.180   3.346  0.3579 -0.1302 -0.2699
28768ION     NA48302   2.280   6.825  11.461 -0.1059  0.0566 -0.1172
28769ION     NA48303   4.154  11.839  11.247 -0.0893 -0.1881  0.1114
28770ION     NA48304  15.957   0.924   5.950 -0.1652 -0.0538  0.0637
28771ION     NA48305   1.685   0.846   5.449  0.1080 -0.1383 -0.0545
28772ION     NA48306   6.368  11.813   5.972  0.1381 -0.0978  0.0245
28773ION     NA48307   4.744  15.798  13.418 -0.2519 -0.0103  0.1315
28774ION     NA48308   1.081   4.737  11.461 -0.0296 -0.1694 -0.1357
28775ION     NA48309  12.168  15.220   6.244 -0.3077  0.0744  0.3161
28776ION     NA48310  11.551   0.470  12.894  0.1293  0.0382  0.0826
28777ION     NA48311   2.619  14.296  12.438 -0.3286  0.0238 -0.1519
28778ION     NA48312  15.486   8.637  11.397  0.1813  0.1396 -0.1219
28779ION     NA48313   0.330  11.736  11.352  0.1188 -0.0365 -0.0558
28780ION     NA48314  15.163   2.371  11.739 -0.2422  0.1407 -0.2776
28781ION     NA48315  10.164  11.700   2.517  0.2406  0.0764 -0.3904
28782ION     NA48316  12.830  14.055  12.528 -0.0380  0.0166 -0.1281
28783ION     NA48317   3.094   7.191  11.535  0.2020  0.0531  0.0630
28784ION     NA48318  17.300  13.179   4.234  0.0481 -0.0577  0.1799
28785ION     NA48319   0.755   0.908   5.945 -0.0445  0.3647 -0.0223
28786ION     NA48320   9.873  16.057   5.876 -0.1258 -0.1305 -0.1874
28787ION     NA48321  10.865  15.219   5.688  0.3071  0.1690 -0.1645
28788ION     NA48322   1.652   3.367  11.530 -0.2154 -0.1394 -0.2331
28789ION     NA48323  12.585  12.455   5.848  0.1065  0.0097  0.0838
28790ION     NA48324   3.648   8.128   2.465  0.2653  0.0296 -0.1034
28791ION     NA48325  10.403   7.330  11.584  0.0803  0.2856 -0.0672
28792ION     NA48326   7.712  11.442  11.832 -0.2032  0.1685 -0.2860
28793ION     NA48327  16.549   3.240   5.930 -0.2015  0.0036  0.1655
28794ION     NA48328   3.205  13.240  11.478  0.2023  0.1070  0.1267
28795ION     NA48329   2.080   5.888  11.437 -0.1169 -0.0934  0.0395
28796ION     NA48330  15.996   9.060   5.927  0.0397  0.0173  0.3639
28797ION     NA48331   5.971   3.175  11.250 -0.1737 -0.0756 -0.0936
28798ION     NA48332   2.078  17.080  15.946  0.0365  0.0091  0.2564
28799ION     NA48333  13.325   1.467  16.068 -0.0629 -0.0680  0.1684
28800ION     NA48334   2.067   1.495   5.769 -0.0031 -0.1889  0.1219
28801ION     NA48335   4.456  15.447   5.772  0.0599 -0.2852 -0.0495
28802ION     NA48336   8.441  15.872   6.032 -0.1200 -0.1342 -0.2507
28803ION     NA48337   5.550  16.282   6.024 -0.1063  0.0283 -0.1261
28804ION     NA48338  10.827   0.604   5.809  0.1025 -0.2427 -0.0694
28805ION     NA48339  13.850   4.787  11.653 -0.2302  0.0990 -0.0722
28806ION     NA48340  12.009  17.160  11.425 -0.1109  0.0892 -0.1532
28807ION     NA48341  17.403   1.027   6.208  0.1256  0.1164  0.0718
28808ION     NA48342  13.795  11.402  12.632 -0.0488  0.2309  0.1389
28809ION     NA48343   4.961  11.910  11.462  0.3433 -0.1434 -0.1187
28810ION     NA48344   2.383   8.735  11.449 -0.2123 -0.0434 -0.0924
28811ION     NA48345  10.317  10.342   5.921  0.0564  0.1073 -0.0148
28812ION     NA48346   9.910   4.688  11.541  0.0007 -0.1628  0.1935
28813ION     NA48347  17.034   5.869   1.920  0.2840  0.0399 -0.1221
28814ION     NA48348  14.329  13.534   6.124  0.0274 -0.0181  0.0776
28815ION     NA48349   3.961  14.598  11.253  0.0879  0.4208  0.1567
28816ION     NA48350  13.144  11.128   5.881 -0.0452  0.5264  0.0941
28817ION     NA48351   7.815  14.427   5.902  0.0529 -0.2445 -0.0622
28818ION     NA48352  13.771   1.262  11.510 -0.2434 -0.2169  0.1043
28819ION     NA48353   9.138  15.498  11.548  0.2813  0.2379 -0.1423
28820ION     NA48354  15.849   5.960  11.481 -0.2822  0.0759 -0.0764
28821ION     NA48355   5.041   2.187  11.081  0.1255 -0.4403 -0.0477
28822ION     NA48356   5.444  11.985  13.202 -0.2167 -0.2302 -0.0239
28823ION     NA48357   8.398  11.282   6.113  0.2382 -0.0603 -0.1745
28824ION     NA48358  15.264  15.780  11.298 -0.0259  0.0606  0.0137
28825ION     NA48359   0.429  13.005   5.214 -0.0935 -0.1062  0.2299
28826ION     NA48360  11.626  16.482  11.475 -0.1351  0.0935  0.0255
28827ION     NA48361   5.459   2.907  11.223 -0.2603 -0.0134  0.0423
28828ION     NA48362  10.692   3.412   6.146  0.2865 -0.2305 -0.3202
28829ION     NA48363   0.360  15.803   5.761  0.0059  0.0957  0.2836
28830ION     NA48364  12.083  16.151  11.568 -0.1992 -0.1106  0.1082
28831ION     NA48365  13.582   6.556  11.351  0.0635 -0.0130  0.0587
28832ION     NA48366  16.964   8.702   5.931 -0.1004  0.3031  0.1336
28833ION     NA48367   7.355   5.260  11.502 -0.1954  0.0310 -0.2924
28834ION     NA48368  15.877  12.961   4.288 -0.3191 -0.0403 -0.0357
28835ION     NA48369   6.417  12.434  11.561  0.1844  0.1329  0.2593
28836ION     NA48370  14.350   7.013  12.372  0.2199  0.3013  0.2086
28837ION     NA48371   6.097  13.485   6.148 -0.1073 -0.0230  0.2104
28838ION     NA48372   5.186  15.926  12.144  0.1220  0.1986 -0.1786
28839ION     NA48373   1.880   2.409  11.408  0.1181  0.0319  0.3050
28840ION     NA48374   0.754   7.535   5.870 -0.0007 -0.2043  0.0563
28841ION     NA48375  14.454  14.795  11.366 -0.2104 -0.1669 -0.0294
28842ION     NA48376  11.224   4.375  14.993 -0.2438 -0.1722  0.3077
28843ION     NA48377   1.211   5.655  11.517 -0.0171 -0.1039  0.0090
28844ION     NA48378  14.935   6.179   3.357  0.2088 -0.1254  0.4648
28845ION     NA48379  13.230   8.091   5.905 -0.0794 -0.2219 -0.0017
28846ION     NA48380   3.507  13.055   2.233  0.0842  0.0943 -0.2288
28847ION     NA48381  11.927   8.897   1.283  0.0227 -0.0946 -0.0246
28848ION     NA48382   0.246  11.218  11.418 -0.0386  0.0380  0.3046
28849ION     NA48383  15.264  14.449  16.785 -0.1622  0.1273 -0.2499
28850ION     NA48384   6.653  14.500  11.795  0.1050 -0.1808 -0.0926
28851ION     NA48385  15.075  16.211   5.927  0.0553  0.0092 -0.1501
28852ION     NA48386   9.573   3.805  11.510  0.1360 -0.0980  0.0855
28853ION     NA48387   0.329   0.705  11.482 -0.3661 -0.1985  0.0319
28854ION     NA48388   4.467  14.659   6.117  0.0746  0.1162 -0.0939
28855ION     NA48389  11.300   3.438   3.932 -0.0087  0.1515  0.0370
28856ION     NA48390   4.560   6.971  11.299 -0.0235 -0.0631 -0.1666
28857ION     NA48391   0.761  16.363  11.316 -0.0736  0.0166  0.1397
28858ION     NA48392  10.700  14.275  17.186 -0.0499 -0.0021  0.2515
28859ION     NA48393   6.795   1.605   0.980 -0.0980  0.0067 -0.0265
28860ION     NA48394   0.731   3.804  17.048 -0.1036 -0.0097  0.2143
28861ION     NA48395  11.001  11.650   5.865 -0.1080  0.0521 -0.0055
28862ION     NA48396   9.543  10.961   2.126 -0.0387 -0.0529 -0.0574
28863ION     NA48397  14.738  10.915   5.593 -0.0829  0.0958  0.1803
28864ION     NA48398   4.405  17.109   5.688 -0.0029  0.2518 -0.0281
28865ION     NA48399  16.849   3.659  15.741 -0.0831  0.3384  0.0435
28866ION     NA48400  14.495   7.494  11.360  0.0466 -0.0226 -0.2075
28867ION     NA48401   1.523   3.713   5.924 -0.0943  0.2905 -0.0523
28868ION     NA48402   3.865   4.720  11.288  0.0353 -0.0760 -0.1146
28869ION     NA48403  15.805   6.963  11.421 -0.2128  0.1698  0.1221
28870ION     NA48404  14.445   3.482   4.150  0.1634  0.1179 -0.2241
28871ION     NA48405   2.469  12.771  11.447 -0.0222 -0.3628 -0.3133
28872ION     NA48406  10.087  14.105  11.581  0.0342 -0.0834  0.1376
28873ION     NA48407  10.217  11.149   5.976  0.0539 -0.0375  0.0380
28874ION     NA48408   2.242   9.902  11.669  0.2903  0.3812  0.3514
28875ION     NA48409   1.919   8.079  16.420  0.0391 -0.1429 -0.1026
28876ION     NA48410  14.623   5.234   5.954 -0.0312 -0.0034  0.2930
28877ION     NA48411   2.081   4.672   3.989  0.3373 -0.3223 -0.0073
28878ION     NA48412  11.505  14.020  11.429  0.1590 -0.0075  0.0247
28879ION     NA48413  11.252   5.675  11.599  0.0633  0.0589 -0.1966
28880ION     NA48414   4.079   0.988   5.783 -0.2517 -0.1588  0.1536
28881ION     NA48415  15.936   2.016   1.161 -0.0807 -0.0316  0.0787
28882ION     NA48416  17.160   9.326  11.380 -0.3914  0.0492  0.0829
28883ION     NA48417   5.165   2.788  17.242  0.0245 -0.2647 -0.0227
28884ION     NA48418  11.225   1.556  11.994  0.2472 -0.2033  0.0351
28885ION     NA48419   5.497   4.457  11.268 -0.2612  0.3370 -0.2498
28886ION     NA48420  16.369   5.057   5.915  0.1062  0.1664  0.0657
28887ION     NA48421   0.700   8.505  11.446 -0.1920  0.0146 -0.1455
28888ION     NA48422   9.137   5.469  11.355 -0.1849  0.2561 -0.1089
28889ION     NA48423  15.304  17.035   5.997  0.1712  0.1181 -0.0335
28890ION     NA48424  14.981   1.123   5.836  0.1071  0.0824 -0.0318
28891ION     NA48425   0.210  11.551   5.691 -0.0354  0.0856  0.1816
28892ION     NA48426  13.227  12.984   3.652 -0.3477  0.2404 -0.0826
28893ION     NA48427   2.231  15.813   5.934 -0.0171  0.0056 -0.2184
28894ION     NA48428   4.822  14.152  11.461 -0.1586 -0.0731 -0.2812
28895ION     NA48429  16.457  13.656  11.418 -0.0024 -0.0095  0.0558
28896ION     NA48430  15.928  14.505   5.819 -0.2415 -0.0274 -0.0630
28897ION     NA48431   8.775   5.339   5.996 -0.0514  0.3035 -0.0963
28898ION     NA48432  10.043   6.354   4.914  0.1748  0.0332 -0.0199
28899ION     NA48433   9.493  14.285   5.554  0.0136  0.0099  0.3290
28900ION     NA48434   9.449   6.149   4.014  0.0509 -0.0203 -0.2840
28901ION     NA48435  13.899  11.565  11.299 -0.0007  0.0411  0.1808
28902ION     NA48436   8.286   7.347   6.121  0.2491  0.0862  0.0279
28903ION     NA48437   4.281  11.014   2.983  0.0618  0.0774 -0.1410
28904ION     NA48438   3.224   8.527  11.507  0.1190 -0.1751  0.1844
28905ION     NA48439   4.863   0.673  14.890 -0.0163  0.0755  0.1403
28906ION     NA48440   1.424  11.360  13.818  0.1940  0.1787  0.1754
28907ION     NA48441   3.533  10.015  11.506  0.1271 -0.0887 -0.1187
28908ION     NA48442   1.339  12.687  13.538  0.2810  0.0395 -0.1357
28909ION     NA48443   7.917   8.176   6.287  0.2161  0.1882  0.2121
28910ION     NA48444  14.027  10.549   5.919  0.2541  0.0998  0.0583
28911ION     NA48445   3.838   2.661  11.201 -0.1835  0.1344  0.0630
28912ION     NA48446  11.759  13.310  11.445  0.2482 -0.0650  0.0340
28913ION     NA48447  12.373  13.809  11.480  0.0413 -0.1325 -0.1429
28914ION     NA48448   9.247  10.610  17.273  0.2207  0.0225 -0.0292
28915ION     NA48449   8.808   6.805  11.682  0.0238  0.2129  0.1770
28916ION     NA48450  11.097  12.230  12.335 -0.2348  0.1364 -0.0824
28917ION     NA48451  13.559  15.607  15.163 -0.0277 -0.1570 -0.0641
28918ION     NA48452  15.278   3.102  11.403  0.0794  0.0565 -0.0682
28919ION     NA48453   9.556   7.991  16.199  0.0268  0.2173  0.0509
28920ION     NA48454   0.161   5.437   5.893  0.1697  0.1001 -0.4022
28921ION     NA48455   9.470   4.356   5.497 -0.2193 -0.0274 -0.1464
28922ION     NA48456   4.538   9.639   6.100 -0.0742  0.2220 -0.1187
28923ION     NA48457  16.332  11.701   5.881  0.2319 -0.0538 -0.0626
28924ION     NA48458  15.573  15.964   1.927  0.0913  0.2711  0.0692
28925ION     NA48459  10.797   8.690   6.039 -0.0993 -0.0256 -0.1410
28926ION     NA48460  14.673   0.456   5.285  0.2435 -0.1416  0.1197
28927ION     NA48461  15.907  16.347  11.425 -0.1261 -0.0082 -0.0988
28928ION     NA48462  12.459   6.488   6.028  0.0423 -0.3436  0.1174
28929ION     NA48463  12.180   2.044  11.208  0.0138  0.0930  0.1076
28930ION     NA48464  12.433   3.771  11.375 -0.3653  0.1178  0.1412
28931ION     NA48465   4.498   2.805  11.274 -0.0205  0.1218  0.2819
28932ION     NA48466   5.730   6.492  11.457 -0.1315  0.2526  0.0893
28933ION     NA48467   8.552   2.489   6.110 -0.2051  0.2124  0.1607
28934ION     NA48468  14.513  14.320   5.023  0.0424  0.3977 -0.2550
28935ION     NA48469   0.565   6.866  11.390  0.0896 -0.2413 -0.0139
28936ION     NA48470  15.006  13.065   6.145 -0.2751 -0.1511 -0.4219
28937ION     NA48471   0.294   3.395  11.349 -0.0234 -0.3403 -0.0687
28938ION     NA48472   9.185  17.220   3.055 -0.1420  0.4182 -0.0239
28939ION     NA48473   4.178   1.933   5.835 -0.0554 -0.1661 -0.1548
28940ION     NA48474   7.082   7.800   5.854  0.2581  0.2900  0.1701
28941ION     NA48475   6.241  10.962  11.570 -0.3277 -0.1673  0.2362
28942ION     NA48476  13.826  13.190   5.119 -0.1857  0.1360 -0.1881
28943ION     NA48477   5.760   8.893  11.589 -0.1958  0.1846  0.0622
28944ION     NA48478   4.402   6.108  11.438  0.4256  0.0538 -0.0560
28945ION     NA48479  11.666  12.259   6.023 -0.0061  0.0592  0.0543
28946ION     NA48480  13.929   4.924   0.521 -0.0852  0.2118  0.2088
28947ION     NA48481   6.851   4.611   0.966  0.0675 -0.3932 -0.0164
28948ION     NA48482   8.911  17.330   6.057 -0.2020 -0.0137  0.2293
28949ION     NA48483   5.503   1.147   0.023 -0.1090  0.1731 -0.1230
28950ION     NA48484  16.849   0.997  11.516  0.1537  0.1553 -0.0271
28951ION     NA48485   4.206   8.704   6.157  0.2161  0.1949  0.1637
28952ION     NA48486   2.991   2.391  11.109  0.0898 -0.0816 -0.1624
28953ION     NA48487   9.001   0.770   6.149 -0.3686 -0.1328 -0.0605
28954ION     NA48488  14.062   7.226   6.026  0.1305  0.1532  0.2825
28955ION     NA48489  16.019   3.692  11.626  0.0733 -0.1293 -0.0638
28956ION     NA48490  11.504   6.829   5.925 -0.1224  0.0282  0.0238
28957ION     NA48491   9.950  14.273   6.082 -0.0639  0.0417 -0.0568
28958ION     NA48492  12.202   8.354  11.581  0.2154 -0.2085  0.2199
28959ION     NA48493  17.233  11.061  11.330  0.1948 -0.0162  0.1521
28960ION     NA48494   2.028  13.499   5.591 -0.1078 -0.0238  0.1427
28961ION     NA48495  14.723   5.408   0.706  0.1971 -0.0100 -0.4111
28962ION     NA48496   3.483  11.470  11.533  0.1139 -0.0603 -0.2468
28963ION     NA48497  15.528  17.116  11.389  0.1431 -0.2062  0.0614
28964ION     NA48498  17.231  15.346   1.549 -0.1069 -0.1138  0.0470
28965ION     NA48499   7.445  14.278  11.483 -0.1021  0.0512  0.0683
28966ION     NA48500   1.825  10.763  11.447 -0.0852 -0.3120  0.1399
28967ION     NA48501  11.458  11.684  11.585 -0.0953 -0.0906 -0.1051
28968ION     NA48502   5.544  12.577  11.477  0.1080 -0.1281 -0.1355
28969ION     NA48503   8.999  11.118  12.606 -0.0240 -0.0059  0.0256
28970ION     NA48504   0.892  12.370  11.190  0.0015  0.5209 -0.0445
28971ION     NA48505   9.962   8.759   6.205  0.0328  0.1165 -0.0497
28972ION     NA48506  15.937   8.444   4.551  0.2723  0.2230  0.1472
28973ION     NA48507   0.352   7.657  11.390  0.0108  0.2204 -0.1788
28974ION     NA48508  11.692   6.373  11.722 -0.0328 -0.3084 -0.1194
28975ION     NA48509  12.473   0.590   0.041 -0.2226 -0.0374 -0.3370
28976ION     NA48510   7.666   9.153   6.175  0.1610  0.0143  0.1069
28977ION     NA48511  13.552   2.698   5.927 -0.0462 -0.1813 -0.0400
28978ION     NA48512   9.568   9.711   0.718  0.1410 -0.0120 -0.0016
28979ION     NA48513  13.612  13.256  11.582 -0.0859 -0.1382 -0.2323
28980ION     NA48514  13.695   1.762   5.939 -0.0755 -0.0091  0.0514
28981ION     NA48515  15.809  13.314   5.187  0.1834 -0.1422  0.0421
28982ION     NA48516   6.022   7.626   5.892  0.2525  0.0370  0.0694
28983ION     NA48517   2.191   3.049   5.943 -0.2255  0.0941  0.5643
28984ION     NA48518   1.623  14.188  15.769  0.3249  0.3703 -0.1452
28985ION     NA48519   0.259   5.718  11.313  0.1265  0.0591  0.0161
28986ION     NA48520   3.407   5.922   5.895 -0.1868  0.0615  0.0383
28987ION     NA48521  14.423   2.779   6.107 -0.2078  0.0454  0.4029
28988ION     NA48522  14.540  13.645  11.290 -0.0152  0.1998  0.0916
28989ION     NA48523   7.147   9.370   4.314  0.1474  0.4355  0.0435
28990ION     NA48524   8.304  15.754  13.531  0.2307 -0.1366 -0.1637
28991ION     NA48525  12.966  16.690   5.981  0.0976 -0.0903 -0.1635
28992ION     NA48526   8.410  11.998  11.864 -0.2545  0.0935  0.2090
28993ION     NA48527  15.959   2.183  11.318  0.1177  0.0960  0.2936
28994ION     NA48528   6.304   4.878  12.214  0.0687  0.1152  0.0204
28995ION     NA48529   7.718  10.004  11.723  0.2211  0.0039 -0.0729
28996ION     NA48530   9.688   6.743   2.772  0.2533  0.1639  0.1667
28997ION     NA48531   7.884  15.648  14.551  0.1272 -0.3852  0.2080
28998ION     NA48532   7.569  14.872   5.772  0.1213  0.0730  0.0034
28999ION     NA48533   7.972  16.035  11.513 -0.0094  0.1591 -0.3034
29000ION     NA48534   9.255   2.001  11.532  0.1606 -0.0804 -0.0472
29001ION     NA48535   4.029   0.303   4.572 -0.1543 -0.0024  0.3038
29002ION     NA48536   6.603  10.784   6.140 -0.2726 -0.1186 -0.1460
29003ION     NA48537  13.553   5.163   4.015  0.0522  0.0887 -0.0508
29004ION     NA48538   8.787  13.913   4.389 -0.0402 -0.0827  0.0600
29005ION     NA48539   1.069   9.678   3.379 -0.1579 -0.1135  0.4528
29006ION     NA48540   8.734  17.185  11.384 -0.1279 -0.1400 -0.1062
29007ION     NA48541   9.038   8.017  14.836 -0.1867  0.2773 -0.1603
29008ION     NA48542   7.426  14.524   0.576  0.0780  0.1255  0.1763
29009ION     NA48543   1.169  15.835   4.856 -0.1150 -0.1935 -0.1722
29010ION     NA48544   2.904   3.221  11.235  0.1326  0.0475 -0.4045
29011ION     NA48545   1.826  10.503  13.634 -0.1072  0.1536 -0.4041
29012ION     NA48546   9.467   2.171  13.543 -0.0721  0.0708  0.1034
29013ION     NA48547   2.329  15.936  11.135 -0.1415  0.0840  0.3168
29014ION     NA48548   0.345   6.775  11.846  0.0794  0.1339 -0.0525
29015ION     NA48549   9.458   7.540   3.496  0.2592  0.0086 -0.2799
29016ION     NA48550   1.944   0.206  11.095  0.1985  0.1320  0.1806
29017ION     NA48551  12.359   8.416  13.571 -0.1601  0.1125 -0.0151
29018ION     NA48552   8.030  10.384   6.449 -0.1825 -0.4143 -0.2508
29019ION     NA48553  13.808  14.222  11.491  0.1777 -0.0453 -0.1915
29020ION     NA48554   2.342   5.137   6.147  0.1360 -0.0005  0.3851
29021ION     NA48555   6.346   3.917  11.177 -0.2195 -0.1446 -0.3803
29022ION     NA48556  14.278  15.719  11.541  0.4500  0.1347  0.3001
29023ION     NA48557  12.933  14.126   6.001  0.1062 -0.1180  0.0078
29024ION     NA48558   6.440   9.717   4.467  0.0884 -0.2421 -0.0050
29025ION     NA48559   9.096   9.148  11.588 -0.0594 -0.3625 -0.0151
29026ION     NA48560  15.764   5.450  11.533 -0.0740 -0.3116 -0.2073
29027ION     NA48561  11.815   1.893   5.911 -0.1599 -0.0301 -0.1888
29028ION     NA48562   5.426   2.517   2.762 -0.1208 -0.1217 -0.0598
29029ION     NA48563  12.511   6.702  11.367  0.1628 -0.1885 -0.0739
29030ION     NA48564  12.624  13.006  11.407  0.0297  0.2222  0.0157
29031ION     NA48565   1.076  11.477   5.890 -0.0283 -0.1739 -0.0984
29032ION     NA48566  16.929   5.026  12.305 -0.2641 -0.1136 -0.0840
29033ION     NA48567   6.861  15.503  11.429 -0.1012 -0.0151  0.5364
29034ION     NA48568   5.699   6.765   6.082 -0.1541 -0.0142 -0.1677
29035ION     NA48569   1.519  16.194  11.048  0.1146 -0.2117 -0.1313
29036ION     NA48570   2.753  17.471  11.067 -0.1133  0.0880  0.0413
29037ION     NA48571   0.864   8.663   5.933 -0.1553  0.0066 -0.0757
29038ION     NA48572  12.985   9.039   1.331  0.2516  0.0400 -0.1749
29039ION     NA48573   8.759   3.706  11.350 -0.1419 -0.2510 -0.1069
29040ION     NA48574  11.395  17.191   5.716  0.3484 -0.3991  0.1680
29041ION     NA48575   2.986  16.607  11.052  0.1318  0.3235  0.0456
29042ION     NA48576  14.895   0.417  16.205  0.1772  0.0952 -0.1719
29043ION     NA48577  11.921  14.352   6.071  0.2922  0.0285 -0.2827
29044ION     NA48578  12.966   1.058   5.860 -0.0479  0.0635 -0.1704
29045ION     NA48579  16.392   9.609  11.247  0.0674  0.0716 -0.0458
29046ION     NA48580   3.092  10.357   5.968  0.0718  0.0057 -0.1705
29047ION     NA48581  12.707   1.433  11.438 -0.1858 -0.1078 -0.3608
29048ION     NA48582   1.313  12.949   5.742  0.3045  0.0960  0.1558
29049ION     NA48583   0.186   8.059   5.774 -0.2893  0.1294 -0.2271
29050ION     NA48584  17.270   2.657  11.467 -0.1790 -0.2636 -0.2207
29051ION     NA48585   2.893  16.390   5.493  0.0616 -0.1673  0.4561
29052ION     NA48586  15.018   3.881  11.404  0.0592  0.1713  0.2263
29053ION     NA48587   3.069   2.527  16.027 -0.0221  0.1398 -0.3109
29054ION     NA48588  15.656  10.018   5.984 -0.2368  0.1711  0.2054
29055ION     NA48589   8.802  14.769  11.357 -0.2832 -0.1342  0.0652
29056ION     NA48590  10.052  11.955   5.815 -0.5121  0.2337 -0.2600
29057ION     NA48591   7.856   0.893   1.970 -0.2540 -0.0663  0.1930
29058ION     NA48592   7.946   5.225  11.594  0.1202 -0.0840  0.2731
29059ION     NA48593  14.286  11.606  13.458 -0.0228  0.0173 -0.1806
29060ION     NA48594   6.514   1.117   5.914 -0.0536 -0.1510 -0.0120
29061ION     NA48595   1.818   8.395   5.977  0.1823  0.0818 -0.1044
29062ION     NA48596  17.425  15.732  11.570  0.0233  0.2625 -0.0210
29063ION     NA48597  16.519  13.823   5.555 -0.1054  0.1348  0.1878
29064ION     NA48598  14.324  16.316   3.086 -0.0926 -0.2650  0.0482
29065ION     NA48599  14.914   7.748   5.861  0.0661 -0.0389 -0.0111
29066ION     NA48600   3.637   5.255   1.490 -0.0083 -0.0115 -0.1793
29067ION     NA48601  12.948  14.511  11.487 -0.0496  0.0182 -0.1721
29068ION     NA48602  16.520   6.988   5.735  0.0366 -0.1349 -0.3360
29069ION     NA48603  12.605  16.469  12.970 -0.2639 -0.2971  0.2002
29070ION     NA48604  16.173  10.161  11.812 -0.1202  0.0591 -0.0418
29071ION     NA48605   0.341  12.298  12.167 -0.2589  0.1149 -0.0237
29072ION     NA48606   0.607   2.295   6.014 -0.0674  0.0504 -0.1321
29073ION     NA48607   0.620   4.883  11.304  0.1651 -0.1387 -0.1689
29074ION     NA48608  17.247   4.642   6.041 -0.1155  0.0542 -0.2505
29075ION     NA48609   1.357   6.636   0.842 -0.0108 -0.0049  0.1346
29076ION     NA48610   4.124  10.370   6.144 -0.3233  0.0152  0.1111
29077ION     NA48611  10.733  16.018  11.194  0.0645 -0.0759  0.2703
29078ION     NA48612   1.112  13.861   5.800 -0.1735  0.0309  0.3290
29079ION     NA48613   4.925   3.711   6.011  0.1373  0.1030  0.1764
29080ION     NA48614  12.789   7.660  11.917  0.0861 -0.0609  0.0908
29081ION     NA48615  15.980   1.557  14.290  0.0038  0.0441  0.0227
29082ION     NA48616   9.054  12.507  11.574 -0.0750 -0.0353 -0.0487
29083ION     NA48617   9.729  14.925  11.267 -0.0090  0.1184  0.0076
29084ION     NA48618  14.570   1.835  11.443 -0.2930  0.1640  0.0728
29085ION     NA48619   2.422   7.935  17.265  0.2303 -0.1268 -0.0622
29086ION     NA48620  16.577   0.852  13.844  0.0543 -0.0593 -0.1113
29087ION     NA48621   9.942  13.431   3.224 -0.0236 -0.0247 -0.2105
29088ION     NA48622  17.302   5.080  11.377  0.2308  0.0217  0.5713
29089ION     NA48623  14.228  12.058  11.231  0.2269  0.1581  0.1166
29090ION     NA48624   5.051   2.026   5.828  0.1269 -0.1096  0.0955
29091ION     NA48625   7.122  16.402  11.457  0.0569 -0.1447 -0.0820
29092ION     NA48626  11.365   3.622  11.602  0.5289  0.2264  0.0503
29093ION     NA48627  15.342   7.809  11.418 -0.2619 -0.0850 -0.0293
29094ION     NA48628  14.282  10.258  13.727 -0.1884 -0.1007  0.0620
29095ION     NA48629  13.322   9.744  14.767 -0.2995  0.0383  0.3097
29096ION     NA48630   4.406  11.174  11.516  0.0612 -0.1236 -0.1073
29097ION     NA48631  10.546   3.208  15.090 -0.0417 -0.3462 -0.0936
29098ION     NA48632   9.141   9.437  12.157  0.2745 -0.1556  0.0082
29099ION     NA48633   5.516   4.296   5.944 -0.0771  0.2406  0.2057
29100ION     NA48634   7.605  13.031   5.402  0.3574  0.1909 -0.2685
29101ION     NA48635   4.079   1.180  11.093 -0.1532  0.0472 -0.2468
29102ION     NA48636  11.085  10.008  11.566 -0.0028 -0.0138  0.0531
29103ION     NA48637   8.971   6.289   6.120  0.2126 -0.1245 -0.1847
29104ION     NA48638   3.153   8.345   5.095  0.2913 -0.1298 -0.0067
29105ION     NA48639   9.706   3.631   1.236 -0.2175 -0.2828  0.1238
29106ION     NA48640   0.798  10.615   6.005 -0.1952  0.1312 -0.4200
29107ION     NA48641   3.014   5.639   5.782 -0.1397 -0.0852 -0.2499
29108ION     NA48642  17.358  13.467  11.308 -0.2057  0.1939  0.2018
29109ION     NA48643  17.403  10.309   5.891 -0.0416  0.1786 -0.4118
29110ION     NA48644  16.318  10.977  11.459 -0.3136  0.1811  0.3237
29111ION     NA48645  10.676  10.753  11.464  0.1116 -0.1123  0.0143
29112ION     NA48646  15.964  16.536  14.191 -0.1307 -0.1546 -0.2859
29113ION     NA48647   8.538   4.251   5.925  0.1047  0.0244 -0.3102
29114ION     NA48648   7.715   5.736   2.255  0.1461  0.0992 -0.1393
29115ION     NA48649   9.563  15.562  11.231 -0.0913  0.1310 -0.1453
29116ION     NA48650  13.032   7.551  11.393 -0.0250  0.0766  0.1106
29117ION     NA48651   7.152   4.817   6.051  0.2271  0.4232  0.0572
29118ION     NA48652   3.750   8.060   5.743  0.1058  0.1530 -0.2436
29119ION     NA48653   2.759  11.098  11.809 -0.0565  0.0532  0.0644
29120ION     NA48654   6.633   2.265   5.682  0.2878  0.2040  0.0840
29121ION     NA48655  15.533   4.901   5.796 -0.0246 -0.0419  0.2328
29122ION     NA48656   5.827   0.526   5.962 -0.2890 -0.0552 -0.0852
29123ION     NA48657   4.361   8.212   3.783 -0.0186 -0.1032  0.1613
29124ION     NA48658   9.771   6.309   6.001 -0.1911 -0.0547  0.1436
29125ION     NA48659   0.461  10.359  11.468  0.2304  0.4441 -0.0797
29126ION     NA48660  13.939   3.429   6.157 -0.2930 -0.1193 -0.2762
29127ION     NA48661   9.259   3.122   6.013 -0.1744 -0.0572 -0.1151
29128ION     NA48662   4.328  13.862   5.910  0.0346 -0.2621 -0.1691
29129ION     NA48663   0.207   3.345   2.065 -0.0822  0.1307  0.1332
29130ION     NA48664   2.249   4.059   5.948 -0.0531  0.2834 -0.0418
29131ION     NA48665   1.584   9.117  11.730 -0.0593 -0.1371 -0.0093
29132ION     NA48666   2.748  13.187   3.357  0.1379 -0.1160 -0.0014
29133ION     NA48667  11.798   5.489   0.892 -0.0526 -0.0991  0.0740
29134ION     NA48668   8.232   8.568  16.325  0.2121 -0.3878 -0.1248
29135ION     NA48669   9.725   0.451   2.408 -0.2097  0.2102 -0.2855
29136ION     NA48670   3.133   5.467  11.427 -0.0524 -0.0649 -0.3840
29137ION     NA48671   6.840   2.350  11.113  0.0962  0.1512 -0.1242
29138ION     NA48672   6.490   9.728  14.717 -0.2796  0.2666 -0.0734
29139ION     NA48673  14.024   4.316   3.982  0.0327 -0.1916 -0.0870
29140ION     NA48674   2.823  12.802   5.696 -0.0948 -0.2222  0.0035
29141ION     NA48675  11.652   1.607   0.524 -0.2135  0.2212  0.0168
29142ION     NA48676   0.071  12.548  11.311 -0.1769 -0.0569 -0.1550
29143ION     NA48677  11.120  12.900   5.891  0.0566 -0.0192  0.2367
29144ION     NA48678   4.633   9.052   0.265  0.0376 -0.2125 -0.0901
29145ION     NA48679   8.021  15.198  11.522 -0.1216 -0.0672  0.0353
29146ION     NA48680  10.045  16.638  11.445  0.1958  0.1530 -0.2048
29147ION     NA48681   8.046  10.666  17.277  0.0497 -0.1003 -0.0021
29148ION     NA48682   0.703  14.725  14.567  0.2134 -0.1941 -0.2554
29149ION     NA48683   5.981   2.214  11.287  0.0822 -0.2458 -0.0463
29150ION     NA48684  10.656  16.908   5.391 -0.0685 -0.0151 -0.0962
29151ION     NA48685  14.628  17.316  11.369 -0.3575 -0.1543 -0.0295
29152ION     NA48686   7.837  13.912   2.492 -0.0685 -0.2687  0.0071
29153ION     NA48687  10.796  10.293   4.998 -0.0523  0.1599 -0.2942
29154ION     NA48688  16.207   0.467  11.404 -0.0300 -0.1560 -0.0775
29155ION     NA48689  16.631   6.341  11.292  0.2810 -0.2411  0.0763
29156ION     NA48690  10.515   6.611  13.241 -0.1405 -0.1041  0.4120
29157ION     NA48691   6.010  12.536  14.365  0.3383  0.1873  0.1085
29158ION     NA48692   9.543   5.684   6.040 -0.3451 -0.0146  0.0557
29159ION     NA48693   3.684  17.107  11.031  0.0602 -0.2090 -0.2338
29160ION     NA48694   0.130   7.706  12.448 -0.0162  0.2249  0.3270
29161ION     NA48695  17.071   2.313   5.981  0.0708 -0.0306 -0.0893
29162ION     NA48696   0.128   0.280   1.327  0.2374  0.2140 -0.2355
29163ION     NA48697   2.565   7.934   6.111 -0.0389 -0.0964 -0.1222
29164ION     NA48698   9.928  11.126  11.667 -0.1420 -0.0792  0.3687
29165ION     NA48699   7.144  15.457   4.511  0.2527 -0.1620 -0.0122
29166ION     NA48700   8.250  12.744  11.457 -0.1243 -0.2924  0.3899
29167ION     NA48701   2.952  15.130  13.998  0.1689  0.0796  0.0174
29168ION     NA48702   7.601  17.192   6.045  0.0457  0.0109 -0.2246
29169ION     NA48703   8.180   8.308  11.702 -0.0165  0.0346 -0.0010
29170ION     NA48704   4.707   6.634   5.988 -0.1161 -0.2538  0.1451
29171ION     NA48705   7.738   1.025  12.530  0.1412  0.1444  0.0805
29172ION     NA48706   4.733   9.241  15.333  0.0668  0.2824 -0.0333
29173ION     NA48707  16.600  12.536   5.797  0.1885  0.0880 -0.0357
29174ION     NA48708  12.869  12.193   1.925  0.3653  0.2338  0.2430
29175ION     NA48709  12.031  10.934  11.825 -0.2994 -0.1022 -0.0521
29176ION     NA48710  14.144  15.196   5.854 -0.4223 -0.0336  0.1736
29177ION     NA48711   3.215   4.945   6.089 -0.0089  0.0209 -0.3446
29178ION     NA48712   3.486  12.317   6.008 -0.0116 -0.3207  0.1671
29179ION     NA48713   3.334   8.215   6.025 -0.1497 -0.0187  0.0396
29180ION     NA48714  15.223   0.475  11.554  0.0605 -0.0617 -0.3525
29181ION     NA48715   7.042  14.068   5.928 -0.1742  0.1045  0.0314
29182ION     NA48716   3.999   5.278   6.082  0.1887 -0.1578 -0.0984
29183ION     NA48717   2.448   4.075  11.373 -0.2857  0.1107  0.0854
29184ION     NA48718  17.121   6.334   5.744  0.2338  0.0020  0.3469
29185ION     NA48719   5.755   8.449   6.023  0.2633 -0.1402  0.1736
29186ION     NA48720  11.503   1.913  11.277  0.0236 -0.1662 -0.1172
29187ION     NA48721   6.920  12.085   4.144  0.1000 -0.0116 -0.3327
29188ION     NA48722   3.632   2.816  12.133 -0.3097  0.1302  0.3392
29189ION     NA48723   1.922  11.503   5.808 -0.0708  0.1339 -0.1536
29190ION     NA48724  17.441  14.035  11.219  0.0815  0.1774 -0.1541
29191ION     NA48725  12.471   4.840   6.223  0.0589  0.0853  0.1686
29192ION     NA48726   1.424   7.080   6.140  0.1095 -0.2017  0.1586
29193ION     NA48727   7.362   8.296  11.581  0.1118 -0.0447  0.1921
29194ION     NA48728   6.345  16.057   5.823  0.0728 -0.1518 -0.1177
29195ION     NA48729   3.041   6.478  16.424 -0.2158 -0.0156  0.1283
29196ION     NA48730  14.479  12.548   5.895  0.2512  0.0211 -0.2923
29197ION     NA48731   2.312  13.574  11.318 -0.4414 -0.0675 -0.2583
29198ION     NA48732  13.863   9.680   6.054 -0.1647  0.0884  0.3003
29199ION     NA48733  11.498   2.846  11.362  0.1130  0.2595 -0.1207
29200ION     NA48734   4.891   5.656   5.808  0.3869 -0.2097 -0.1663
29201ION     NA48735   5.260   0.463  11.400 -0.1013  0.1401  0.1831
29202ION     NA48736  14.794   3.659   6.030 -0.1093 -0.1446 -0.0839
29203ION     NA48737   0.934  10.839  15.960 -0.2009  0.0040 -0.1919
29204ION     NA48738   2.305   0.135   5.599 -0.0276  0.2038  0.1836
29205ION     NA48739  17.255   9.986  11.546 -0.2112  0.1235  0.0203
29206ION     NA48740  12.369   4.111   5.025 -0.1200 -0.2136  0.0951
29207ION     NA48741   4.639   2.780   5.987  0.2260  0.2738  0.0250
29208ION     NA48742  15.301   1.507  11.445  0.0540 -0.1459 -0.1715
29209ION     NA48743   6.469   6.430   5.988 -0.4276  0.2861 -0.1116
29210ION     NA48744   1.864   4.136  11.557  0.0147 -0.0812 -0.3443
29211ION     NA48745  12.972   3.362   6.015  0.0475  0.1704  0.2605
29212ION     NA48746   7.144   5.658   4.282  0.0069 -0.2704 -0.0250
29213ION     NA48747   3.140   4.368   0.362 -0.1270  0.5031  0.0252
29214ION     NA48748   0.300   3.075  14.350  0.3917  0.0196  0.0709
29215ION     NA48749  12.850   8.091   6.212 -0.3065  0.1840  0.1340
29216ION     NA48750  15.925   1.091  11.514 -0.0451 -0.0139 -0.1217
29217ION     NA48751   9.831   8.823  13.267 -0.2609 -0.1487 -0.2210
29218ION     NA48752  11.155  16.198  11.409 -0.1424  0.1581  0.2572
29219ION     NA48753   1.173   5.541   6.078  0.2033  0.0398 -0.0888
29220ION     NA48754  11.478   4.129  11.352 -0.0245 -0.3047 -0.4208
29221ION     NA48755   5.003   8.870   6.236  0.2948  0.0675  0.0648
29222ION     NA48756  14.342  10.809  11.373 -0.1272  0.1572 -0.1996
29223ION     NA48757   1.377  10.044  11.619 -0.1631  0.1115 -0.1931
29224ION     NA48758  15.074   1.257   0.110 -0.0428  0.0592 -0.0308
29225ION     NA48759  13.046   8.400  11.381 -0.1842  0.1200 -0.0477
29226ION     NA48760   1.582  11.068   4.923  0.0303 -0.0589  0.0671
29227ION     NA48761  12.611  12.050  11.385  0.1547  0.0271 -0.2393
29228ION     NA48762   0.367   3.575  11.865 -0.2184  0.3892 -0.1430
29229ION     NA48763  12.114   0.511  11.464  0.1309  0.0098  0.2186
29230ION     NA48764  16.754   0.367   5.900  0.0479 -0.2573  0.0997
29231ION     NA48765   9.047  14.513   6.058 -0.4473  0.2163 -0.0893
29232ION     NA48766  14.224  15.117   1.781 -0.0558  0.1263 -0.0395
29233ION     NA48767  13.127  15.815   5.763  0.1129 -0.3923 -0.2580
29234ION     NA48768  16.980  11.900  11.318 -0.1286  0.4610 -0.1136
29235ION     NA48769   0.730  16.020  11.696  0.3578  0.1795 -0.1618
29236ION     NA48770  11.345  14.046   0.481 -0.0521 -0.2110  0.2684
29237ION     NA48771   0.730  10.220  13.446  0.0459  0.0161 -0.0014
29238ION     NA48772   4.398   7.379   6.044 -0.2660 -0.1277 -0.0323
29239ION     NA48773   6.794   6.929   3.064  0.5428  0.1586 -0.0975
29240ION     NA48774   2.033   9.292   5.951 -0.1248 -0.2613 -0.1151
29241ION     NA48775   0.853   1.175  11.061 -0.0637 -0.2336  0.2446
29242ION     NA48776   0.911  11.421   1.838 -0.0266  0.2261 -0.0240
29243ION     NA48777   2.755   2.616  12.799  0.0315  0.1050 -0.0536
29244ION     NA48778   6.440   9.867   6.012  0.2071  0.1186 -0.0016
29245ION     NA48779  15.140   8.504  16.548 -0.1483 -0.1832  0.0597
29246ION     NA48780  13.310  14.106   0.924  0.1745  0.2676  0.0441
29247ION     NA48781   9.930  15.246   0.444 -0.0837 -0.0197  0.0733
29248ION     NA48782  11.942   9.617  11.337  0.1184 -0.0897 -0.0698
29249ION     NA48783   2.542   4.598   6.108 -0.1841  0.2089 -0.1111
29250ION     NA48784   8.155  10.283  11.579  0.1358 -0.2564 -0.0309
29251ION     NA48785   8.156   0.802  11.742  0.0405 -0.0274 -0.2442
29252ION     NA48786  12.816   9.714   5.996 -0.2770  0.0900  0.0323
29253ION     NA48787   5.221  10.990  11.512 -0.0172 -0.1677  0.0370
29254ION     NA48788   0.636   9.480  11.667  0.0600 -0.1167 -0.0990
29255ION     NA48789  16.276   5.808   5.745  0.0756  0.0805 -0.0328
29256ION     NA48790   4.238   1.221   4.612  0.1806  0.1581 -0.4353
29257ION     NA48791   3.194   4.562  11.170  0.0134  0.0029 -0.0714
29258ION     NA48792   9.402   0.335  11.481 -0.1242  0.1946 -0.0444
29259ION     NA48793   1.824  12.196  11.222 -0.0244  0.0464  0.0249
29260ION     NA48794   9.399   2.205   6.181  0.0848 -0.3454 -0.1807
29261ION     NA48795  16.740   4.795  17.014  0.0985  0.1923  0.3071
29262ION     NA48796  11.956  11.506   2.129  0.0199 -0.0677  0.2287
29263ION     NA48797  11.325   8.505  11.617  0.4456  0.3021 -0.0708
29264ION     NA48798  16.724  16.108  11.327  0.0143  0.0947  0.1335
29265ION     NA48799   1.733   8.269  11.418  0.0787 -0.0502 -0.0597
29266ION     NA48800  13.263   9.713  12.492 -0.0600  0.0431  0.1311
29267ION     NA48801  11.993   3.297   5.831 -0.1550  0.2501  0.0451
29268ION     NA48802   5.883  10.437   6.179  0.1164  0.0705 -0.1099
29269ION     NA48803   8.484  12.879   6.059  0.2132  0.5097 -0.0601
29270ION     NA48804  11.562  10.260  11.374  0.0891  0.0500 -0.1945
29271ION     NA48805  13.222  13.544  11.238  0.2539 -0.1327 -0.1372
29272ION     NA48806   2.383   5.412   5.214 -0.0966 -0.0661 -0.0593
29273ION     NA48807   5.587   1.130   5.695  0.0734  0.3723 -0.1701
29274ION     NA48808  11.197   9.377   5.748  0.4291 -0.4434 -0.1255
29275ION     NA48809  16.201   2.549   6.016  0.0896 -0.0209 -0.4140
29276ION     NA48810   7.803   5.470   6.185  0.1446 -0.0421 -0.1494
29277ION     NA48811  10.961  12.309  11.400 -0.2161 -0.2151 -0.0995
29278ION     NA48812   5.111   7.571  16.566 -0.0298  0.2794 -0.3044
29279ION     NA48813   6.014  13.641   4.198 -0.0828  0.0728 -0.0361
29280ION     NA48814  12.128   5.686  11.523 -0.0593  0.1578 -0.1233
29281ION     NA48815   5.491   3.856  11.409 -0.0428 -0.2846 -0.3635
29282ION     NA48816   9.576   7.051  11.606  0.1944  0.1341  0.2741
29283ION     NA48817   0.640   4.163   5.997 -0.2099  0.0262 -0.2166
29284ION     NA48818   9.285  12.644   5.959 -0.0748  0.2181  0.4551
29285ION     NA48819   6.860   5.261  11.319  0.0356 -0.2207 -0.0146
29286ION     NA48820  15.314  10.429  11.297  0.0242  0.3515  0.1013
29287ION     NA48821  16.022  15.417  11.441  0.2360  0.0236  0.2596
29288ION     NA48822   4.042   3.591   1.073 -0.2139  0.2714 -0.2383
29289ION     NA48823   5.021  11.115  16.486  0.0975 -0.1994  0.2206
29290ION     NA48824  10.023   0.822   5.898  0.1729  0.0863  0.1191
29291ION     NA48825  12.800   0.623   4.183  0.0314  0.1308 -0.2674
29292ION     NA48826   5.217  17.128   5.722 -0.0743 -0.0560  0.0432
29293ION     NA48827  12.810   7.345  17.252 -0.2199  0.0263  0.0657
29294ION     NA48828   0.406  13.388   5.653 -0.0696 -0.0712  0.1046
29295ION     NA48829  15.800   6.647   5.832  0.0957  0.3505 -0.0455
29296ION     NA48830  16.213  15.835   5.849 -0.0231  0.1483 -0.1042
29297ION     NA48831   8.047   6.186  11.750  0.1150  0.3683 -0.0489
29298ION     NA48832   5.255  11.560   5.972  0.2245  0.1999 -0.1543
29299ION     NA48833  11.761  16.288  15.387  0.0746 -0.0696 -0.1387
29300ION     NA48834  11.855   4.622   5.941  0.0684  0.0641 -0.0045
29301ION     NA48835  14.605   6.623   0.551 -0.0242 -0.1092 -0.4117
29302ION     NA48836   2.293   7.676  11.529  0.1242 -0.0020  0.0629
29303ION     NA48837  12.298  15.296  15.440 -0.0611  0.1464  0.1112
29304ION     NA48838   4.784  15.496   0.497 -0.0175 -0.2208 -0.4230
29305ION     NA48839   2.973  13.859  13.030 -0.0550 -0.2070  0.0302
29306ION     NA48840   7.414   1.708   6.024  0.0547 -0.2021 -0.0381
29307ION     NA48841  13.392   0.087   5.820  0.0361 -0.0666  0.0308
29308ION     NA48842  14.933  13.895   5.877  0.0871  0.0915 -0.0587
29309ION     NA48843  13.101  10.600   5.973  0.2280 -0.2773 -0.2643
29310ION     NA48844   5.782   0.273   1.935  0.0263 -0.3513  0.1400
29311ION     NA48845  15.376  13.443  12.479  0.1085 -0.1506 -0.1540
29312ION     NA48846  13.907   8.781  11.513  0.0599  0.0485  0.0118
29313ION     NA48847   4.645  12.434   1.172 -0.0134  0.1553  0.1860
29314ION     NA48848   1.196   9.229   2.209 -0.0933  0.2420 -0.2591
29315ION     NA48849  10.609   4.381   5.816 -0.0326  0.1885 -0.0141
29316ION     NA48850   1.866  15.250  11.180 -0.0180 -0.2325  0.0506
29317ION     NA48851   4.743   4.871   5.946  0.0377  0.0536 -0.0255
29318ION     NA48852  11.911   3.903   0.456  0.1182  0.1539 -0.1369
29319ION     NA48853  17.201  16.341  17.189 -0.2481  0.0914  0.0382
29320ION     NA48854   0.783  14.619  11.203 -0.0307 -0.0448 -0.2315
29321ION     NA48855  17.344   6.605  13.515  0.0222 -0.1717  0.3597
29322ION     NA48856   2.707  15.167  15.402  0.2938  0.3434  0.1560
29323ION     NA48857  10.992   4.228   6.151 -0.1420  0.0277  0.1693
29324ION     NA48858  11.552  15.826  14.374  0.1160 -0.0018  0.1170
29325ION     NA48859  16.387   4.112   5.835  0.0449  0.1304 -0.1850
29326ION     NA48860   7.760   0.064  12.309  0.0759 -0.0792 -0.1974
29327ION     NA48861  15.860  13.037  11.294  0.0181 -0.0894 -0.1123
29328ION     NA48862   9.599  10.893   0.613  0.0435  0.1177  0.1687
29329ION     NA48863   8.771   3.689  11.855  0.0734  0.2460  0.2449
29330ION     NA48864   9.004   9.723  13.691 -0.0616  0.0658 -0.0387
29331ION     NA48865   1.621   2.251   6.033 -0.4687  0.0451  0.0084
29332ION     NA48866   8.488  15.057   5.971 -0.1223 -0.2171  0.2754
29333ION     NA48867  16.556  10.140   6.004 -0.1064  0.0228 -0.3122
29334ION     NA48868   2.980   7.247   6.046  0.0269 -0.0492  0.0682
29335ION     NA48869   3.444   1.612  11.400  0.0522 -0.1847 -0.2254
29336ION     NA48870   3.132  14.843  10.948  0.1536 -0.0860 -0.0501
29337ION     NA48871   5.486   2.959   5.828 -0.2260 -0.2898 -0.1275
29338ION     NA48872  13.324   2.225  12.519  0.1075  0.1174  0.3832
29339ION     NA48873  10.244   0.169  11.498 -0.2875  0.0810 -0.0979
29340ION     NA48874   6.195  12.797   6.082  0.0254  0.1583 -0.0122
29341ION     NA48875   3.178  11.809  13.329 -0.2056 -0.0783 -0.0143
29342ION     NA48876   7.099  12.440   6.025 -0.4332  0.2338 -0.1449
29343ION     NA48877   2.234   1.448   2.994 -0.2359 -0.0777 -0.2894
29344ION     NA48878  13.094  10.144  11.474 -0.0211  0.0749 -0.2261
29345ION     NA48879  15.006   9.528  11.336 -0.0344  0.0398 -0.1701
29346ION     NA48880  11.339   7.651  11.513  0.1968 -0.3516 -0.1002
29347ION     NA48881   9.811   7.953  11.627  0.1644 -0.0685 -0.0877
29348ION     NA48882   1.695  11.713  11.487  0.2230  0.1801 -0.0828
29349ION     NA48883   0.879  11.981   5.114 -0.2343  0.1436  0.0666
29350ION     NA48884   8.320   3.347   5.896 -0.0082  0.0230 -0.1800
29351ION     NA48885   2.735  15.011  11.263 -0.1263  0.2014 -0.0613
29352ION     NA48886  17.408   5.324   4.696  0.0258 -0.0859  0.0328
29353ION     NA48887  11.119  17.263  11.412 -0.3721 -0.0214  0.3696
29354ION     NA48888   7.169   5.386   1.193  0.0346 -0.1065 -0.1877
29355ION     NA48889  15.071  16.291  11.429  0.2331  0.1011  0.2053
29356ION     NA48890   6.308   6.167  11.410 -0.0116 -0.0685 -0.0351
29357ION     NA48891   4.736  10.318  13.535 -0.1869  0.0519 -0.0468
29358ION     NA48892   5.757   5.942   5.907 -0.0418  0.2622  0.1387
29359ION     NA48893   6.354  13.746  11.370  0.1252  0.2268 -0.1337
29360ION     NA48894   8.894  11.248   5.155 -0.0196 -0.0702  0.0574
29361ION     NA48895  11.552   3.391  14.907  0.2856 -0.0876  0.0581
29362ION     NA48896  15.482   1.745   5.907  0.1410 -0.2218 -0.1531
29363ION     NA48897  11.486   1.567   5.846  0.2402 -0.1220 -0.1130
29364ION     NA48898   1.633  14.671   0.696  0.0293 -0.1918 -0.3144
29365ION     NA48899  13.928  10.598   3.036 -0.0679  0.2347 -0.2054
29366ION     NA48900  10.853   4.337  11.737 -0.0689  0.0755 -0.2053
29367ION     NA48901  17.167   9.504   5.982 -0.0713  0.0813 -0.0730
29368ION     NA48902   9.908   7.432   6.303  0.2097  0.0366 -0.1354
29369ION     NA48903  10.220   5.358   5.878 -0.1285 -0.0915 -0.3317
29370ION     NA48904   2.767  11.849   5.803  0.2108 -0.1754 -0.0399
29371ION     NA48905   3.753  14.610   5.981 -0.3338 -0.0617  0.1075
29372ION     NA48906   7.250   0.353   5.942 -0.2638  0.1572 -0.2112
29373ION     NA48907  15.610   0.238   5.304 -0.1454  0.0637 -0.0984
29374ION     NA48908  13.876  12.159   0.902 -0.0048  0.0957  0.1307
29375ION     NA48909  11.694   4.613   3.948 -0.0438  0.1962  0.2042
29376ION     NA48910   0.686  17.207  11.559 -0.3155 -0.2961 -0.1156
29377ION     NA48911  12.644  14.536  14.996 -0.1304 -0.1733 -0.3911
29378ION     NA48912   9.192  10.421  16.036  0.1606  0.2803 -0.1814
29379ION     NA48913  15.813  12.300   5.937 -0.2129  0.3037  0.0023
29380ION     NA48914   3.740  13.681  11.461  0.0394  0.2837 -0.2414
29381ION     NA48915   6.680   0.263   5.893  0.1679  0.2005  0.0023
29382ION     NA48916  12.361   0.700  13.472  0.0162  0.0673 -0.1363
29383ION     NA48917   9.588  15.120   6.125  0.1009  0.0046 -0.0734
29384ION     NA48918   9.136   2.909  11.519  0.1907 -0.0688  0.2293
29385ION     NA48919  15.600  11.312  11.218  0.1405  0.0590 -0.0363
29386ION     NA48920  10.703   6.480  11.431 -0.1269  0.1418  0.1331
29387ION     NA48921  16.580  14.162  11.352 -0.1561 -0.0273 -0.1923
29388ION     NA48922  12.404   9.858  11.412 -0.1405  0.0687  0.1853
29389ION     NA48923   1.971   5.245  16.865  0.1015 -0.0183 -0.1016
29390ION     NA48924  11.624   6.975   1.130  0.3358  0.2749 -0.1226
29391ION     NA48925  15.968   7.590   5.641 -0.2811 -0.0024 -0.3160
29392ION     NA48926  16.978  16.272   5.881  0.1182 -0.1449 -0.2475
29393ION     NA48927   6.148   7.121  13.263 -0.1796 -0.0859 -0.1401
29394ION     NA48928  13.987  11.507   5.941 -0.3048 -0.1181  0.1716
29395ION     NA48929   4.746  13.177   6.115 -0.1374  0.3731 -0.0847
29396ION     NA48930   3.920  15.546   2.980  0.0183 -0.3731  0.0576
29397ION     NA48931   6.374   2.975  11.551  0.2099  0.0392 -0.0632
29398ION     NA48932   0.435   7.945  13.427 -0.3583  0.1131 -0.1240
29399ION     NA48933  12.915   7.603   1.026 -0.0779  0.0848 -0.3090
29400ION     NA48934  11.435  15.173   1.381 -0.2197 -0.0238  0.1240
29401ION     NA48935  14.365   0.610  11.562  0.1541  0.0901 -0.1661
29402ION     NA48936   3.831   6.187   5.939  0.0878  0.0391 -0.3867
29403ION     NA48937  15.908   3.414   4.817  0.1595 -0.2815  0.0613
29404ION     NA48938   9.096   1.201  11.417 -0.1715 -0.1779  0.2437
29405ION     NA48939  16.196   0.381   0.317 -0.2049  0.1491 -0.2852
29406ION     NA48940   2.796  13.701   5.665  0.2869  0.0706  0.0553
29407ION     NA48941  13.748   8.749  15.948  0.0213 -0.3156 -0.1437
29408ION     NA48942   8.170   4.030  13.078 -0.1655 -0.1191  0.0197
29409ION     NA48943   7.123   4.394  11.267  0.1019 -0.1067 -0.0373
29410ION     NA48944  13.322   6.473   5.944  0.2262 -0.1201  0.0446
29411ION     NA48945   5.833  11.776  11.589  0.1713 -0.1254 -0.1589
29412ION     NA48946  10.677  10.212   3.585  0.1101 -0.2143 -0.0574
29413ION     NA48947  11.864  12.751   5.501  0.1041 -0.2229 -0.2034
29414ION     NA48948   6.948   4.015   5.931  0.1168 -0.0898  0.2527
29415ION     NA48949  14.972   4.567   6.112  0.0393 -0.0540  0.0054
29416ION     NA48950   9.195   3.673   5.995  0.1033 -0.0116 -0.0082
29417ION     NA48951  10.292  12.656   5.983  0.1342  0.2569  0.4031
29418ION     NA48952   9.738  13.246  11.649  0.2000 -0.0700  0.0567
29419ION     NA48953   5.838  15.412   5.904 -0.0923  0.2876  0.1152
29420ION     NA48954   2.896   6.552   5.387  0.0023 -0.1655 -0.4120
29421ION     NA48955   4.441  10.194   0.712  0.0078  0.1161  0.4019
29422ION     NA48956   7.006   9.720  15.818  0.0070 -0.0287 -0.0791
29423ION     NA48957  10.890   2.112   4.028 -0.0335 -0.0462  0.0669
29424ION     NA48958  10.603   0.495  15.612  0.1470 -0.0345 -0.1263
29425ION     NA48959   7.357   4.038  11.613  0.1724  0.1471  0.3673
29426ION     NA48960   3.534  14.139   5.841  0.0982 -0.3223 -0.1720
29427ION     NA48961   6.729   7.463  11.396 -0.0555  0.0035 -0.3218
29428ION     NA48962  11.204  13.313   1.735 -0.1632 -0.1889 -0.3064
29429ION     NA48963   3.401  12.415  11.331 -0.2751  0.0843 -0.2863
29430ION     NA48964   7.071  13.566  11.488 -0.2450  0.0644 -0.0535
29431ION     NA48965   6.916  16.786   6.000 -0.0309  0.1445 -0.0148
29432ION     NA48966   2.681   9.425  11.674 -0.0848 -0.0322 -0.2363
29433ION     NA48967   0.562   3.221   5.963  0.3653 -0.2445 -0.1191
29434ION     NA48968  16.802   7.848   5.876 -0.1530  0.0177 -0.1880
29435ION     NA48969  11.328   3.360  13.861  0.0360  0.1135 -0.1202
29436ION     NA48970  11.201   2.943   5.610  0.0946  0.0235  0.0808
29437ION     NA48971   7.489  16.874   4.263 -0.0394  0.0145  0.0849
29438ION     NA48972   8.606   8.782   6.003 -0.4136  0.0514 -0.1543
29439ION     NA48973   7.622  16.262   5.880 -0.2342 -0.3260  0.3122
29440ION     NA48974  11.295  10.420   6.066 -0.0480  0.2354  0.0771
29441ION     NA48975  12.596   3.648  13.031 -0.1224 -0.0634 -0.3378
29442ION     NA48976   3.664  11.775   6.148 -0.1196 -0.1629  0.0699
29443ION     NA48977   5.555  14.536   5.747 -0.1941 -0.0572  0.0489
29444ION     NA48978   0.694   6.669   5.996 -0.2076 -0.0627 -0.0071
29445ION     NA48979   6.777  11.505  11.856  0.0323 -0.1449  0.1827
29446ION     NA48980   7.756  14.565   3.245  0.0777 -0.3121 -0.0448
29447ION     NA48981   9.972   3.859   6.197  0.3505 -0.3346 -0.1788
29448ION     NA48982   8.274  14.237  11.390 -0.2496 -0.1299 -0.3305
29449ION     NA48983  11.271  13.249  12.149  0.0324 -0.3374 -0.0078
29450ION     NA48984   3.390  15.546   5.840 -0.0314 -0.1251  0.0841
29451ION     NA48985  11.895   9.981   5.970  0.0671 -0.2133  0.0654
29452ION     NA48986   7.136  12.849   0.972  0.1768  0.2698 -0.2269
29453ION     NA48987   6.486  15.775  14.835 -0.3614 -0.3683 -0.1648
29454ION     NA48988   1.261   2.842   6.064 -0.3613 -0.2487  0.0496
29455ION     NA48989   7.389   1.463  11.386 -0.0741 -0.2549 -0.0455
29456ION     NA48990   2.026  14.477  11.310  0.0808 -0.0632 -0.1303
29457ION     NA48991   9.341  11.459   5.886  0.1807 -0.2051 -0.3477
29458ION     NA48992   3.379   1.674   5.669 -0.0789 -0.1337  0.1045
29459ION     NA48993  16.796   1.157   6.091  0.0725  0.1636  0.1281
29460ION     NA48994   6.707   1.765   3.175  0.2793 -0.0086 -0.2428
29461ION     NA48995   6.377   8.178  11.610 -0.2086 -0.1840 -0.1419
29462ION     NA48996   9.125   8.635   0.865 -0.0876 -0.1999 -0.1940
29463ION     NA48997  10.757   1.907   6.053  0.0247  0.1741 -0.1027
29464ION     NA48998   8.803   9.991   6.255  0.2547  0.1948 -0.1556
29465ION     NA48999  16.329  16.921   5.941  0.2478 -0.1512 -0.1842
29466ION     NA49000  13.048   5.134  11.411 -0.1782 -0.0988 -0.3815
29467ION     NA49001   3.645   4.440   5.869 -0.2067  0.0762 -0.2669
29468ION     NA49002   8.165   6.638   6.133 -0.1041  0.0984  0.0017
29469ION     NA49003  17.137   0.125  11.583 -0.2186 -0.0279  0.1856
29470ION     NA49004   2.551   1.715  11.326 -0.1546  0.2071 -0.2380
29471ION     NA49005  14.234  10.635   4.896  0.2485 -0.0574 -0.1839
29472ION     NA49006  13.089   7.739  12.660 -0.0545  0.1338 -0.0145
29473ION     NA49007   3.595   9.389  11.494  0.1915 -0.2392  0.0248
29474ION     NA49008   2.819   0.873   5.568  0.1658  0.2149 -0.0838
29475ION     NA49009  14.702   0.176   5.716  0.1182 -0.0446  0.1631
29476ION     NA49010   9.218   8.592  11.625  0.1935 -0.2395 -0.1009
29477ION     NA49011  13.532  12.366   5.935 -0.1705  0.0541 -0.1700
29478ION     NA49012  14.679  16.577  12.314 -0.1302  0.1351  0.2781
29479ION     NA49013   5.560   3.990   2.520  0.0814 -0.1033  0.0444
29480ION     NA49014  12.818   8.873   5.883  0.1772  0.2046  0.0146
29481ION     NA49015   4.644  17.219  11.088  0.0142 -0.1320  0.0949
29482ION     NA49016  13.951   7.886   5.897  0.1372  0.1380  0.2554
29483ION     NA49017   6.207   9.136   6.096 -0.2606  0.1518  0.1025
29484ION     NA49018   8.764   3.974   4.626  0.0693 -0.1433  0.3563
29485ION     NA49019  16.595   9.694   5.755  0.1114 -0.1980  0.3612
29486ION     NA49020  15.222   9.287   5.791  0.1161 -0.2356 -0.1577
29487ION     NA49021   0.194  12.328  17.178 -0.1945 -0.0656 -0.1651
29488ION     NA49022  15.312   4.767   4.107 -0.1440  0.1834 -0.0420
29489ION     NA49023   5.962   1.830   5.833 -0.0691 -0.1225  0.1032
29490ION     NA49024  14.990   6.714   5.739 -0.1859  0.0999 -0.2658
29491ION     NA49025  10.932  13.891   6.020  0.2312  0.1135  0.3685
29492ION     NA49026   7.847   8.400  14.249 -0.1545 -0.1860  0.4861
29493ION     NA49027   3.333   6.339   2.542  0.0734 -0.0968 -0.1294
29494ION     NA49028   6.298   4.596   5.908  0.0005 -0.1662  0.1167
29495ION     NA49029  11.855   2.284  14.953  0.1874  0.2871  0.1275
29496ION     NA49030  12.047  13.562   5.953 -0.1792  0.0146 -0.2398
29497ION     NA49031  10.659  15.390   6.072  0.0152 -0.0302 -0.1303
29498ION     NA49032  10.439   5.435  11.591 -0.0083 -0.1310  0.1995
29499ION     NA49033   3.772   0.919   5.420  0.0790 -0.2537 -0.0865
29500ION     NA49034  16.623  11.223  15.646  0.0338  0.1886 -0.0450
29501ION     NA49035  12.446   4.052   5.878 -0.0297 -0.0960 -0.3005
29502ION     NA49036   8.366   0.083  11.429  0.3424  0.0737  0.1807
29503ION     NA49037   2.526   2.087   6.113 -0.3579  0.2386 -0.0187
29504ION     NA49038   9.721   4.870  16.467 -0.0819 -0.0135 -0.0890
29505ION     NA49039  13.774   8.772   6.077 -0.2111 -0.2300 -0.0712
29506ION     NA49040  17.154  17.224   6.043 -0.2540 -0.0568 -0.0098
29507ION     NA49041   8.572   5.849   6.010  0.0507 -0.3792 -0.3604
29508ION     NA49042  14.852  12.294   2.031  0.0184 -0.0714  0.1553
29509ION     NA49043  17.203   8.454  11.533 -0.0328 -0.0567  0.1454
29510ION     NA49044  17.133   0.841   4.708  0.0570  0.3063  0.2492
29511ION     NA49045  16.681   8.394  11.452  0.2672 -0.2291 -0.1629
29512ION     NA49046  17.472   4.147   5.965  0.1064 -0.2192 -0.1099
29513ION     NA49047  11.012  13.756   2.277 -0.0202 -0.1700  0.0801
29514ION     NA49048   7.589   0.588  11.509  0.0436  0.1346 -0.0544
29515ION     NA49049  12.007   4.927  11.510  0.2622  0.0252  0.2757
29516ION     NA49050   3.908  10.585  11.963 -0.2958  0.0656 -0.0296
29517ION     NA49051  15.111   1.226  13.846 -0.1445  0.2878 -0.0674
29518ION     NA49052   3.060  14.099  11.399  0.2407  0.3022 -0.0149
29519ION     NA49053   1.106  15.150   5.725  0.0789  0.1551  0.2184
29520ION     NA49054   0.623  17.427   5.906  0.0854  0.0002  0.0141
29521ION     NA49055   5.641  15.158  11.425  0.4905 -0.1927 -0.2736
29522ION     NA49056   0.279  16.868   5.936  0.2896 -0.1819  0.1072
29523ION     NA49057  10.503   5.065  12.062  0.0221  0.1917 -0.3086
29524ION     NA49058  13.179   0.259  13.607  0.2565  0.0548 -0.1187
29525ION     NA49059   3.205   0.707   2.404  0.2200  0.0760 -0.2098
29526ION     NA49060   5.722  10.355  11.644  0.1406 -0.2048 -0.0661
29527ION     NA49061  13.808   7.068  11.395 -0.0173  0.1542  0.0469
29528ION     NA49062   2.625  15.711   5.536 -0.0446  0.0006  0.0320
29529ION     NA49063   7.101   7.624   1.866 -0.1260 -0.0252 -0.0831
29530ION     NA49064  13.907   0.017   5.775 -0.0414 -0.2511  0.1027
29531ION     NA49065   6.890  14.403   2.000 -0.0848 -0.0203 -0.3763
29532ION     NA49066  16.488  17.022  12.381 -0.0679 -0.1967  0.0704
29533ION     NA49067   1.790   1.159  11.072  0.0342  0.0467  0.2277
29534ION     NA49068  12.752   6.193  11.338  0.2693  0.1774 -0.2544
29535ION     NA49069   6.504  14.721   6.061 -0.2340 -0.1230 -0.0531
29536ION     NA49070   3.747  16.244  11.271 -0.3123  0.2909 -0.0630
29537ION     NA49071   7.475   7.041  11.552  0.0362  0.1020  0.0897
29538ION     NA49072   3.472  13.349   5.841 -0.0533 -0.0700  0.3306
29539ION     NA49073  13.786  11.723   4.400  0.1270 -0.1781  0.0772
29540ION     NA49074  15.995  14.722   3.624  0.2039  0.0478  0.0594
29541ION     NA49075   6.480   5.510   5.897 -0.2919  0.0211 -0.0571
29542ION     NA49076   8.330   7.000   4.399  0.0960 -0.1073  0.0423
29543ION     NA49077   8.513   9.949   4.584 -0.0780  0.0661  0.0927
29544ION     NA49078   5.207  16.446  11.321 -0.2260  0.1572 -0.2570
29545ION     NA49079   7.230  11.712  11.720 -0.2334 -0.0174 -0.0074
29546ION     NA49080   3.178   4.864  13.746  0.0087  0.0514  0.0734
29547ION     NA49081  17.465   7.280   5.787  0.2981 -0.0722 -0.2095
29548ION     NA49082   5.212  10.192   2.085 -0.1478  0.0406 -0.2712
29549ION     NA49083  15.094   5.966   6.027  0.1620 -0.0480 -0.2586
29550ION     NA49084   1.514   9.444   6.122  0.3145  0.0095 -0.5480
29551ION     NA49085   2.077  16.703   5.875  0.0398  0.1360  0.0125
29552ION     NA49086  13.125   7.191   5.993  0.0921  0.1826 -0.1433
29553ION     NA49087   0.088   3.288   5.758  0.1062 -0.1324  0.0772
29554ION     NA49088  16.808  13.077  14.491  0.0550 -0.2574 -0.1315
29555ION     NA49089  14.089  15.161  11.390  0.1862  0.0178  0.0519
29556ION     NA49090  12.010   5.655   6.033  0.1771  0.0896  0.3484
29557ION     NA49091  11.833  15.509  12.291  0.0711  0.1309 -0.2173
29558ION     NA49092   6.239  14.032  13.164 -0.0253 -0.1570  0.0652
29559ION     NA49093  14.464  16.915   5.954  0.0995  0.0262  0.1819
29560ION     NA49094  12.813  17.471  11.606  0.2988 -0.3146 -0.0223
29561ION     NA49095   5.045  10.394   6.146  0.0518  0.2678  0.1070
29562ION     NA49096   3.553   0.217   5.532 -0.6313  0.1200  0.0899
29563ION     NA49097  14.750   9.984   5.954 -0.0222 -0.2566  0.0602
29564ION     NA49098  14.552   8.324  11.482  0.0958  0.1736 -0.2637
29565ION     NA49099   5.897  15.478   5.418 -0.1144 -0.0512  0.1312
29566ION     NA49100  15.762   0.116   5.820 -0.1626  0.0744 -0.1686
29567ION     NA49101  15.922  13.358  14.999 -0.0453  0.2709 -0.1382
29568ION     NA49102   8.351  14.347  12.769 -0.2999 -0.1786 -0.1307
29569ION     NA49103  10.633   0.946  16.342 -0.1925 -0.0687  0.0117
29570ION     NA49104  14.895  13.240  14.791  0.3141 -0.1644 -0.1088
29571ION     NA49105   3.204   3.102  13.492 -0.0889  0.0182  0.2684
29572ION     NA49106   0.419   6.658  15.179 -0.0225  0.1818  0.1134
29573ION     NA49107  16.153  14.612   4.837  0.0690 -0.3017 -0.0384
29574ION     NA49108   7.642  10.896  13.567 -0.0736 -0.1116 -0.0354
29575ION     NA49109   1.792  17.203  11.141 -0.1951 -0.0175  0.0268
29576ION     NA49110  13.456  13.430   6.013  0.0996 -0.0322 -0.0187
29577ION     NA49111   3.987  10.689  14.892 -0.0396  0.1707 -0.1294
29578ION     NA49112  12.175  11.581  11.630  0.1270  0.1301 -0.1006
29579ION     NA49113   0.820   0.981  14.395 -0.1186  0.1557  0.1871
29580ION     NA49114  13.542  14.550   6.113  0.0019 -0.0051  0.1268
29581ION     NA49115  10.538  13.601   5.890  0.0956 -0.1240  0.0953
29582ION     NA49116   3.375   0.567  11.076  0.4045  0.4920 -0.0656
29583ION     NA49117  11.389  13.657   5.938 -0.2174  0.2407 -0.0979
29584ION     NA49118  14.743   4.726  11.562  0.0439 -0.2266  0.2786
29585ION     NA49119   0.170   9.856   1.047 -0.0411  0.5063 -0.1087
29586ION     NA49120  16.955  15.437   6.007 -0.1785  0.2219 -0.0681
29587ION     NA49121  12.586   2.552   5.943  0.0131  0.0124 -0.1542
29588ION     NA49122   5.176   9.685  16.058 -0.0710 -0.0507  0.2540
29589ION     NA49123   7.254  10.757  11.652 -0.4856  0.0555 -0.0953
29590ION     NA49124  11.172  14.623   6.221 -0.1960 -0.3307  0.2203
29591ION     NA49125   1.259   6.419  11.446  0.0735  0.1453 -0.1919
29592ION     NA49126   8.909   7.921   6.160  0.0221  0.0761  0.1251
29593ION     NA49127   0.176  11.115   5.993  0.0403 -0.2047  0.1671
29594ION     NA49128  10.527  12.668  11.608 -0.1546 -0.1525  0.0006
29595ION     NA49129  15.166  12.184  11.399 -0.3667 -0.1081  0.1456
29596ION     NA49130  10.073   1.540  11.491  0.1111 -0.2102  0.2068
29597ION     NA49131   8.796  15.820   0.005 -0.0242  0.0261  0.0356
29598ION     NA49132  11.102  14.123  16.314  0.1119 -0.0801  0.2147
29599ION     NA49133  13.000   9.300  11.660  0.1342  0.1162 -0.0791
29600ION     NA49134   3.757   0.192  10.978 -0.2621  0.1238  0.1743
29601ION     NA49135  12.223  17.156   5.899  0.2129  0.2004  0.0346
29602ION     NA49136  13.567   5.744  11.505  0.0471 -0.0996  0.1648
29603ION     NA49137  14.520   6.633  11.515 -0.1209 -0.0457  0.1165
29604ION     NA49138   1.938   5.445  14.450 -0.0040 -0.1401 -0.0707
29605ION     NA49139  13.387  12.334  11.763  0.2509  0.1267 -0.0002
29606ION     NA49140  16.464  17.063  11.424  0.0672  0.1053  0.2564
29607ION     NA49141   3.006   6.723   6.102  0.0911  0.1818  0.2750
29608ION     NA49142   6.753   0.554  11.309  0.0762 -0.3821 -0.0362
29609ION     NA49143  12.892  11.152  11.293  0.2877 -0.0506  0.1398
29610ION     NA49144  12.020   2.910  11.446  0.2626  0.1348  0.0587
29611ION     NA49145  11.985  13.297  15.368  0.0040  0.0524 -0.3371
29612ION     NA49146   3.596   3.623  12.686  0.0140  0.0645 -0.0578
29613ION     NA49147   6.857   9.990  11.817  0.0487  0.1933 -0.0050
29614ION     NA49148   8.300  13.754   6.061  0.0132  0.3821  0.1147
29615ION     NA49149   6.890  17.012   3.070  0.0180  0.0769  0.1093
29616ION     NA49150   8.512   2.181  11.487 -0.2189  0.1016  0.3023
29617ION     NA49151   1.164   0.496  11.064  0.0488 -0.0064  0.3680
29618ION     NA49152   3.740  11.009  11.619  0.1251  0.0242  0.0364
29619ION     NA49153   6.226   5.119   5.073 -0.1251 -0.1930  0.0424
29620ION     NA49154   5.278  13.660   6.054  0.0131 -0.1874  0.2844
29621ION     NA49155   9.821   6.197  11.370  0.2810 -0.0462 -0.1601
29622ION     NA49156   0.052   0.281  11.252 -0.0632 -0.3871 -0.0510
29623ION     NA49157   6.180   4.610  11.203 -0.0988  0.0316 -0.0991
29624ION     NA49158   6.150  12.790   4.148  0.1106 -0.2521  0.1934
29625ION     NA49159   4.174  17.005  15.030  0.0093  0.1697  0.0434
29626ION     NA49160   8.472   9.537   6.304 -0.0750 -0.1115 -0.2836
29627ION     NA49161   1.361  14.589   2.503 -0.2857  0.0514  0.1902
29628ION     NA49162  10.589   0.100   5.914 -0.3723 -0.3645  0.0266
29629ION     NA49163  10.058  16.829   5.948  0.1674  0.2238 -0.0538
29630ION     NA49164   3.577  12.428   5.523 -0.1609 -0.2309 -0.2509
29631ION     NA49165   6.520  17.051  11.371  0.5131 -0.1830  0.0577
29632ION     NA49166  16.287   2.932  11.287  0.5599 -0.0274  0.0908
29633ION     NA49167  12.862   7.012   2.556 -0.0211  0.2655  0.0190
29634ION     NA49168   7.248   0.943   5.950  0.0325  0.5435 -0.0771
29635ION     NA49169   9.139  10.634  11.623 -0.1522 -0.0681 -0.1335
29636ION     NA49170   8.127   3.206  13.082 -0.0101  0.3211 -0.0822
29637ION     NA49171   7.364   7.010   5.965 -0.3646  0.1339  0.2683
29638ION     NA49172  11.766  11.254   3.114  0.0474  0.0870 -0.0969
29639ION     NA49173  12.132  14.794  11.317 -0.0992  0.0222  0.1247
29640ION     NA49174   9.628   9.939  11.521 -0.0500 -0.2379  0.4347
29641ION     NA49175   3.187  17.019   2.235 -0.0990 -0.1032 -0.0358
29642ION     NA49176   6.504  14.657  16.455 -0.0425  0.2752  0.1157
29643ION     NA49177   6.468  12.903  11.798 -0.1375 -0.0817  0.0794
29644ION     NA49178   6.106  16.127  11.377  0.1054  0.2517  0.3733
29645ION     NA49179  15.656  15.505   5.814  0.1627 -0.2634  0.2002
29646ION     NA49180  11.330   1.062  11.355  0.0819  0.1729 -0.0785
29647ION     NA49181   4.272  16.349  11.094 -0.0511  0.2038 -0.3088
29648ION     NA49182  16.779  14.721  13.950  0.1659  0.1486 -0.1378
29649ION     NA49183  12.666   6.407  16.044  0.0059 -0.2064  0.2386
29650ION     NA49184  10.598   8.886  13.584 -0.1771 -0.1916 -0.1220
29651ION     NA49185  17.107   5.757   5.722  0.2391  0.0531 -0.0058
29652ION     NA49186   5.235   7.856   2.066 -0.2580 -0.2144  0.0821
29653ION     NA49187   4.932   2.695   1.934 -0.0798  0.3460 -0.1264
29654ION     NA49188   8.190   0.132   6.117  0.0331  0.0026  0.1113
29655ION     NA49189   7.003   9.212   5.907  0.1742  0.0015 -0.0388
29656ION     NA49190  10.878   5.433   4.112  0.0867 -0.0951  0.0998
29657ION     NA49191   2.888   6.325  11.485  0.0562  0.0173 -0.3406
29658ION     NA49192   5.374   4.779   1.560  0.1501 -0.0588  0.1433
29659ION     NA49193  10.453   4.302   3.328  0.0423 -0.0499 -0.0524
29660ION     NA49194   0.321   8.843   5.931 -0.0375 -0.1295  0.0753
29661ION     NA49195   5.918   1.301  12.747 -0.0672 -0.1085 -0.1937
29662ION     NA49196   8.223  10.967   3.587  0.0501 -0.1012  0.1721
29663ION     NA49197   6.382   9.250  11.672 -0.0905  0.0337 -0.5077
29664ION     NA49198   7.768  15.795   6.065  0.1434 -0.1136 -0.0904
29665ION     NA49199  10.174   8.015   6.257 -0.2981 -0.0156  0.0677
29666ION     NA49200   4.165   2.452   5.943  0.1211  0.1435  0.1325
29667ION     NA49201  15.236   2.571   6.119 -0.2998  0.2509 -0.2690
29668ION     NA49202   7.254  11.668   2.551  0.1900  0.1167  0.0135
29669ION     NA49203  17.343   3.031   5.003 -0.1495 -0.0855  0.0954
29670ION     NA49204  15.666  16.747   2.643  0.2507  0.1220 -0.2123
29671ION     NA49205   1.810   8.488   2.015 -0.0465  0.0421 -0.0946
29672ION     NA49206  16.449   4.662  11.433 -0.0100  0.1057 -0.0574
29673ION     NA49207   8.221   9.303  11.608 -0.0616 -0.1068 -0.1122
29674ION     NA49208  14.174   4.630   5.571 -0.0717 -0.1269  0.0126
29675ION     NA49209   1.279  17.028   5.873 -0.2316  0.1596  0.2657
29676ION     NA49210  11.911   7.525  13.270  0.1897 -0.1335 -0.4650
29677ION     NA49211   9.513  10.612   6.132  0.2068  0.1875  0.1888
29678ION     NA49212  17.144  12.262   5.797 -0.0635 -0.1094  0.1387
29679ION     NA49213  11.415   6.069  17.134 -0.2903  0.0196 -0.0622
29680ION     NA49214  13.460  15.857  11.400 -0.0523  0.3263 -0.0076
29681ION     NA49215   7.584  10.981   6.077  0.3365  0.0642 -0.1952
29682ION     NA49216   8.656   8.288   0.181 -0.0154 -0.1342  0.3563
29683ION     NA49217   7.641   2.650   5.926  0.0464 -0.1479  0.1491
29684ION     NA49218  12.764  12.940   5.875  0.0852 -0.1462 -0.1129
29685ION     NA49219  10.795   0.901  11.357  0.1660  0.0067  0.1484
29686ION     NA49220  12.028   9.487   5.949 -0.0518  0.0492  0.0954
29687ION     NA49221  15.826  11.757  11.150  0.2269  0.1394 -0.0329
29688ION     NA49222   1.172  11.046  11.638  0.0543 -0.1107  0.0804
29689ION     NA49223  11.179   1.395   1.637 -0.1208 -0.2006 -0.0098
29690ION     NA49224  13.774   7.987  11.292 -0.0584  0.3405  0.1783
29691ION     NA49225  15.822  15.984   4.118 -0.0528 -0.2944 -0.1097
29692ION     NA49226   6.298   7.834   0.708  0.2085 -0.2463 -0.4167
29693ION     NA49227  12.569  16.352  11.593 -0.1185  0.1470 -0.3517
29694ION     NA49228  14.389   5.849  15.702  0.0346 -0.3661 -0.3997
29695ION     NA49229  15.440  11.588   5.843 -0.0618 -0.1566  0.0361
29696ION     NA49230  14.064   0.863   5.874 -0.0011 -0.0405  0.0657
29697ION     NA49231   5.409  14.942   1.572 -0.0399  0.1062 -0.0316
29698ION     NA49232   2.613   5.988   5.991 -0.1713  0.0688  0.0658
29699ION     NA49233   1.088  16.201   5.744 -0.1487  0.0691 -0.1329
29700ION     NA49234  11.356  14.882  11.268 -0.1628 -0.1075 -0.0951
29701ION     NA49235  17.325   1.990   0.909  0.0198  0.3655 -0.2541
29702ION     NA49236   0.181   1.652   6.175 -0.0355 -0.0516  0.3189
29703ION     NA49237   7.492   7.921   6.172 -0.0497 -0.0145 -0.1299
29704ION     NA49238   3.603  10.898   5.988 -0.0337 -0.0020  0.1057
29705ION     NA49239   7.341   3.042  11.488  0.0367  0.1569 -0.1339
29706ION     NA49240  12.470   4.701  11.690 -0.1122 -0.1328  0.1703
29707ION     NA49241   0.371  14.201   5.700 -0.0660  0.0572 -0.2023
29708ION     NA49242  17.327   7.554  11.628 -0.0125  0.3895 -0.0034
29709ION     NA49243  15.938   2.049   4.647 -0.0626  0.1215 -0.0030
29710ION     NA49244   3.946  13.181   5.833 -0.1677 -0.0476 -0.0778
29711ION     NA49245  11.160  13.104  11.289  0.1469 -0.1583  0.1137
29712ION     NA49246   1.064  15.517  11.425 -0.0359  0.1340 -0.2605
29713ION     NA49247   6.093   8.391  14.369 -0.2544 -0.1846  0.1327
29714ION     NA49248   9.952   2.686  11.569  0.0515 -0.2122 -0.1035
29715ION     NA49249   3.931   5.523  11.394  0.0907  0.1634  0.0510
29716ION     NA49250  10.504  11.752  11.554  0.3157  0.0738 -0.0838
29717ION     NA49251  13.188   1.904   6.003  0.1541 -0.3418  0.0605
29718ION     NA49252  11.573  12.480   3.149  0.3238 -0.1059  0.0747
29719ION     NA49253   1.547   4.724   5.897 -0.2630 -0.2448  0.1312
29720ION     NA49254   7.010  15.570   5.846 -0.1991  0.1437 -0.0024
29721ION     NA49255   3.919  14.044  16.086  0.1147 -0.1319  0.0506
29722ION     NA49256  10.904  11.021   5.609  0.0688 -0.1054 -0.1690
29723ION     NA49257   7.700   2.407  11.524  0.1964 -0.0310 -0.1064
29724ION     NA49258   9.090   6.997   6.026 -0.0714 -0.0446  0.1057
29725ION     NA49259  12.685  15.459  11.545 -0.0750  0.1905 -0.0193
29726ION     NA49260   0.261  13.115  11.192  0.1475 -0.0088 -0.1773
29727ION     NA49261  12.705   0.615  16.373  0.0359 -0.3920 -0.2777
29728ION     NA49262  14.672   9.151  11.498 -0.1659 -0.2894 -0.3110
29729ION     NA49263   0.382   1.914  11.301 -0.0080  0.1090 -0.1997
29730ION     NA49264  14.039  16.533  11.448 -0.4599 -0.0059  0.0199
29731ION     NA49265   3.857  16.357   5.637  0.0049 -0.0035 -0.1001
29732ION     NA49266   3.889   7.282   6.072  0.1487  0.0041 -0.0684
29733ION     NA49267   8.703  10.917   6.129 -0.0438 -0.1874 -0.1781
29734ION     NA49268  15.032  12.896  11.389 -0.1420  0.2590 -0.0803
29735ION     NA49269   7.773   5.296   5.633 -0.1244 -0.0329  0.0260
29736ION     NA49270   0.552   9.596   5.938  0.1470 -0.2370  0.1920
29737ION     NA49271   6.863   7.088  17.174  0.0405  0.0153 -0.1197
29738ION     NA49272   0.866  14.966  12.445  0.1745  0.0442  0.0782
29739ION     NA49273  15.463  14.861  11.350  0.1537 -0.2698  0.1578
29740ION     NA49274   7.903   1.805   5.860 -0.3160  0.1197 -0.0724
29741ION     NA49275   9.901  12.434  11.628  0.0760  0.0897 -0.3854
29742ION     NA49276   5.782   7.475  11.522 -0.1723 -0.0323 -0.2488
29743ION     NA49277   2.250   6.602   6.070 -0.3530  0.2270 -0.2315
29744ION     NA49278   4.501   4.163   6.115 -0.0405 -0.1445 -0.1012
29745ION     NA49279   4.561   4.200  11.511 -0.3214  0.2124 -0.1048
29746ION     NA49280  15.565  12.290  12.023 -0.1870 -0.4090  0.2443
29747ION     NA49281  14.684   1.938   6.015 -0.0506  0.0826  0.1300
29748ION     NA49282  12.837   4.942   5.894 -0.0389  0.0813  0.0468
29749ION     NA49283   4.669  15.052  11.505  0.0811  0.1796  0.0412
29750ION     NA49284   1.516   7.280  11.414 -0.0328 -0.0244  0.0861
29751ION     NA49285  14.230   6.227   5.975  0.1213  0.1633 -0.0823
29752ION     NA49286  10.452  11.898   0.731 -0.1416  0.1289 -0.0416
29753ION     NA49287  16.475   7.182  11.546 -0.0173  0.1465 -0.0243
29754ION     NA49288  10.867  10.105   0.815  0.0216  0.2915  0.0115
29755ION     NA49289   0.955  13.889  14.136 -0.2108  0.1009 -0.2097
29756ION     NA49290   6.149   2.734  11.992  0.1748 -0.0442  0.2938
29757ION     NA49291  14.696   1.977   5.502 -0.0917  0.0935  0.2714
29758ION     NA49292  13.612  10.623  11.418 -0.1786  0.2856 -0.0427
29759ION     NA49293   9.971   8.907  11.700 -0.0065 -0.1633 -0.0518
29760ION     NA49294  11.197   5.143   5.907  0.1693 -0.0257 -0.0231
29761ION     NA49295   1.238   1.937  11.381 -0.0033 -0.4256  0.0419
29762ION     NA49296  12.204   0.380   5.844  0.0295  0.1654  0.0403
29763ION     NA49297  14.864   5.759  11.550  0.2488 -0.1298 -0.0645
29764ION     NA49298   6.498  14.709  11.309 -0.1578 -0.0332 -0.0128
29765ION     NA49299  14.465   5.422  11.621 -0.1109  0.0264  0.1639
29766ION     NA49300   2.154   9.813   5.087  0.3512 -0.1504 -0.1262
29767ION     NA49301   0.535   4.575   0.510 -0.2111 -0.0983 -0.2631
29768ION     NA49302   2.486  11.433  11.326 -0.0162  0.0078  0.0788
29769ION     NA49303   5.060   1.146  11.112 -0.1865  0.0585 -0.1006
  17.47734  17.47734  17.31354
